 Gaussian 16, Revision A.03,

 -----------------------------------------------------------
 # opt freq B3LYP/6-31G(d) empiricaldispersion=gd3bj scf=xqc
 -----------------------------------------------------------

 ------------------------------
 CID_22894453_JID_5709_neutraal
 ------------------------------
 Symbolic Z-matrix:
 Charge =  0 Multiplicity = 1

 SCF Done:  E(RB3LYP) =  -655.495329963     A.U. after   15 cycles
 SCF Done:  E(RB3LYP) =  -655.489201142     A.U. after   14 cycles
 SCF Done:  E(RB3LYP) =  -655.499200068     A.U. after   13 cycles
 SCF Done:  E(RB3LYP) =  -655.499202366     A.U. after   13 cycles
 SCF Done:  E(RB3LYP) =  -655.500294958     A.U. after   12 cycles
 SCF Done:  E(RB3LYP) =  -655.500448796     A.U. after   12 cycles
 SCF Done:  E(RB3LYP) =  -655.500573690     A.U. after   12 cycles
 SCF Done:  E(RB3LYP) =  -655.500612924     A.U. after   11 cycles
 SCF Done:  E(RB3LYP) =  -655.500626479     A.U. after   10 cycles
 SCF Done:  E(RB3LYP) =  -655.500638211     A.U. after   10 cycles
 SCF Done:  E(RB3LYP) =  -655.500954047     A.U. after    9 cycles
 SCF Done:  E(RB3LYP) =  -655.500954670     A.U. after    9 cycles
 SCF Done:  E(RB3LYP) =  -655.500955343     A.U. after    9 cycles
 SCF Done:  E(RB3LYP) =  -655.500955632     A.U. after    8 cycles
 SCF Done:  E(RB3LYP) =  -655.500955708     A.U. after    8 cycles
 SCF Done:  E(RB3LYP) =  -655.500955723     A.U. after    7 cycles
 Optimization completed.
    -- Stationary point found.
 Normal termination of Gaussian 16 at Thu Dec 10 17:29:42 2020.

 --------------------------------------------------------------------
 #N Geom=AllCheck Guess=TCheck SCRF=Check GenChk RB3LYP/6-31G(d) Freq
 --------------------------------------------------------------------

 Structure from the checkpoint file:  "JID_5709.chk"
 ------------------------------
 CID_22894453_JID_5709_neutraal
 ------------------------------
 Charge =  0 Multiplicity = 1

 SCF Done:  E(RB3LYP) =  -655.500955723     A.U. after    1 cycles

  Exact polarizability: 154.370  23.626 119.525  14.473 -16.719 128.904
 Approx polarizability: 214.089  36.820 180.168  31.347 -50.788 242.044

                      1                      2                      3
                      A                      A                      A
 Frequencies --     23.2447                30.3314                40.8748
 Red. masses --      3.5770                 1.0923                 3.6126
 Frc consts  --      0.0011                 0.0006                 0.0036
 IR Inten    --      0.3024                 0.0557                 0.8901

                      4                      5                      6
                      A                      A                      A
 Frequencies --     60.3372                69.6066                89.3989
 Red. masses --      3.0881                 5.0197                 4.1051
 Frc consts  --      0.0066                 0.0143                 0.0193
 IR Inten    --      0.1585                 5.0499                 0.2780

                      7                      8                      9
                      A                      A                      A
 Frequencies --    142.9504               158.1707               170.4877
 Red. masses --      5.2637                 4.7396                 1.0456
 Frc consts  --      0.0634                 0.0699                 0.0179
 IR Inten    --      1.1734                 2.1883                 0.7984

                     10                     11                     12
                      A                      A                      A
 Frequencies --    267.1795               277.2907               320.6598
 Red. masses --      2.7675                 3.7886                 3.5649
 Frc consts  --      0.1164                 0.1716                 0.2160
 IR Inten    --      1.2068                 6.2059                 3.6375

                     13                     14                     15
                      A                      A                      A
 Frequencies --    348.9101               353.3506               393.0600
 Red. masses --      4.2557                 2.9435                 2.8513
 Frc consts  --      0.3052                 0.2165                 0.2595
 IR Inten    --      2.7687                 0.4535                 1.3864

                     16                     17                     18
                      A                      A                      A
 Frequencies --    413.6751               427.1282               460.5355
 Red. masses --      3.6465                 3.2108                 2.3785
 Frc consts  --      0.3677                 0.3451                 0.2972
 IR Inten    --      1.6191                 0.6358                 4.4574

                     19                     20                     21
                      A                      A                      A
 Frequencies --    480.8283               522.7345               540.4511
 Red. masses --      3.0925                 2.6678                 3.2999
 Frc consts  --      0.4213                 0.4295                 0.5679
 IR Inten    --      6.5579                 6.3443                 6.9181

                     22                     23                     24
                      A                      A                      A
 Frequencies --    564.6998               634.2591               656.1218
 Red. masses --      3.5905                 1.3146                 6.5650
 Frc consts  --      0.6746                 0.3116                 1.6651
 IR Inten    --      5.6688                 6.3267                 0.2514

                     25                     26                     27
                      A                      A                      A
 Frequencies --    701.9933               714.1834               731.1969
 Red. masses --      3.0509                 3.5430                 3.6193
 Frc consts  --      0.8858                 1.0647                 1.1401
 IR Inten    --      2.7769                 0.1821                 7.4606

                     28                     29                     30
                      A                      A                      A
 Frequencies --    802.9170               828.8066               836.4464
 Red. masses --      2.1182                 1.3998                 1.4492
 Frc consts  --      0.8046                 0.5665                 0.5974
 IR Inten    --      3.6653                43.8736                15.1320

                     31                     32                     33
                      A                      A                      A
 Frequencies --    842.7737               910.1234               924.0757
 Red. masses --      4.2500                 2.6494                 2.8696
 Frc consts  --      1.7785                 1.2930                 1.4437
 IR Inten    --      3.7671                 2.1118                 1.0945

                     34                     35                     36
                      A                      A                      A
 Frequencies --    943.2044               956.7640               958.4071
 Red. masses --      1.2708                 1.3126                 1.3348
 Frc consts  --      0.6661                 0.7079                 0.7224
 IR Inten    --      3.8928                13.2831                27.1430

                     37                     38                     39
                      A                      A                      A
 Frequencies --    976.6403              1017.9412              1032.9792
 Red. masses --      1.8112                 1.4637                 1.4697
 Frc consts  --      1.0178                 0.8936                 0.9240
 IR Inten    --      1.2626                 6.5865                 3.8707

                     40                     41                     42
                      A                      A                      A
 Frequencies --   1038.6469              1070.9206              1076.7212
 Red. masses --      2.4829                 2.3611                 1.4888
 Frc consts  --      1.5781                 1.5954                 1.0169
 IR Inten    --      1.5677                39.8645                 4.3083

                     43                     44                     45
                      A                      A                      A
 Frequencies --   1080.7220              1091.7642              1141.2218
 Red. masses --      1.8671                 1.9927                 2.4210
 Frc consts  --      1.2849                 1.3994                 1.8578
 IR Inten    --     32.4784                15.3967                56.8513

                     46                     47                     48
                      A                      A                      A
 Frequencies --   1153.9262              1219.1845              1244.1711
 Red. masses --      1.2826                 1.1642                 1.4304
 Frc consts  --      1.0062                 1.0196                 1.3045
 IR Inten    --      8.9243                24.1729                23.8138

                     49                     50                     51
                      A                      A                      A
 Frequencies --   1246.5062              1263.2503              1310.8409
 Red. masses --      2.7773                 2.1161                 1.8477
 Frc consts  --      2.5425                 1.9896                 1.8706
 IR Inten    --      7.0837               140.2256                87.1478

                     52                     53                     54
                      A                      A                      A
 Frequencies --   1343.0074              1351.7548              1366.9585
 Red. masses --      1.9870                 1.3513                 3.7915
 Frc consts  --      2.1116                 1.4547                 4.1742
 IR Inten    --     10.0541                22.3188                55.9878

                     55                     56                     57
                      A                      A                      A
 Frequencies --   1381.5136              1423.2197              1439.2897
 Red. masses --      1.8471                 1.3167                 1.2785
 Frc consts  --      2.0770                 1.5714                 1.5604
 IR Inten    --     38.6543                 8.3338                10.1131

                     58                     59                     60
                      A                      A                      A
 Frequencies --   1444.6695              1465.5859              1468.2746
 Red. masses --      1.2476                 2.2220                 1.3699
 Frc consts  --      1.5341                 2.8121                 1.7400
 IR Inten    --      0.1140                 1.5385                 6.7838

                     61                     62                     63
                      A                      A                      A
 Frequencies --   1503.9044              1508.8295              1515.7980
 Red. masses --      1.0470                 1.1099                 1.0447
 Frc consts  --      1.3952                 1.4887                 1.4143
 IR Inten    --      4.2159                 8.0811                 4.6328

                     64                     65                     66
                      A                      A                      A
 Frequencies --   1523.8826              1527.7841              1542.3511
 Red. masses --      1.0785                 1.1045                 1.0889
 Frc consts  --      1.4756                 1.5190                 1.5262
 IR Inten    --     10.7674                 6.8611                 6.1601

                     67                     68                     69
                      A                      A                      A
 Frequencies --   1566.8589              1640.6628              1679.6777
 Red. masses --      2.5634                 5.9254                 5.8683
 Frc consts  --      3.7078                 9.3974                 9.7548
 IR Inten    --    128.5432                14.3616                35.6736

                     70                     71                     72
                      A                      A                      A
 Frequencies --   1714.0613              1752.9513              3040.0007
 Red. masses --      4.5152                11.0319                 1.0378
 Frc consts  --      7.8160                19.9728                 5.6508
 IR Inten    --      6.3836               128.8351                43.5671

                     73                     74                     75
                      A                      A                      A
 Frequencies --   3061.1798              3073.6355              3082.4532
 Red. masses --      1.0353                 1.0589                 1.0620
 Frc consts  --      5.7159                 5.8942                 5.9454
 IR Inten    --     13.7116                32.0633                17.5605

                     76                     77                     78
                      A                      A                      A
 Frequencies --   3090.0417              3121.2153              3121.4218
 Red. masses --      1.1007                 1.1069                 1.1000
 Frc consts  --      6.1924                 6.3533                 6.3146
 IR Inten    --     23.4960                21.1808                13.9361

                     79                     80                     81
                      A                      A                      A
 Frequencies --   3122.6565              3139.3278              3142.9567
 Red. masses --      1.1005                 1.1025                 1.1041
 Frc consts  --      6.3225                 6.4021                 6.4260
 IR Inten    --     17.0330                14.6178                15.2939

                     82                     83                     84
                      A                      A                      A
 Frequencies --   3176.9920              3180.3781              3181.6400
 Red. masses --      1.0887                 1.0628                 1.0896
 Frc consts  --      6.4744                 6.3338                 6.4984
 IR Inten    --     18.8735                 7.2546                16.1573

                     85                     86                     87
                      A                      A                      A
 Frequencies --   3212.1524              3244.8955              3265.9370
 Red. masses --      1.0930                 1.0907                 1.1127
 Frc consts  --      6.6444                 6.7661                 6.9924
 IR Inten    --      8.1567                 3.6574                 7.1439

 - Thermochemistry -
 -------------------
 Temperature   298.150 Kelvin.  Pressure   1.00000 Atm.
 Atom     1 has atomic number  6 and mass  12.00000

 Molecular mass:   204.11503 amu.
 Principal axes and moments of inertia in atomic units:
                           1         2         3
     Eigenvalues --  1996.114434000.290144689.17430
           X            0.99949   0.03156  -0.00544
           Y           -0.03149   0.99942   0.01276
           Z            0.00584  -0.01259   0.99990
 This molecule is an asymmetric top.
 Rotational symmetry number  1.
 Warning -- assumption of classical behavior for rotation
           may cause significant error
 Rotational temperatures (Kelvin)      0.04339     0.02165     0.01847
 Rotational constants (GHZ):           0.90413     0.45115     0.38487
 Zero-point vibrational energy     687736.3 (Joules/Mol)
                                  164.37293 (Kcal/Mol)
 Warning -- explicit consideration of  22 degrees of freedom as
           vibrations may cause significant error
 Vibrational temperatures:     33.44    43.64    58.81    86.81   100.15
          (Kelvin)            128.63   205.67   227.57   245.29   384.41
                              398.96   461.36   502.00   508.39   565.53
                              595.19   614.54   662.61   691.80   752.10
                              777.59   812.48   912.56   944.01  1010.01
                             1027.55  1052.03  1155.22  1192.47  1203.46
                             1212.56  1309.46  1329.54  1357.06  1376.57
                             1378.93  1405.17  1464.59  1486.23  1494.38
                             1540.82  1549.16  1554.92  1570.81  1641.96
                             1660.24  1754.13  1790.08  1793.44  1817.54
                             1886.01  1932.29  1944.87  1966.75  1987.69
                             2047.70  2070.82  2078.56  2108.65  2112.52
                             2163.78  2170.87  2180.90  2192.53  2198.14
                             2219.10  2254.36  2360.55  2416.68  2466.15
                             2522.11  4373.88  4404.36  4422.28  4434.96
                             4445.88  4490.73  4491.03  4492.81  4516.79
                             4522.01  4570.98  4575.85  4577.67  4621.57
                             4668.68  4698.95

 Zero-point correction=                           0.261945 (Hartree/Particle)
 Thermal correction to Energy=                    0.277229
 Thermal correction to Enthalpy=                  0.278173
 Thermal correction to Gibbs Free Energy=         0.217321
 Sum of electronic and zero-point Energies=           -655.239011
 Sum of electronic and thermal Energies=              -655.223726
 Sum of electronic and thermal Enthalpies=            -655.222782
 Sum of electronic and thermal Free Energies=         -655.283635

                     E (Thermal)             CV                S
                      KCal/Mol        Cal/Mol-Kelvin    Cal/Mol-Kelvin
 Total                  173.964             56.639            128.075
 Electronic               0.000              0.000              0.000
 Translational            0.889              2.981             41.845
 Rotational               0.889              2.981             31.993
 Vibrational            172.187             50.678             54.237
 Vibration     1          0.593              1.985              6.336
 Vibration     2          0.594              1.984              5.808
 Vibration     3          0.594              1.981              5.216
 Vibration     4          0.597              1.973              4.446
 Vibration     5          0.598              1.969              4.164
 Vibration     6          0.602              1.957              3.673
 Vibration     7          0.616              1.910              2.764
 Vibration     8          0.621              1.893              2.572
 Vibration     9          0.626              1.879              2.430
 Vibration    10          0.672              1.733              1.614
 Vibration    11          0.678              1.715              1.550
 Vibration    12          0.706              1.634              1.307
 Vibration    13          0.726              1.577              1.171
 Vibration    14          0.730              1.568              1.151
 Vibration    15          0.760              1.485              0.989
 Vibration    16          0.777              1.441              0.914
 Vibration    17          0.789              1.411              0.868
 Vibration    18          0.818              1.338              0.765
 Vibration    19          0.837              1.293              0.708
 Vibration    20          0.878              1.200              0.604
 Vibration    21          0.896              1.161              0.564
 Vibration    22          0.921              1.108              0.515

 Optimization completed.
    -- Stationary point found.
 Normal termination of Gaussian 16 at Thu Dec 10 17:40:57 2020.

 ----------------------------------------------------------------------
 # B3LYP/6-311++G(d,p) empiricaldispersion=gd3bj scf=xqc pop=npa geom=c
 heck
 ----------------------------------------------------------------------

 --------------------------------------
 CID_22894453_JID_5709_Energie_neutraal
 --------------------------------------
 Structure from the checkpoint file:  "JID_5709.chk"
 Charge =  0 Multiplicity = 1

 SCF Done:  E(RB3LYP) =  -655.681579002     A.U. after   15 cycles
 Normal termination of Gaussian 16 at Thu Dec 10 17:46:12 2020.

 ----------------------------------------------------------------------
 # B3LYP/6-311++G(d,p) empiricaldispersion=gd3bj scf=xqc pop=npa geom=c
 heck
 ----------------------------------------------------------------------

 ------------------------------------
 CID_22894453_JID_5709_Energie_kation
 ------------------------------------
 Structure from the checkpoint file:  "JID_5709.chk"
 Charge =  1 Multiplicity = 2

 SCF Done:  E(UB3LYP) =  -655.394944705     A.U. after   23 cycles
 Normal termination of Gaussian 16 at Thu Dec 10 17:57:08 2020.
 Gaussian 16:  ES64L-G16RevA.03 25-Dec-2016

 ----------------------------------------------------------------------
 # B3LYP/6-311++G(d,p) empiricaldispersion=gd3bj scf=xqc pop=npa geom=c
 heck
 ----------------------------------------------------------------------

 -----------------------------------
 CID_22894453_JID_5709_Energie_anion
 -----------------------------------
 Structure from the checkpoint file:  "JID_5709.chk"
 Charge = -1 Multiplicity = 2

                         Standard orientation:
 ---------------------------------------------------------------------
 Center     Atomic      Atomic             Coordinates (Angstroms)
 Number     Number       Type             X           Y           Z
 ---------------------------------------------------------------------
      1          6           0        4.153908    0.976518   -0.354229
      2          6           0        2.869902    0.193947   -0.225288
      3          6           0        2.663422   -0.681653    0.852385
      4          6           0        1.486505   -1.405792    0.980637
      5          6           0        0.468865   -1.272903    0.026995
      6          6           0        0.654257   -0.415393   -1.058445
      7          6           0        1.847512    0.306121   -1.167338
      8          8           0       -0.653054   -2.025542    0.269053
      9          6           0       -1.789600   -1.915751   -0.578847
     10          6           0       -2.773713   -0.825821   -0.122953
     11          6           0       -2.243322    0.588152   -0.334385
     12          8           0       -2.343350    1.096453   -1.444974
     13          6           0       -1.575346    1.336338    0.770263
     14          6           0       -1.412917    0.807893    1.991865
     15          6           0       -1.054458    2.697029    0.394884
     16          1           0        4.359765    1.564387    0.548723
     17          1           0        5.015459    0.314576   -0.509449
     18          1           0        4.113070    1.669400   -1.200516
     19          1           0        3.439610   -0.794959    1.605983
     20          1           0        1.325940   -2.077646    1.817815
     21          1           0       -0.115398   -0.265157   -1.804080
     22          1           0        1.972377    0.976967   -2.013939
     23          1           0       -1.497977   -1.759639   -1.622535
     24          1           0       -2.285748   -2.887810   -0.511282
     25          1           0       -3.669321   -0.914227   -0.747105
     26          1           0       -3.060937   -1.019377    0.912931
     27          1           0       -0.897218    1.359213    2.773310
     28          1           0       -1.744496   -0.190748    2.250253
     29          1           0       -0.278134    2.600226   -0.372116
     30          1           0       -1.846864    3.316976   -0.036452
     31          1           0       -0.628981    3.208427    1.262554
 ---------------------------------------------------------------------

 SCF Done:  E(UB3LYP) =  -655.689804847     A.U. after   32 cycles

 The electronic state is 2-A.
 Alpha  occ. eigenvalues --  -19.02630 -18.91298 -10.11139 -10.10064 -10.07047
 Alpha  occ. eigenvalues --  -10.06183 -10.05634 -10.05598 -10.05337 -10.04969
 Alpha  occ. eigenvalues --  -10.04665 -10.02966 -10.01689 -10.01044  -9.99293
 Alpha  occ. eigenvalues --   -0.94047  -0.85505  -0.73896  -0.66655  -0.64421
 Alpha  occ. eigenvalues --   -0.63136  -0.62534  -0.57506  -0.53909  -0.51845
 Alpha  occ. eigenvalues --   -0.49394  -0.46167  -0.44060  -0.41237  -0.37522
 Alpha  occ. eigenvalues --   -0.35418  -0.34769  -0.33250  -0.33084  -0.32039
 Alpha  occ. eigenvalues --   -0.31918  -0.30481  -0.29926  -0.28617  -0.27474
 Alpha  occ. eigenvalues --   -0.26852  -0.26163  -0.25207  -0.24609  -0.23857
 Alpha  occ. eigenvalues --   -0.22992  -0.21516  -0.20959  -0.20398  -0.19853
 Alpha  occ. eigenvalues --   -0.18491  -0.13754  -0.11331  -0.09590  -0.07649
 Alpha  occ. eigenvalues --    0.04944
 Alpha virt. eigenvalues --    0.07247   0.08645   0.09275   0.09732   0.10134
 Alpha virt. eigenvalues --    0.10338   0.11295   0.11452   0.11713   0.12435
 Alpha virt. eigenvalues --    0.12802   0.13017   0.13355   0.14092   0.15255

  Beta  occ. eigenvalues --  -19.02631 -18.90767 -10.11143 -10.10027 -10.07045
  Beta  occ. eigenvalues --  -10.06197 -10.05548 -10.05285 -10.05278 -10.04937
  Beta  occ. eigenvalues --  -10.04662 -10.02993 -10.01693 -10.01037  -9.98889
  Beta  occ. eigenvalues --   -0.94043  -0.84535  -0.73837  -0.66603  -0.64078
  Beta  occ. eigenvalues --   -0.63000  -0.62430  -0.57427  -0.53649  -0.51591
  Beta  occ. eigenvalues --   -0.49224  -0.45972  -0.43328  -0.41182  -0.37433
  Beta  occ. eigenvalues --   -0.35376  -0.34534  -0.33086  -0.32868  -0.32010
  Beta  occ. eigenvalues --   -0.31830  -0.30443  -0.29742  -0.28320  -0.27346
  Beta  occ. eigenvalues --   -0.26667  -0.26047  -0.24991  -0.24547  -0.23717
  Beta  occ. eigenvalues --   -0.22765  -0.21294  -0.20295  -0.20010  -0.19591
  Beta  occ. eigenvalues --   -0.17195  -0.13432  -0.09943  -0.08744  -0.07198
  Beta virt. eigenvalues --    0.07178   0.08658   0.09210   0.09648   0.09930
  Beta virt. eigenvalues --    0.10350   0.10813   0.11278   0.11731   0.12380
  Beta virt. eigenvalues --    0.12615   0.12979   0.13066   0.13317   0.14299

 Mulliken charges and spin densities:
               1          2
     1  C   -0.637886  -0.034202
     2  C    0.325295   0.054946
     3  C   -0.136578   0.052424
     4  C   -0.143122   0.035018
     5  C   -0.651211   0.051888
     6  C    0.457711  -0.182926
     7  C   -0.409157   0.065616
     8  O   -0.073541  -0.006408
     9  C   -0.163404  -0.157075
    10  C    0.207995  -0.360780
    11  C   -0.366332   0.417781
    12  O   -0.376121   0.188765
    13  C    0.991547  -0.097874
    14  C   -0.969014   0.407528
    15  C   -0.718321   0.022723
    16  H    0.132862   0.005386
    17  H    0.123631   0.009813
    18  H    0.111379   0.024018
    19  H    0.123970   0.012783
    20  H    0.158893  -0.002833
    21  H    0.214624   0.009104
    22  H    0.147187  -0.007759
    23  H    0.142563  -0.009581
    24  H   -0.106354   0.272626
    25  H    0.015657   0.145984
    26  H    0.061727   0.097324
    27  H    0.080364  -0.023606
    28  H    0.088394  -0.004808
    29  H    0.129467   0.008680
    30  H    0.142815   0.007531
    31  H    0.094960  -0.002087
 Sum of Mulliken charges =  -1.00000   1.00000

 Dipole moment (field-independent basis, Debye):
    X=              6.1240    Y=             -1.6726    Z=              0.1363  Tot=              6.3498
 Quadrupole moment (field-independent basis, Debye-Ang):
   XX=           -126.0024   YY=           -112.5895   ZZ=           -109.8247
   XY=              7.0330   XZ=             -1.1179   YZ=              1.0071

 Summary of Natural Population Analysis:

                                       Natural Population
                Natural  -----------------------------------------------
    Atom  No    Charge         Core      Valence    Rydberg      Total
 -----------------------------------------------------------------------
      C    1   -0.28771      0.99964     2.28364    0.00443     3.28771
      C    2   -0.04566      0.99951     2.03807    0.00808     3.04566
      C    3   -0.08961      0.99953     2.08238    0.00771     3.08961
      C    4   -0.11010      0.99953     2.10224    0.00834     3.11010
      C    5    0.16670      0.99936     1.81975    0.01418     2.83330
      C    6   -0.13755      0.99951     2.12851    0.00953     3.13755
      C    7   -0.08179      0.99953     2.07397    0.00829     3.08179
      O    8   -0.28077      0.99985     3.27167    0.00925     4.28077
      C    9   -0.00226      0.99956     1.98929    0.01341     3.00226
      C   10   -0.24094      0.99959     2.23180    0.00956     3.24094
      C   11    0.29972      0.99959     1.67749    0.02320     2.70028
      O   12   -0.26502      0.99988     3.25916    0.00598     4.26502
      C   13   -0.06429      0.99949     2.05351    0.01130     3.06429
      C   14   -0.09290      0.99953     2.08529    0.00808     3.09290
      C   15   -0.29287      0.99963     2.28653    0.00670     3.29287
      H   16    0.09814      0.00000     0.40075    0.00111     0.40186
      H   17    0.09581      0.00000     0.40312    0.00107     0.40419
      H   18    0.09879      0.00000     0.40035    0.00087     0.40121
      H   19    0.09085      0.00000     0.40792    0.00123     0.40915
      H   20    0.10100      0.00000     0.39775    0.00125     0.39900
      H   21    0.11602      0.00000     0.38266    0.00132     0.38398
      H   22    0.09365      0.00000     0.40506    0.00130     0.40635
      H   23    0.08329      0.00000     0.41540    0.00131     0.41671
      H   24    0.08521      0.00000     0.41337    0.00142     0.41479
      H   25    0.10616      0.00000     0.39209    0.00174     0.39384
      H   26    0.10064      0.00000     0.39788    0.00148     0.39936
      H   27    0.07784      0.00000     0.42117    0.00099     0.42216
      H   28    0.08481      0.00000     0.41391    0.00128     0.41519
      H   29    0.10311      0.00000     0.39588    0.00102     0.39689
      H   30    0.10079      0.00000     0.39825    0.00096     0.39921
      H   31    0.08896      0.00000     0.41019    0.00085     0.41104
 =======================================================================
   * Total *   -0.00000     14.99373    39.83905    0.16722    55.00000

 Normal termination of Gaussian 16 at Thu Dec 10 18:12:04 2020.
