 Gaussian 16, Revision A.03,

 -----------------------------------------------------------
 # opt freq B3LYP/6-31G(d) empiricaldispersion=gd3bj scf=xqc
 -----------------------------------------------------------

 ------------------------------
 CID_91498355_JID_2356_neutraal
 ------------------------------
 Symbolic Z-matrix:
 Charge =  0 Multiplicity = 1

 SCF Done:  E(RB3LYP) =  -841.860653302     A.U. after   15 cycles
 SCF Done:  E(RB3LYP) =  -841.865674826     A.U. after   12 cycles
 SCF Done:  E(RB3LYP) =  -841.866485538     A.U. after   11 cycles
 SCF Done:  E(RB3LYP) =  -841.866919847     A.U. after   11 cycles
 SCF Done:  E(RB3LYP) =  -841.867133668     A.U. after   11 cycles
 SCF Done:  E(RB3LYP) =  -841.867362385     A.U. after   12 cycles
 SCF Done:  E(RB3LYP) =  -841.867487015     A.U. after   11 cycles
 SCF Done:  E(RB3LYP) =  -841.867530653     A.U. after   11 cycles
 SCF Done:  E(RB3LYP) =  -841.867560408     A.U. after   10 cycles
 SCF Done:  E(RB3LYP) =  -841.867578312     A.U. after   10 cycles
 SCF Done:  E(RB3LYP) =  -841.868737279     A.U. after    9 cycles
 SCF Done:  E(RB3LYP) =  -841.868737744     A.U. after    9 cycles
 SCF Done:  E(RB3LYP) =  -841.868737984     A.U. after    9 cycles
 SCF Done:  E(RB3LYP) =  -841.868738022     A.U. after    7 cycles
 SCF Done:  E(RB3LYP) =  -841.868738017     A.U. after    7 cycles
 Optimization completed.
    -- Stationary point found.
 Normal termination of Gaussian 16 at Wed Dec  9 17:47:16 2020.

 --------------------------------------------------------------------
 #N Geom=AllCheck Guess=TCheck SCRF=Check GenChk RB3LYP/6-31G(d) Freq
 --------------------------------------------------------------------

 Structure from the checkpoint file:  "JID_2356.chk"
 ------------------------------
 CID_91498355_JID_2356_neutraal
 ------------------------------
 Charge =  0 Multiplicity = 1

 SCF Done:  E(RB3LYP) =  -841.868738017     A.U. after    1 cycles

  Exact polarizability: 186.217  11.962  79.015   0.931  19.061 115.129
 Approx polarizability: 297.228  21.939 113.666   1.715  40.108 200.360

                      1                      2                      3
                      A                      A                      A
 Frequencies --     17.7223                34.6623                42.7563
 Red. masses --      2.7229                 4.2545                 3.0024
 Frc consts  --      0.0005                 0.0030                 0.0032
 IR Inten    --      0.2218                 0.3529                 0.6405

                      4                      5                      6
                      A                      A                      A
 Frequencies --     76.8390                81.1307                97.7339
 Red. masses --      1.4114                 2.7532                 3.6063
 Frc consts  --      0.0049                 0.0107                 0.0203
 IR Inten    --      0.1506                 0.5171                 0.2964

                      7                      8                      9
                      A                      A                      A
 Frequencies --    115.5224               185.0914               267.3916
 Red. masses --      1.8522                 5.3351                 4.0243
 Frc consts  --      0.0146                 0.1077                 0.1695
 IR Inten    --      0.0177                 0.3470                 1.0483

                     10                     11                     12
                      A                      A                      A
 Frequencies --    271.9758               327.9221               348.8171
 Red. masses --      4.2528                 1.0109                 1.1175
 Frc consts  --      0.1853                 0.0640                 0.0801
 IR Inten    --      0.2145                 1.8331               120.9471

                     13                     14                     15
                      A                      A                      A
 Frequencies --    402.3570               428.4871               487.3277
 Red. masses --      4.4673                 3.2523                 5.9658
 Frc consts  --      0.4261                 0.3518                 0.8348
 IR Inten    --      3.5702                 2.5814                 2.5163

                     16                     17                     18
                      A                      A                      A
 Frequencies --    499.8205               519.3332               557.6927
 Red. masses --      7.1259                 3.4223                 4.1052
 Frc consts  --      1.0489                 0.5438                 0.7523
 IR Inten    --      1.9069                 1.6349                 0.8069

                     19                     20                     21
                      A                      A                      A
 Frequencies --    638.8522               654.5048               673.9480
 Red. masses --      4.5827                 1.2927                 5.1836
 Frc consts  --      1.1020                 0.3263                 1.3872
 IR Inten    --      9.4502                 6.6573                 1.0430

                     22                     23                     24
                      A                      A                      A
 Frequencies --    714.9094               723.9454               732.7163
 Red. masses --      6.5937                 3.6131                 1.4078
 Frc consts  --      1.9855                 1.1157                 0.4453
 IR Inten    --      2.9817                 9.9901                62.2736

                     25                     26                     27
                      A                      A                      A
 Frequencies --    752.1594               834.1886               836.6373
 Red. masses --      1.3265                 1.0578                 1.0575
 Frc consts  --      0.4421                 0.4337                 0.4361
 IR Inten    --     66.8282                 2.9721                 8.3733

                     28                     29                     30
                      A                      A                      A
 Frequencies --    848.7616               884.0733               914.8882
 Red. masses --      1.3604                 3.8685                 1.3435
 Frc consts  --      0.5774                 1.7815                 0.6625
 IR Inten    --      0.9054                 2.7457                 2.5923

                     31                     32                     33
                      A                      A                      A
 Frequencies --    961.4272               987.8199              1012.9731
 Red. masses --      1.2329                 1.8365                 3.2487
 Frc consts  --      0.6715                 1.0558                 1.9641
 IR Inten    --      0.0214                10.7708                 0.0487

                     34                     35                     36
                      A                      A                      A
 Frequencies --   1055.9151              1084.0574              1154.8682
 Red. masses --      2.5220                 3.6463                 1.5441
 Frc consts  --      1.6567                 2.5247                 1.2134
 IR Inten    --     10.1168                 3.5180                12.4080

                     37                     38                     39
                      A                      A                      A
 Frequencies --   1193.2121              1236.0394              1238.2907
 Red. masses --      1.1074                 1.4615                 1.4619
 Frc consts  --      0.9289                 1.3156                 1.3207
 IR Inten    --      0.4889                 0.8572                 0.4599

                     40                     41                     42
                      A                      A                      A
 Frequencies --   1245.8509              1290.6531              1310.0536
 Red. masses --      3.1252                 1.5137                 2.1608
 Frc consts  --      2.8580                 1.4856                 2.1849
 IR Inten    --     52.3500                25.8974                11.0034

                     43                     44                     45
                      A                      A                      A
 Frequencies --   1355.8975              1421.9422              1432.2032
 Red. masses --      3.6744                 1.7666                 1.2006
 Frc consts  --      3.9801                 2.1045                 1.4510
 IR Inten    --     23.0521                 2.0013                 0.3040

                     46                     47                     48
                      A                      A                      A
 Frequencies --   1454.4742              1473.2735              1522.1983
 Red. masses --      1.2575                 1.4433                 3.0216
 Frc consts  --      1.5674                 1.8457                 4.1251
 IR Inten    --      1.4092                17.5092                99.3726

                     49                     50                     51
                      A                      A                      A
 Frequencies --   1525.2251              1531.6834              1533.3283
 Red. masses --      1.9383                 1.0281                 1.0545
 Frc consts  --      2.6567                 1.4211                 1.4607
 IR Inten    --      1.3112                 3.5716                 2.6302

                     52                     53                     54
                      A                      A                      A
 Frequencies --   1538.0948              1540.8848              1646.1397
 Red. masses --      1.0639                 1.0688                 6.0918
 Frc consts  --      1.4829                 1.4951                 9.7258
 IR Inten    --      5.0124                 4.9491                 4.3175

                     55                     56                     57
                      A                      A                      A
 Frequencies --   1655.6587              1705.4251              3046.5298
 Red. masses --      5.9584                 5.9542                 1.0367
 Frc consts  --      9.6232                10.2033                 5.6689
 IR Inten    --     28.3266               365.0527                19.4759

                     58                     59                     60
                      A                      A                      A
 Frequencies --   3051.9671              3096.4655              3105.6210
 Red. masses --      1.0385                 1.1010                 1.1010
 Frc consts  --      5.6994                 6.2196                 6.2565
 IR Inten    --     31.6684                13.9469                26.3290

                     61                     62                     63
                      A                      A                      A
 Frequencies --   3126.4962              3144.0261              3189.0048
 Red. masses --      1.1019                 1.0999                 1.0605
 Frc consts  --      6.3460                 6.4057                 6.3541
 IR Inten    --     42.2763                37.6073                 1.9349

                     64                     65                     66
                      A                      A                      A
 Frequencies --   3190.0526              3199.1078              3207.5992
 Red. masses --      1.0860                 1.0886                 1.0930
 Frc consts  --      6.5115                 6.5642                 6.6257
 IR Inten    --      3.6476                 3.7741                19.3205

                     67                     68                     69
                      A                      A                      A
 Frequencies --   3219.0962              3279.6925              3633.3876
 Red. masses --      1.0972                 1.1156                 1.0773
 Frc consts  --      6.6987                 7.0702                 8.3797
 IR Inten    --     19.1650                 3.8356                28.4607

 - Thermochemistry -
 -------------------
 Temperature   298.150 Kelvin.  Pressure   1.00000 Atm.
 Atom     1 has atomic number  6 and mass  12.00000

 Molecular mass:   179.07687 amu.
 Principal axes and moments of inertia in atomic units:
                           1         2         3
     Eigenvalues --  1783.227812655.756783176.92812
           X            0.99976   0.00925   0.01962
           Y           -0.00883   0.99973  -0.02128
           Z           -0.01981   0.02110   0.99958
 This molecule is an asymmetric top.
 Rotational symmetry number  1.
 Warning -- assumption of classical behavior for rotation
           may cause significant error
 Rotational temperatures (Kelvin)      0.04857     0.03261     0.02726
 Rotational constants (GHZ):           1.01206     0.67956     0.56808
 Zero-point vibrational energy     541721.7 (Joules/Mol)
                                  129.47460 (Kcal/Mol)
 Warning -- explicit consideration of  18 degrees of freedom as
           vibrations may cause significant error
 Vibrational temperatures:     25.50    49.87    61.52   110.55   116.73
          (Kelvin)            140.62   166.21   266.31   384.72   391.31
                              471.81   501.87   578.90   616.50   701.16
                              719.13   747.20   802.40   919.17   941.69
                              969.66  1028.60  1041.60  1054.22  1082.19
                             1200.21  1203.73  1221.18  1271.98  1316.32
                             1383.28  1421.25  1457.44  1519.23  1559.72
                             1661.60  1716.77  1778.39  1781.62  1792.50
                             1856.96  1884.87  1950.83  2045.86  2060.62
                             2092.66  2119.71  2190.10  2194.46  2203.75
                             2206.12  2212.98  2216.99  2368.43  2382.12
                             2453.73  4383.28  4391.10  4455.12  4468.30
                             4498.33  4523.55  4588.27  4589.77  4602.80
                             4615.02  4631.56  4718.75  5227.63

 Zero-point correction=                           0.206331 (Hartree/Particle)
 Thermal correction to Energy=                    0.219929
 Thermal correction to Enthalpy=                  0.220873
 Thermal correction to Gibbs Free Energy=         0.163546
 Sum of electronic and zero-point Energies=           -841.662407
 Sum of electronic and thermal Energies=              -841.648809
 Sum of electronic and thermal Enthalpies=            -841.647865
 Sum of electronic and thermal Free Energies=         -841.705192

                     E (Thermal)             CV                S
                      KCal/Mol        Cal/Mol-Kelvin    Cal/Mol-Kelvin
 Total                  138.007             48.654            120.654
 Electronic               0.000              0.000              0.000
 Translational            0.889              2.981             41.455
 Rotational               0.889              2.981             31.087
 Vibrational            136.230             42.693             48.112
 Vibration     1          0.593              1.986              6.874
 Vibration     2          0.594              1.983              5.543
 Vibration     3          0.595              1.980              5.127
 Vibration     4          0.599              1.965              3.970
 Vibration     5          0.600              1.962              3.863
 Vibration     6          0.603              1.951              3.499
 Vibration     7          0.608              1.937              3.174
 Vibration     8          0.631              1.860              2.276
 Vibration     9          0.672              1.733              1.613
 Vibration    10          0.675              1.725              1.584
 Vibration    11          0.711              1.620              1.270
 Vibration    12          0.726              1.578              1.172
 Vibration    13          0.768              1.465              0.954
 Vibration    14          0.790              1.408              0.864
 Vibration    15          0.843              1.278              0.691
 Vibration    16          0.855              1.250              0.659
 Vibration    17          0.874              1.207              0.612
 Vibration    18          0.913              1.123              0.528

 Optimization completed.
    -- Stationary point found.
 Normal termination of Gaussian 16 at Wed Dec  9 17:53:52 2020.

 ----------------------------------------------------------------------
 # B3LYP/6-311++G(d,p) empiricaldispersion=gd3bj scf=xqc pop=npa geom=c
 heck
 ----------------------------------------------------------------------

 --------------------------------------
 CID_91498355_JID_2356_Energie_neutraal
 --------------------------------------
 Structure from the checkpoint file:  "JID_2356.chk"
 Charge =  0 Multiplicity = 1

 SCF Done:  E(RB3LYP) =  -842.018354174     A.U. after   16 cycles
 Normal termination of Gaussian 16 at Wed Dec  9 17:56:53 2020.

 ----------------------------------------------------------------------
 # B3LYP/6-311++G(d,p) empiricaldispersion=gd3bj scf=xqc pop=npa geom=c
 heck
 ----------------------------------------------------------------------

 ------------------------------------
 CID_91498355_JID_2356_Energie_kation
 ------------------------------------
 Structure from the checkpoint file:  "JID_2356.chk"
 Charge =  1 Multiplicity = 2

 SCF Done:  E(UB3LYP) =  -841.761348445     A.U. after   22 cycles
 Normal termination of Gaussian 16 at Wed Dec  9 18:03:01 2020.
 Gaussian 16:  ES64L-G16RevA.03 25-Dec-2016

 ----------------------------------------------------------------------
 # B3LYP/6-311++G(d,p) empiricaldispersion=gd3bj scf=xqc pop=npa geom=c
 heck
 ----------------------------------------------------------------------

 -----------------------------------
 CID_91498355_JID_2356_Energie_anion
 -----------------------------------
 Structure from the checkpoint file:  "JID_2356.chk"
 Charge = -1 Multiplicity = 2

                         Standard orientation:
 ---------------------------------------------------------------------
 Center     Atomic      Atomic             Coordinates (Angstroms)
 Number     Number       Type             X           Y           Z
 ---------------------------------------------------------------------
      1          6           0        0.181723    2.867824   -0.101126
      2          6           0       -1.053818    2.674499   -0.981597
      3          6           0        3.359623   -0.045164    0.518355
      4          6           0        2.065685   -0.356949    0.356739
      5          7           0        1.050478   -0.218856    1.305816
      6          6           0       -0.243987   -0.447011    0.863325
      7          6           0       -1.424442   -0.255209    1.577664
      8          6           0       -2.640627   -0.551652    0.954491
      9          6           0       -2.679100   -1.035582   -0.353975
     10          6           0       -1.491937   -1.226316   -1.072263
     11          6           0       -0.284457   -0.924891   -0.458775
     12         16           0        1.350711   -1.040420   -1.138517
     13          1           0        0.983985    2.176081   -0.378846
     14          1           0       -0.057127    2.692508    0.954577
     15          1           0        0.578532    3.886308   -0.185851
     16          1           0       -0.812335    2.829225   -2.039560
     17          1           0       -1.461839    1.665040   -0.877452
     18          1           0       -1.845904    3.384377   -0.715765
     19          1           0        4.073788   -0.186502   -0.282034
     20          1           0        3.723604    0.346053    1.462567
     21          1           0        1.230147    0.321732    2.139715
     22          1           0       -1.396916    0.120278    2.596495
     23          1           0       -3.565876   -0.400330    1.502148
     24          1           0       -3.631232   -1.261667   -0.823301
     25          1           0       -1.515528   -1.591692   -2.094177
 ---------------------------------------------------------------------

 SCF Done:  E(UB3LYP) =  -842.005700883     A.U. after   33 cycles
 SCF Done:  E(UB3LYP) =  -842.005700883     a.u. after    1 cycles

 The electronic state is 2-A.
 Alpha  occ. eigenvalues --  -88.76979 -14.25197 -10.14758 -10.12387 -10.10829
 Alpha  occ. eigenvalues --  -10.08211 -10.07491 -10.07425 -10.07188 -10.05283
 Alpha  occ. eigenvalues --  -10.05147 -10.05075  -7.85597  -5.81952  -5.81609
 Alpha  occ. eigenvalues --   -5.81033  -0.88060  -0.75755  -0.70995  -0.66986
 Alpha  occ. eigenvalues --   -0.64681  -0.64138  -0.59464  -0.52380  -0.51011
 Alpha  occ. eigenvalues --   -0.50447  -0.48254  -0.43835  -0.39477  -0.37648
 Alpha  occ. eigenvalues --   -0.35221  -0.34338  -0.34135  -0.32980  -0.32363
 Alpha  occ. eigenvalues --   -0.31771  -0.30406  -0.27130  -0.26308  -0.26240
 Alpha  occ. eigenvalues --   -0.26009  -0.24218  -0.23895  -0.23304  -0.20860
 Alpha  occ. eigenvalues --   -0.17269  -0.14017  -0.08789   0.04532
 Alpha virt. eigenvalues --    0.06581   0.07659   0.07913   0.08141   0.08472
 Alpha virt. eigenvalues --    0.08977   0.09421   0.10094   0.10435   0.11004
 Alpha virt. eigenvalues --    0.11266   0.11827   0.11996   0.13521   0.13752

  Beta  occ. eigenvalues --  -88.76963 -14.25155 -10.14727 -10.12391 -10.10812
  Beta  occ. eigenvalues --  -10.08192 -10.07473 -10.07393 -10.07175 -10.05275
  Beta  occ. eigenvalues --  -10.05136 -10.05053  -7.85581  -5.81904  -5.81600
  Beta  occ. eigenvalues --   -5.81022  -0.87998  -0.75711  -0.70921  -0.66946
  Beta  occ. eigenvalues --   -0.64656  -0.64078  -0.59421  -0.52291  -0.50958
  Beta  occ. eigenvalues --   -0.50391  -0.48171  -0.43748  -0.39397  -0.37599
  Beta  occ. eigenvalues --   -0.35167  -0.34294  -0.34082  -0.32958  -0.32321
  Beta  occ. eigenvalues --   -0.31744  -0.30337  -0.27050  -0.26265  -0.26171
  Beta  occ. eigenvalues --   -0.25976  -0.24136  -0.23872  -0.23284  -0.20822
  Beta  occ. eigenvalues --   -0.17250  -0.13977  -0.08767
  Beta virt. eigenvalues --    0.07002   0.07582   0.08065   0.08442   0.08579
  Beta virt. eigenvalues --    0.08845   0.08998   0.10040   0.10419   0.10998
  Beta virt. eigenvalues --    0.11012   0.11376   0.12350   0.12576   0.13506

 Mulliken charges and spin densities:
               1          2
     1  C   -0.169909  -0.215106
     2  C   -0.295687  -0.174344
     3  C    1.677178  -1.976356
     4  C   -0.672002   0.739782
     5  N    0.122278  -0.072683
     6  C    1.032818  -2.267094
     7  C   -2.706856   2.467057
     8  C    1.492291  -1.838381
     9  C    0.790450  -1.083816
    10  C   -2.466722   2.876061
    11  C    2.864392  -1.868899
    12  S   -0.032751  -0.336899
    13  H    0.110193   0.077030
    14  H   -0.028452   0.152574
    15  H   -0.070513   0.195853
    16  H    0.053474   0.055830
    17  H    0.428315  -0.252592
    18  H   -0.090150   0.198252
    19  H    0.152853  -0.037866
    20  H   -0.206795   0.332887
    21  H   -0.123969   0.414144
    22  H   -1.466697   1.674415
    23  H   -0.324704   0.507021
    24  H   -0.470322   0.643016
    25  H   -0.598712   0.790117
 Sum of Mulliken charges =  -1.00000   1.00000

 Dipole moment (field-independent basis, Debye):
    X=              3.5030    Y=             -0.9226    Z=             -4.7964  Tot=              6.0106
 Quadrupole moment (field-independent basis, Debye-Ang):
   XX=           -131.7259   YY=           -117.1153   ZZ=           -130.5869
   XY=             -3.6477   XZ=             -1.3163   YZ=             -7.1348

 Summary of Natural Population Analysis:

                                       Natural Population
                Natural  -----------------------------------------------
    Atom  No    Charge         Core      Valence    Rydberg      Total
 -----------------------------------------------------------------------
      C    1   -0.28710      0.99968     2.28305    0.00437     3.28710
      C    2   -0.28548      0.99967     2.28172    0.00410     3.28548
      C    3   -0.27811      0.99950     2.26836    0.01026     3.27811
      C    4    0.03250      0.99948     1.95245    0.01556     2.96750
      N    5   -0.29925      0.99961     2.78553    0.01411     3.79925
      C    6    0.07439      0.99943     1.91216    0.01402     2.92561
      C    7   -0.11412      0.99951     2.10355    0.01106     3.11412
      C    8   -0.09563      0.99957     2.08544    0.01062     3.09563
      C    9   -0.11297      0.99956     2.10302    0.01039     3.11297
      C   10   -0.10753      0.99949     2.09640    0.01163     3.10753
      C   11   -0.09828      0.99937     2.08652    0.01240     3.09828
      S   12    0.16532      4.99946     2.81741    0.01781     7.83468
      H   13    0.09858      0.00000     0.40002    0.00140     0.40142
      H   14    0.09888      0.00000     0.39974    0.00138     0.40112
      H   15    0.09045      0.00000     0.40870    0.00085     0.40955
      H   16    0.09006      0.00000     0.40887    0.00107     0.40994
      H   17    0.10309      0.00000     0.39491    0.00200     0.39691
      H   18    0.09164      0.00000     0.40729    0.00107     0.40836
      H   19    0.09929      0.00000     0.40003    0.00068     0.40071
      H   20    0.10257      0.00000     0.39644    0.00099     0.39743
      H   21    0.20756      0.00000     0.28249    0.00994     0.29244
      H   22    0.11158      0.00000     0.38315    0.00527     0.38842
      H   23    0.10414      0.00000     0.39426    0.00161     0.39586
      H   24    0.10310      0.00000     0.39540    0.00149     0.39690
      H   25    0.10531      0.00000     0.39330    0.00139     0.39469
 =======================================================================
   * Total *   -0.00000     15.99433    31.84020    0.16546    48.00000

 Normal termination of Gaussian 16 at Wed Dec  9 18:12:52 2020.
