 Gaussian 16, Revision A.03,

 -----------------------------------------------------------
 # opt freq B3LYP/6-31G(d) empiricaldispersion=gd3bj scf=xqc
 -----------------------------------------------------------

 ------------------------------
 CID_13128564_JID_7541_neutraal
 ------------------------------
 Symbolic Z-matrix:
 Charge =  0 Multiplicity = 1

 SCF Done:  E(RB3LYP) =  -746.264874072     A.U. after   15 cycles
 SCF Done:  E(RB3LYP) =  -746.278979161     A.U. after   12 cycles
 SCF Done:  E(RB3LYP) =  -746.282394938     A.U. after   12 cycles
 SCF Done:  E(RB3LYP) =  -746.286429032     A.U. after   13 cycles
 SCF Done:  E(RB3LYP) =  -746.289214099     A.U. after   13 cycles
 SCF Done:  E(RB3LYP) =  -746.292496443     A.U. after   12 cycles
 SCF Done:  E(RB3LYP) =  -746.294386488     A.U. after   12 cycles
 SCF Done:  E(RB3LYP) =  -746.295796302     A.U. after   12 cycles
 SCF Done:  E(RB3LYP) =  -746.296764398     A.U. after   12 cycles
 SCF Done:  E(RB3LYP) =  -746.297886276     A.U. after   12 cycles
 SCF Done:  E(RB3LYP) =  -746.298843790     A.U. after    9 cycles
 SCF Done:  E(RB3LYP) =  -746.298846100     A.U. after   10 cycles
 SCF Done:  E(RB3LYP) =  -746.298846763     A.U. after   10 cycles
 SCF Done:  E(RB3LYP) =  -746.298847668     A.U. after    8 cycles
 SCF Done:  E(RB3LYP) =  -746.298847776     A.U. after    8 cycles
 Optimization completed.
    -- Stationary point found.
 Normal termination of Gaussian 16 at Sun Dec 13 20:21:53 2020.

 --------------------------------------------------------------------
 #N Geom=AllCheck Guess=TCheck SCRF=Check GenChk RB3LYP/6-31G(d) Freq
 --------------------------------------------------------------------

 Structure from the checkpoint file:  "JID_7541.chk"
 ------------------------------
 CID_13128564_JID_7541_neutraal
 ------------------------------
 Charge =  0 Multiplicity = 1

 SCF Done:  E(RB3LYP) =  -746.298847776     A.U. after    1 cycles

  Exact polarizability: 202.133  -5.171 154.748   9.539 -10.202 109.340
 Approx polarizability: 273.212  -9.969 248.789  19.594 -21.298 171.808

                      1                      2                      3
                      A                      A                      A
 Frequencies --     33.3725                44.0306                52.3969
 Red. masses --      3.4225                 3.7284                 3.6915
 Frc consts  --      0.0022                 0.0043                 0.0060
 IR Inten    --      0.2458                 0.8048                 0.4153

                      4                      5                      6
                      A                      A                      A
 Frequencies --     90.7867               110.5487               120.4735
 Red. masses --      3.9173                 2.8916                 2.7373
 Frc consts  --      0.0190                 0.0208                 0.0234
 IR Inten    --      1.7599                 0.4675                 0.4925

                      7                      8                      9
                      A                      A                      A
 Frequencies --    141.2958               183.5905               210.8867
 Red. masses --      3.0458                 2.1079                 3.5683
 Frc consts  --      0.0358                 0.0419                 0.0935
 IR Inten    --      1.2118                 0.2168                 0.3287

                     10                     11                     12
                      A                      A                      A
 Frequencies --    237.7683               268.0758               299.2985
 Red. masses --      1.9559                 4.5085                 2.5060
 Frc consts  --      0.0651                 0.1909                 0.1323
 IR Inten    --      0.1424                 0.1653                 0.9896

                     13                     14                     15
                      A                      A                      A
 Frequencies --    329.3384               346.9466               358.2043
 Red. masses --      3.5189                 1.0973                 6.2204
 Frc consts  --      0.2249                 0.0778                 0.4703
 IR Inten    --      0.4155                63.8693                10.7572

                     16                     17                     18
                      A                      A                      A
 Frequencies --    382.8565               414.5104               424.5059
 Red. masses --      2.8249                 2.3396                 3.1709
 Frc consts  --      0.2440                 0.2368                 0.3367
 IR Inten    --      0.6255                 0.4758                 6.4182

                     19                     20                     21
                      A                      A                      A
 Frequencies --    445.1289               456.9253               513.9448
 Red. masses --      2.7860                 4.1389                 3.2674
 Frc consts  --      0.3252                 0.5091                 0.5085
 IR Inten    --      7.9730                 7.3593                 2.3474

                     22                     23                     24
                      A                      A                      A
 Frequencies --    525.2016               556.8355               591.3449
 Red. masses --      3.4140                 3.3146                 3.6713
 Frc consts  --      0.5548                 0.6055                 0.7564
 IR Inten    --      5.8644                 0.2590                17.2028

                     25                     26                     27
                      A                      A                      A
 Frequencies --    618.4168               635.7646               697.8411
 Red. masses --      4.6265                 6.1706                 3.8113
 Frc consts  --      1.0425                 1.4695                 1.0935
 IR Inten    --     18.4619                 0.4063                10.9214

                     28                     29                     30
                      A                      A                      A
 Frequencies --    709.9446               713.8321               767.7944
 Red. masses --      2.0252                 2.6111                 1.6882
 Frc consts  --      0.6014                 0.7839                 0.5864
 IR Inten    --     14.9221                12.5215                15.8743

                     31                     32                     33
                      A                      A                      A
 Frequencies --    769.7588               785.0775               833.9453
 Red. masses --      2.2557                 1.6766                 1.2479
 Frc consts  --      0.7875                 0.6088                 0.5113
 IR Inten    --     23.1708                20.6850                 0.1905

                     34                     35                     36
                      A                      A                      A
 Frequencies --    878.8789               894.9397               901.6642
 Red. masses --      2.2857                 1.4678                 2.2026
 Frc consts  --      1.0402                 0.6926                 1.0551
 IR Inten    --     15.6060                 5.6908                25.1478

                     37                     38                     39
                      A                      A                      A
 Frequencies --    921.4638               939.6911               949.5348
 Red. masses --      2.0834                 2.2453                 1.3763
 Frc consts  --      1.0423                 1.1681                 0.7311
 IR Inten    --      6.4120                11.9733                76.0053

                     40                     41                     42
                      A                      A                      A
 Frequencies --    955.6279               981.0360               991.0263
 Red. masses --      1.3280                 1.2561                 2.2803
 Frc consts  --      0.7146                 0.7123                 1.3195
 IR Inten    --      1.1299                 0.2224                 5.7416

                     43                     44                     45
                      A                      A                      A
 Frequencies --   1014.8426              1019.3087              1050.9138
 Red. masses --      5.3666                 2.5686                 3.1189
 Frc consts  --      3.2565                 1.5724                 2.0295
 IR Inten    --      0.7089                87.3105                38.0708

                     46                     47                     48
                      A                      A                      A
 Frequencies --   1064.9229              1079.2948              1093.3107
 Red. masses --      2.3449                 2.8018                 1.8296
 Frc consts  --      1.5668                 1.9229                 1.2885
 IR Inten    --      8.9469                16.4326                 2.4013

                     49                     50                     51
                      A                      A                      A
 Frequencies --   1099.1696              1120.7969              1126.2163
 Red. masses --      2.4625                 2.0266                 1.6864
 Frc consts  --      1.7529                 1.5000                 1.2603
 IR Inten    --      7.5959                 1.3512                13.8170

                     52                     53                     54
                      A                      A                      A
 Frequencies --   1154.7816              1164.4325              1195.1627
 Red. masses --      2.5407                 2.3521                 1.0986
 Frc consts  --      1.9962                 1.8790                 0.9246
 IR Inten    --     22.4956                11.3807                 0.5033

                     55                     56                     57
                      A                      A                      A
 Frequencies --   1202.0046              1226.2389              1239.1768
 Red. masses --      2.4906                 1.1838                 1.4510
 Frc consts  --      2.1201                 1.0488                 1.3128
 IR Inten    --    113.0405                 1.6723                 2.5171

                     58                     59                     60
                      A                      A                      A
 Frequencies --   1265.4163              1281.1501              1311.9630
 Red. masses --      1.6130                 1.2701                 1.2667
 Frc consts  --      1.5218                 1.2283                 1.2846
 IR Inten    --     59.8291                 1.3508                18.2483

                     61                     62                     63
                      A                      A                      A
 Frequencies --   1332.1011              1345.4424              1354.1433
 Red. masses --      1.5641                 1.4453                 2.2807
 Frc consts  --      1.6353                 1.5415                 2.4640
 IR Inten    --     19.0215                54.8972                12.2500

                     64                     65                     66
                      A                      A                      A
 Frequencies --   1366.4677              1377.0976              1385.0421
 Red. masses --      1.4079                 1.5451                 1.2676
 Frc consts  --      1.5489                 1.7264                 1.4327
 IR Inten    --     13.3417                 2.0183                17.3060

                     67                     68                     69
                      A                      A                      A
 Frequencies --   1390.3622              1403.9117              1411.4794
 Red. masses --      1.3573                 1.3458                 1.4766
 Frc consts  --      1.5459                 1.5628                 1.7332
 IR Inten    --     40.0153                 4.0315                31.9939

                     70                     71                     72
                      A                      A                      A
 Frequencies --   1424.0029              1439.2219              1445.7299
 Red. masses --      1.6201                 1.4809                 1.3754
 Frc consts  --      1.9357                 1.8073                 1.6937
 IR Inten    --    121.5301                27.3084                 6.6587

                     73                     74                     75
                      A                      A                      A
 Frequencies --   1496.2900              1505.1492              1512.2492
 Red. masses --      1.1393                 2.1593                 1.0733
 Frc consts  --      1.5029                 2.8822                 1.4462
 IR Inten    --      3.9722                 1.1117                 2.4113

                     76                     77                     78
                      A                      A                      A
 Frequencies --   1521.9217              1531.0173              1539.9599
 Red. masses --      1.0744                 1.0558                 1.0535
 Frc consts  --      1.4662                 1.4582                 1.4720
 IR Inten    --      2.9556                 3.7532                 3.7606

                     79                     80                     81
                      A                      A                      A
 Frequencies --   1546.0799              1552.1981              1639.2823
 Red. masses --      1.0856                 2.2424                 5.5381
 Frc consts  --      1.5289                 3.1832                 8.7683
 IR Inten    --     11.1950               114.0137                 8.5867

                     82                     83                     84
                      A                      A                      A
 Frequencies --   1666.7052              1735.2001              3044.2484
 Red. masses --      5.5841                 9.6600                 1.0647
 Frc consts  --      9.1394                17.1367                 5.8135
 IR Inten    --    101.9304               160.0146                28.8093

                     85                     86                     87
                      A                      A                      A
 Frequencies --   3050.1111              3055.2032              3063.0090
 Red. masses --      1.0424                 1.0599                 1.0666
 Frc consts  --      5.7137                 5.8291                 5.8957
 IR Inten    --     38.5057                 6.6839                 5.8858

                     88                     89                     90
                      A                      A                      A
 Frequencies --   3083.3475              3086.5580              3098.5326
 Red. masses --      1.0822                 1.0898                 1.0929
 Frc consts  --      6.0617                 6.1170                 6.1820
 IR Inten    --     13.0454                49.3543                14.5679

                     91                     92                     93
                      A                      A                      A
 Frequencies --   3110.2003              3133.9362              3138.2990
 Red. masses --      1.1010                 1.0953                 1.1019
 Frc consts  --      6.2753                 6.3380                 6.3941
 IR Inten    --     50.8634                17.7879                21.5605

                     94                     95                     96
                      A                      A                      A
 Frequencies --   3148.5735              3153.7129              3182.6408
 Red. masses --      1.0875                 1.0981                 1.0849
 Frc consts  --      6.3521                 6.4347                 6.4746
 IR Inten    --     18.8748                22.3202                 6.9606

                     97                     98                     99
                      A                      A                      A
 Frequencies --   3189.3612              3203.6871              3212.9646
 Red. masses --      1.0887                 1.0915                 1.0963
 Frc consts  --      6.5249                 6.6006                 6.6681
 IR Inten    --      9.6759                32.5918                25.8599

                    100                    101                    102
                      A                      A                      A
 Frequencies --   3228.7758              3442.8467              3717.8737
 Red. masses --      1.0914                 1.0719                 1.0682
 Frc consts  --      6.7036                 7.4855                 8.6998
 IR Inten    --     10.9503                 0.0854                37.1580

 - Thermochemistry -
 -------------------
 Temperature   298.150 Kelvin.  Pressure   1.00000 Atm.
 Atom     1 has atomic number  6 and mass  12.00000

 Molecular mass:   233.15281 amu.
 Principal axes and moments of inertia in atomic units:
                           1         2         3
     Eigenvalues --  2118.172675853.410806701.25068
           X            0.99978   0.01981   0.00691
           Y           -0.01967   0.99959  -0.02072
           Z           -0.00731   0.02058   0.99976
 This molecule is an asymmetric top.
 Rotational symmetry number  1.
 Warning -- assumption of classical behavior for rotation
           may cause significant error
 Rotational temperatures (Kelvin)      0.04089     0.01480     0.01293
 Rotational constants (GHZ):           0.85203     0.30832     0.26931
 Zero-point vibrational energy     819792.2 (Joules/Mol)
                                  195.93503 (Kcal/Mol)
 Warning -- explicit consideration of  25 degrees of freedom as
           vibrations may cause significant error
 Vibrational temperatures:     48.02    63.35    75.39   130.62   159.05
          (Kelvin)            173.33   203.29   264.15   303.42   342.10
                              385.70   430.62   473.84   499.18   515.38
                              550.85   596.39   610.77   640.44   657.41
                              739.45   755.65   801.16   850.81   889.76
                              914.72  1004.04  1021.45  1027.05  1104.68
                             1107.51  1129.55  1199.86  1264.51  1287.62
                             1297.29  1325.78  1352.01  1366.17  1374.94
                             1411.49  1425.87  1460.13  1466.56  1512.03
                             1532.19  1552.86  1573.03  1581.46  1612.58
                             1620.37  1661.47  1675.36  1719.57  1729.42
                             1764.28  1782.90  1820.65  1843.29  1887.62
                             1916.60  1935.79  1948.31  1966.04  1981.34
                             1992.77  2000.42  2019.92  2030.80  2048.82
                             2070.72  2080.08  2152.83  2165.57  2175.79
                             2189.71  2202.79  2215.66  2224.46  2233.27
                             2358.56  2398.02  2496.57  4379.99  4388.43
                             4395.76  4406.99  4436.25  4440.87  4458.10
                             4474.88  4509.04  4515.31  4530.10  4537.49
                             4579.11  4588.78  4609.39  4622.74  4645.49
                             4953.49  5349.19

 Zero-point correction=                           0.312242 (Hartree/Particle)
 Thermal correction to Energy=                    0.328171
 Thermal correction to Enthalpy=                  0.329116
 Thermal correction to Gibbs Free Energy=         0.268505
 Sum of electronic and zero-point Energies=           -745.986605
 Sum of electronic and thermal Energies=              -745.970676
 Sum of electronic and thermal Enthalpies=            -745.969732
 Sum of electronic and thermal Free Energies=         -746.030343

                     E (Thermal)             CV                S
                      KCal/Mol        Cal/Mol-Kelvin    Cal/Mol-Kelvin
 Total                  205.931             62.567            127.566
 Electronic               0.000              0.000              0.000
 Translational            0.889              2.981             42.241
 Rotational               0.889              2.981             32.785
 Vibrational            204.153             56.606             52.540
 Vibration     1          0.594              1.983              5.618
 Vibration     2          0.595              1.980              5.069
 Vibration     3          0.596              1.977              4.725
 Vibration     4          0.602              1.956              3.643
 Vibration     5          0.606              1.941              3.259
 Vibration     6          0.609              1.932              3.093
 Vibration     7          0.615              1.912              2.786
 Vibration     8          0.631              1.862              2.292
 Vibration     9          0.643              1.824              2.036
 Vibration    10          0.656              1.783              1.820
 Vibration    11          0.673              1.732              1.609
 Vibration    12          0.692              1.675              1.421
 Vibration    13          0.712              1.617              1.263
 Vibration    14          0.725              1.581              1.180
 Vibration    15          0.733              1.558              1.130
 Vibration    16          0.752              1.507              1.028
 Vibration    17          0.778              1.439              0.911
 Vibration    18          0.786              1.417              0.877
 Vibration    19          0.805              1.372              0.811
 Vibration    20          0.815              1.346              0.775
 Vibration    21          0.869              1.219              0.624
 Vibration    22          0.880              1.194              0.598
 Vibration    23          0.912              1.125              0.530
 Vibration    24          0.949              1.050              0.465
 Vibration    25          0.978              0.993              0.419

                           ! Non-Optimized Parameters !
 Normal termination of Gaussian 16 at Sun Dec 13 20:36:30 2020.

 ----------------------------------------------------------------------
 # B3LYP/6-311++G(d,p) empiricaldispersion=gd3bj scf=xqc pop=npa geom=c
 heck
 ----------------------------------------------------------------------

 --------------------------------------
 CID_13128564_JID_7541_Energie_neutraal
 --------------------------------------
 Structure from the checkpoint file:  "JID_7541.chk"
 Charge =  0 Multiplicity = 1

 SCF Done:  E(RB3LYP) =  -746.511420445     A.U. after   16 cycles
 Normal termination of Gaussian 16 at Sun Dec 13 20:44:08 2020.

 ----------------------------------------------------------------------
 # B3LYP/6-311++G(d,p) empiricaldispersion=gd3bj scf=xqc pop=npa geom=c
 heck
 ----------------------------------------------------------------------

 ------------------------------------
 CID_13128564_JID_7541_Energie_kation
 ------------------------------------
 Structure from the checkpoint file:  "JID_7541.chk"
 Charge =  1 Multiplicity = 2

 SCF Done:  E(UB3LYP) =  -746.234807785     A.U. after   25 cycles
 Normal termination of Gaussian 16 at Sun Dec 13 21:00:54 2020.
 Gaussian 16:  ES64L-G16RevA.03 25-Dec-2016

 ----------------------------------------------------------------------
 # B3LYP/6-311++G(d,p) empiricaldispersion=gd3bj scf=xqc pop=npa geom=c
 heck
 ----------------------------------------------------------------------

 -----------------------------------
 CID_13128564_JID_7541_Energie_anion
 -----------------------------------
 Structure from the checkpoint file:  "JID_7541.chk"
 Charge = -1 Multiplicity = 2

                         Standard orientation:
 ---------------------------------------------------------------------
 Center     Atomic      Atomic             Coordinates (Angstroms)
 Number     Number       Type             X           Y           Z
 ---------------------------------------------------------------------
      1          6           0       -4.146547   -1.236406   -0.134377
      2          6           0       -2.841771   -1.978130   -0.439278
      3          6           0       -1.752016   -1.087385   -1.077632
      4          6           0       -0.614577   -0.620760   -0.148402
      5          7           0        0.485869   -0.047133   -0.910810
      6          6           0        0.109788    1.217363   -1.544461
      7          6           0       -0.413548    2.246312   -0.529416
      8          6           0       -1.412575    1.646571    0.439174
      9          7           0       -2.419272    2.313824    0.844560
     10          7           0       -0.999413    0.374876    0.898724
     11          8           0       -1.944148   -0.201484    1.797966
     12          6           0        1.790206   -0.188031   -0.379417
     13          6           0        2.699916    0.879100   -0.298620
     14          6           0        3.994028    0.679163    0.183604
     15          6           0        4.413292   -0.578781    0.608933
     16          6           0        3.517739   -1.647343    0.526878
     17          6           0        2.232330   -1.460356    0.030950
     18          1           0       -3.976226   -0.402408    0.550359
     19          1           0       -4.882389   -1.906935    0.324061
     20          1           0       -4.588900   -0.835584   -1.054571
     21          1           0       -2.456929   -2.438699    0.477506
     22          1           0       -3.061349   -2.803105   -1.128352
     23          1           0       -1.247469   -1.633980   -1.882447
     24          1           0       -2.230505   -0.218982   -1.544941
     25          1           0       -0.247519   -1.481546    0.408584
     26          1           0       -0.666229    1.005398   -2.285835
     27          1           0        0.966964    1.603832   -2.098525
     28          1           0       -0.891803    3.095101   -1.024358
     29          1           0        0.422817    2.631023    0.066664
     30          1           0       -2.945813    1.750887    1.520118
     31          1           0       -1.467119   -0.189112    2.644366
     32          1           0        2.406002    1.877819   -0.597601
     33          1           0        4.672214    1.526655    0.236137
     34          1           0        5.418950   -0.727855    0.989731
     35          1           0        3.827488   -2.643127    0.832513
     36          1           0        1.573107   -2.316385   -0.072073
 ---------------------------------------------------------------------

 SCF Done:  E(UB3LYP) =  -746.500616242     A.U. after   33 cycles
 SCF Done:  E(UB3LYP) =  -746.500616242     a.u. after    1 cycles

 The electronic state is 2-A.
 Alpha  occ. eigenvalues --  -19.06802 -14.28162 -14.23824 -14.18414 -10.15204
 Alpha  occ. eigenvalues --  -10.14733 -10.12305 -10.11860 -10.08800 -10.08209
 Alpha  occ. eigenvalues --  -10.08134 -10.07934 -10.07833 -10.07694 -10.07488
 Alpha  occ. eigenvalues --  -10.07278 -10.06121  -0.99288  -0.87457  -0.81805
 Alpha  occ. eigenvalues --   -0.76338  -0.73850  -0.69970  -0.68425  -0.65468
 Alpha  occ. eigenvalues --   -0.64834  -0.61049  -0.57059  -0.54662  -0.51421
 Alpha  occ. eigenvalues --   -0.51076  -0.49547  -0.46232  -0.43298  -0.42725
 Alpha  occ. eigenvalues --   -0.41755  -0.40011  -0.39249  -0.38444  -0.35826
 Alpha  occ. eigenvalues --   -0.34840  -0.34324  -0.34022  -0.33770  -0.32683
 Alpha  occ. eigenvalues --   -0.32128  -0.31620  -0.30759  -0.28208  -0.27802
 Alpha  occ. eigenvalues --   -0.27312  -0.26868  -0.25187  -0.25126  -0.24666
 Alpha  occ. eigenvalues --   -0.24341  -0.22913  -0.22010  -0.19361  -0.17924
 Alpha  occ. eigenvalues --   -0.16243  -0.14656  -0.11682   0.04099
 Alpha virt. eigenvalues --    0.06059   0.06530   0.06770   0.07620   0.07785
 Alpha virt. eigenvalues --    0.08171   0.08456   0.08943   0.09571   0.09894
 Alpha virt. eigenvalues --    0.10394   0.10696   0.10865   0.11815   0.12154

  Beta  occ. eigenvalues --  -19.06734 -14.28153 -14.23819 -14.18401 -10.15192
  Beta  occ. eigenvalues --  -10.14726 -10.12305 -10.11850 -10.08792 -10.08196
  Beta  occ. eigenvalues --  -10.08122 -10.07924 -10.07821 -10.07678 -10.07478
  Beta  occ. eigenvalues --  -10.07258 -10.06108  -0.99173  -0.87427  -0.81762
  Beta  occ. eigenvalues --   -0.76310  -0.73804  -0.69944  -0.68400  -0.65437
  Beta  occ. eigenvalues --   -0.64807  -0.61021  -0.57022  -0.54630  -0.51384
  Beta  occ. eigenvalues --   -0.51034  -0.49498  -0.46174  -0.43231  -0.42693
  Beta  occ. eigenvalues --   -0.41728  -0.39957  -0.39226  -0.38410  -0.35794
  Beta  occ. eigenvalues --   -0.34810  -0.34295  -0.33992  -0.33742  -0.32652
  Beta  occ. eigenvalues --   -0.32101  -0.31587  -0.30738  -0.28183  -0.27771
  Beta  occ. eigenvalues --   -0.27289  -0.26839  -0.25161  -0.25098  -0.24626
  Beta  occ. eigenvalues --   -0.24310  -0.22868  -0.21962  -0.19341  -0.17907
  Beta  occ. eigenvalues --   -0.16224  -0.14617  -0.11666
  Beta virt. eigenvalues --    0.06168   0.06728   0.07148   0.07626   0.07853
  Beta virt. eigenvalues --    0.08107   0.08359   0.08647   0.09348   0.09809
  Beta virt. eigenvalues --    0.10159   0.10370   0.11095   0.11114   0.12004

 Mulliken charges and spin densities:
               1          2
     1  C   -0.413951  -0.192951
     2  C    0.420821  -0.671385
     3  C    0.403378  -0.174815
     4  C   -1.878412   0.505552
     5  N    0.568806  -0.057532
     6  C    0.043968  -0.098018
     7  C    0.559557  -1.053412
     8  C    0.002132  -0.094759
     9  N   -0.348378   0.138725
    10  N    0.045855  -0.047175
    11  O   -0.184084   0.036482
    12  C    0.744628  -0.549096
    13  C   -0.159785   0.103345
    14  C   -0.357162   0.069333
    15  C    1.148888  -1.553798
    16  C    0.005900  -0.232624
    17  C   -0.496120   0.541636
    18  H    0.153533  -0.027582
    19  H   -0.055026   0.174592
    20  H    0.045447   0.076793
    21  H   -0.081848   0.236370
    22  H   -0.101333   0.241460
    23  H   -0.133349   0.353288
    24  H    0.281831  -0.172909
    25  H    0.074002   0.108594
    26  H   -0.000096   0.184778
    27  H   -0.185893   0.369947
    28  H    0.100496   0.094591
    29  H   -0.034510   0.211810
    30  H    0.063023   0.155515
    31  H   -0.233374   0.554102
    32  H    0.173283  -0.046364
    33  H   -0.473054   0.653227
    34  H   -0.012460   0.145714
    35  H   -0.500793   0.681008
    36  H   -0.185919   0.335558
 Sum of Mulliken charges =  -1.00000   1.00000

 Dipole moment (field-independent basis, Debye):
    X=             -1.2875    Y=              1.0874    Z=             -3.7534  Tot=              4.1144
 Quadrupole moment (field-independent basis, Debye-Ang):
   XX=           -177.2192   YY=           -153.0539   ZZ=           -141.4217
   XY=              3.2922   XZ=              3.8603   YZ=             -0.9936

 Summary of Natural Population Analysis:

                                       Natural Population
                Natural  -----------------------------------------------
    Atom  No    Charge         Core      Valence    Rydberg      Total
 -----------------------------------------------------------------------
      C    1   -0.28336      0.99966     2.27943    0.00427     3.28336
      C    2   -0.19128      0.99964     2.18350    0.00814     3.19128
      C    3   -0.20291      0.99959     2.19377    0.00955     3.20291
      C    4    0.09632      0.99954     1.88720    0.01694     2.90368
      N    5   -0.26319      0.99965     2.75083    0.01271     3.76319
      C    6   -0.08562      0.99961     2.07519    0.01082     3.08562
      C    7   -0.22395      0.99956     2.21575    0.00864     3.22395
      C    8    0.22302      0.99961     1.75781    0.01956     2.77698
      N    9   -0.34710      0.99971     2.83996    0.00743     3.84710
      N   10   -0.13000      0.99960     2.61359    0.01681     3.63000
      O   11   -0.29118      0.99990     3.28244    0.00884     4.29118
      C   12    0.09550      0.99946     1.89239    0.01265     2.90450
      C   13   -0.12722      0.99952     2.11796    0.00975     3.12722
      C   14   -0.09102      0.99956     2.08176    0.00970     3.09102
      C   15   -0.11768      0.99955     2.10810    0.01003     3.11768
      C   16   -0.09287      0.99956     2.08276    0.01055     3.09287
      C   17   -0.11426      0.99952     2.10495    0.00980     3.11426
      H   18    0.10558      0.00000     0.39278    0.00164     0.39442
      H   19    0.09555      0.00000     0.40355    0.00090     0.40445
      H   20    0.09023      0.00000     0.40873    0.00105     0.40977
      H   21    0.10203      0.00000     0.39642    0.00155     0.39797
      H   22    0.09347      0.00000     0.40545    0.00108     0.40653
      H   23    0.10722      0.00000     0.39138    0.00140     0.39278
      H   24    0.09767      0.00000     0.40107    0.00127     0.40233
      H   25    0.10769      0.00000     0.38963    0.00268     0.39231
      H   26    0.09771      0.00000     0.40116    0.00113     0.40229
      H   27    0.10504      0.00000     0.39385    0.00111     0.39496
      H   28    0.11119      0.00000     0.38766    0.00115     0.38881
      H   29    0.11085      0.00000     0.38754    0.00161     0.38915
      H   30    0.17205      0.00000     0.32560    0.00234     0.32795
      H   31    0.24394      0.00000     0.24334    0.01272     0.25606
      H   32    0.10142      0.00000     0.39678    0.00179     0.39858
      H   33    0.10030      0.00000     0.39851    0.00118     0.39970
      H   34    0.10035      0.00000     0.39870    0.00095     0.39965
      H   35    0.10152      0.00000     0.39729    0.00119     0.39848
      H   36    0.10299      0.00000     0.39511    0.00190     0.39701
 =======================================================================
   * Total *   -0.00000     16.99326    45.78192    0.22482    63.00000

 Normal termination of Gaussian 16 at Sun Dec 13 21:22:17 2020.
