 Gaussian 16, Revision A.03,

 -----------------------------------------------------------
 # opt freq B3LYP/6-31G(d) empiricaldispersion=gd3bj scf=xqc
 -----------------------------------------------------------

 -------------------------------
 CID_142376567_JID_1120_neutraal
 -------------------------------
 Symbolic Z-matrix:
 Charge =  0 Multiplicity = 1

 SCF Done:  E(RB3LYP) =  -875.510689380     A.U. after   15 cycles
 SCF Done:  E(RB3LYP) =  -875.516410214     A.U. after   13 cycles
 SCF Done:  E(RB3LYP) =  -875.516774893     A.U. after   13 cycles
 SCF Done:  E(RB3LYP) =  -875.516959396     A.U. after   14 cycles
 SCF Done:  E(RB3LYP) =  -875.517877708     A.U. after   13 cycles
 SCF Done:  E(RB3LYP) =  -875.518441717     A.U. after   12 cycles
 SCF Done:  E(RB3LYP) =  -875.518527035     A.U. after   11 cycles
 SCF Done:  E(RB3LYP) =  -875.518539657     A.U. after    9 cycles
 SCF Done:  E(RB3LYP) =  -875.518547575     A.U. after   10 cycles
 SCF Done:  E(RB3LYP) =  -875.518549285     A.U. after    9 cycles
 SCF Done:  E(RB3LYP) =  -875.518549421     A.U. after    8 cycles
 Optimization completed.
    -- Stationary point found.
 Normal termination of Gaussian 16 at Tue Dec  8 19:13:11 2020.

 --------------------------------------------------------------------
 #N Geom=AllCheck Guess=TCheck SCRF=Check GenChk RB3LYP/6-31G(d) Freq
 --------------------------------------------------------------------

 Structure from the checkpoint file:  "JID_1120.chk"
 -------------------------------
 CID_142376567_JID_1120_neutraal
 -------------------------------
 Charge =  0 Multiplicity = 1

 SCF Done:  E(RB3LYP) =  -875.518549421     A.U. after    1 cycles

  Exact polarizability: 141.572   2.857 102.564   4.037   2.795  61.759
 Approx polarizability: 198.113   6.338 174.678  15.294   7.434 107.561

                      1                      2                      3
                      A                      A                      A
 Frequencies --     61.2390                91.6804               108.3660
 Red. masses --      5.1208                 4.2539                 3.0208
 Frc consts  --      0.0113                 0.0211                 0.0209
 IR Inten    --      1.8907                 4.0225                 4.2755

                      4                      5                      6
                      A                      A                      A
 Frequencies --    156.4227               182.2650               201.9325
 Red. masses --      3.9978                 1.4452                 3.3697
 Frc consts  --      0.0576                 0.0283                 0.0810
 IR Inten    --      4.3521                 1.2512                 1.4658

                      7                      8                      9
                      A                      A                      A
 Frequencies --    261.6354               288.5127               314.7571
 Red. masses --      4.3936                 4.8019                 1.7058
 Frc consts  --      0.1772                 0.2355                 0.0996
 IR Inten    --      0.8099                 2.7780                70.1855

                     10                     11                     12
                      A                      A                      A
 Frequencies --    337.2391               405.2294               433.4289
 Red. masses --      1.9376                 4.9796                 4.7767
 Frc consts  --      0.1298                 0.4818                 0.5287
 IR Inten    --     37.5166                27.8799                 5.6387

                     13                     14                     15
                      A                      A                      A
 Frequencies --    471.9072               541.9802               559.0074
 Red. masses --      3.5934                 5.9492                 4.3554
 Frc consts  --      0.4715                 1.0296                 0.8019
 IR Inten    --      1.5483                33.5841                13.2632

                     16                     17                     18
                      A                      A                      A
 Frequencies --    566.2118               643.5170               685.8371
 Red. masses --      7.1494                 3.9312                 6.5314
 Frc consts  --      1.3505                 0.9592                 1.8101
 IR Inten    --      6.4698               101.1222                 3.7522

                     19                     20                     21
                      A                      A                      A
 Frequencies --    736.0357               763.6985               850.6744
 Red. masses --      3.7442                 1.3204                 6.0193
 Frc consts  --      1.1951                 0.4537                 2.5664
 IR Inten    --      2.4747                55.7091                36.3745

                     22                     23                     24
                      A                      A                      A
 Frequencies --    853.5827               878.8177               943.0165
 Red. masses --      1.4258                 1.3446                 1.3400
 Frc consts  --      0.6121                 0.6119                 0.7021
 IR Inten    --      1.5140                49.6272                 0.7489

                     25                     26                     27
                      A                      A                      A
 Frequencies --    978.0457              1064.5911              1071.6941
 Red. masses --      1.2619                 4.0695                 4.1188
 Frc consts  --      0.7112                 2.7174                 2.7872
 IR Inten    --      0.0785                 7.5000                43.6657

                     28                     29                     30
                      A                      A                      A
 Frequencies --   1088.4728              1110.7834              1144.9926
 Red. masses --      2.5376                10.3597                 1.7346
 Frc consts  --      1.7714                 7.5310                 1.3399
 IR Inten    --     12.5240               147.6191                32.6905

                     31                     32                     33
                      A                      A                      A
 Frequencies --   1156.2158              1166.8169              1195.8463
 Red. masses --      1.3290                 1.5347                 1.0965
 Frc consts  --      1.0468                 1.2310                 0.9239
 IR Inten    --      2.3171                25.6640                 2.3028

                     34                     35                     36
                      A                      A                      A
 Frequencies --   1208.4936              1301.7667              1336.2423
 Red. masses --      1.2598                 2.9561                 1.8546
 Frc consts  --      1.0840                 2.9515                 1.9511
 IR Inten    --     55.2602                19.7909                66.2923

                     37                     38                     39
                      A                      A                      A
 Frequencies --   1378.4792              1448.6607              1471.8016
 Red. masses --      2.9958                 1.2279                 1.1586
 Frc consts  --      3.3540                 1.5183                 1.4787
 IR Inten    --     49.2450                33.0979                 9.1572

                     40                     41                     42
                      A                      A                      A
 Frequencies --   1497.2263              1518.8018              1541.9298
 Red. masses --      2.3375                 1.0486                 1.6545
 Frc consts  --      3.0872                 1.4251                 2.3177
 IR Inten    --     48.0221                12.1042                18.4335

                     43                     44                     45
                      A                      A                      A
 Frequencies --   1545.6781              1651.6407              1655.5002
 Red. masses --      1.2893                 5.9078                 5.8914
 Frc consts  --      1.8149                 9.4952                 9.5132
 IR Inten    --      1.7261                15.4964                32.6168

                     46                     47                     48
                      A                      A                      A
 Frequencies --   3033.6795              3106.5483              3135.5825
 Red. masses --      1.0401                 1.0960                 1.1042
 Frc consts  --      5.6396                 6.2316                 6.3967
 IR Inten    --     65.6647                25.3172                19.0289

                     49                     50                     51
                      A                      A                      A
 Frequencies --   3168.9336              3192.0043              3202.5061
 Red. masses --      1.0889                 1.0878                 1.0911
 Frc consts  --      6.4428                 6.5302                 6.5933
 IR Inten    --     14.2877                 0.1492                12.0310

                     52                     53                     54
                      A                      A                      A
 Frequencies --   3219.3516              3485.0125              3755.7381
 Red. masses --      1.0968                 1.0743                 1.0661
 Frc consts  --      6.6975                 7.6872                 8.8599
 IR Inten    --     20.2308                26.3636                54.3610

 - Thermochemistry -
 -------------------
 Temperature   298.150 Kelvin.  Pressure   1.00000 Atm.
 Atom     1 has atomic number  6 and mass  12.00000

 Molecular mass:   171.03540 amu.
 Principal axes and moments of inertia in atomic units:
                           1         2         3
     Eigenvalues --   948.665832725.608153066.26307
           X            0.99984   0.00855  -0.01565
           Y           -0.00834   0.99988   0.01342
           Z            0.01577  -0.01329   0.99979
 This molecule is an asymmetric top.
 Rotational symmetry number  1.
 Warning -- assumption of classical behavior for rotation
           may cause significant error
 Rotational temperatures (Kelvin)      0.09130     0.03178     0.02825
 Rotational constants (GHZ):           1.90240     0.66214     0.58858
 Zero-point vibrational energy     407747.3 (Joules/Mol)
                                   97.45395 (Kcal/Mol)
 Warning -- explicit consideration of  16 degrees of freedom as
           vibrations may cause significant error
 Vibrational temperatures:     88.11   131.91   155.91   225.06   262.24
          (Kelvin)            290.54   376.43   415.11   452.87   485.21
                              583.03   623.61   678.97   779.79   804.29
                              814.65   925.88   986.77  1058.99  1098.79
                             1223.93  1228.12  1264.42  1356.79  1407.19
                             1531.71  1541.93  1566.07  1598.17  1647.39
                             1663.54  1678.79  1720.56  1738.75  1872.95
                             1922.55  1983.32  2084.30  2117.59  2154.17
                             2185.22  2218.49  2223.89  2376.34  2381.90
                             4364.79  4469.63  4511.40  4559.39  4592.58
                             4607.69  4631.93  5014.16  5403.67

 Zero-point correction=                           0.155303 (Hartree/Particle)
 Thermal correction to Energy=                    0.166246
 Thermal correction to Enthalpy=                  0.167190
 Thermal correction to Gibbs Free Energy=         0.118486
 Sum of electronic and zero-point Energies=           -875.363247
 Sum of electronic and thermal Energies=              -875.352303
 Sum of electronic and thermal Enthalpies=            -875.351359
 Sum of electronic and thermal Free Energies=         -875.400064

                     E (Thermal)             CV                S
                      KCal/Mol        Cal/Mol-Kelvin    Cal/Mol-Kelvin
 Total                  104.321             40.665            102.507
 Electronic               0.000              0.000              0.000
 Translational            0.889              2.981             41.318
 Rotational               0.889              2.981             30.451
 Vibrational            102.543             34.704             30.738
 Vibration     1          0.597              1.973              4.417
 Vibration     2          0.602              1.955              3.624
 Vibration     3          0.606              1.943              3.298
 Vibration     4          0.620              1.895              2.593
 Vibration     5          0.630              1.864              2.305
 Vibration     6          0.639              1.837              2.115
 Vibration     7          0.669              1.743              1.651
 Vibration     8          0.685              1.695              1.483
 Vibration     9          0.702              1.645              1.337
 Vibration    10          0.718              1.601              1.225
 Vibration    11          0.770              1.459              0.944
 Vibration    12          0.794              1.397              0.848
 Vibration    13          0.829              1.312              0.732
 Vibration    14          0.897              1.157              0.561
 Vibration    15          0.915              1.120              0.526
 Vibration    16          0.922              1.104              0.512

 Optimization completed.
    -- Stationary point found.
 Normal termination of Gaussian 16 at Tue Dec  8 19:17:00 2020.

 ----------------------------------------------------------------------
 # B3LYP/6-311++G(d,p) empiricaldispersion=gd3bj scf=xqc pop=npa geom=c
 heck
 ----------------------------------------------------------------------

 ---------------------------------------
 CID_142376567_JID_1120_Energie_neutraal
 ---------------------------------------
 Structure from the checkpoint file:  "JID_1120.chk"
 Charge =  0 Multiplicity = 1

 SCF Done:  E(RB3LYP) =  -875.692194287     A.U. after   16 cycles
 Normal termination of Gaussian 16 at Tue Dec  8 19:18:49 2020.

 ----------------------------------------------------------------------
 # B3LYP/6-311++G(d,p) empiricaldispersion=gd3bj scf=xqc pop=npa geom=c
 heck
 ----------------------------------------------------------------------

 -------------------------------------
 CID_142376567_JID_1120_Energie_kation
 -------------------------------------
 Structure from the checkpoint file:  "JID_1120.chk"
 Charge =  1 Multiplicity = 2

 SCF Done:  E(UB3LYP) =  -875.381940518     A.U. after   31 cycles
 Normal termination of Gaussian 16 at Tue Dec  8 19:23:48 2020.
 Gaussian 16:  ES64L-G16RevA.03 25-Dec-2016

 ----------------------------------------------------------------------
 # B3LYP/6-311++G(d,p) empiricaldispersion=gd3bj scf=xqc pop=npa geom=c
 heck
 ----------------------------------------------------------------------

 ------------------------------------
 CID_142376567_JID_1120_Energie_anion
 ------------------------------------
 Structure from the checkpoint file:  "JID_1120.chk"
 Charge = -1 Multiplicity = 2

                         Standard orientation:
 ---------------------------------------------------------------------
 Center     Atomic      Atomic             Coordinates (Angstroms)
 Number     Number       Type             X           Y           Z
 ---------------------------------------------------------------------
      1          6           0        3.354331    0.160094   -1.014324
      2          7           0        1.893044    0.252791   -0.901211
      3         16           0        1.272090   -0.770981    0.341633
      4          8           0        1.627656   -0.283604    1.718495
      5          6           0       -0.470583   -0.371153    0.022707
      6          6           0       -1.324239   -1.450525   -0.196519
      7          6           0       -2.697279   -1.258128   -0.354872
      8          6           0       -3.216486    0.032843   -0.278750
      9          6           0       -2.374012    1.122122   -0.053917
     10          6           0       -1.001174    0.925543    0.102190
     11          8           0       -0.135392    1.964029    0.303840
     12          1           0        3.630019   -0.882182   -1.204319
     13          1           0        3.890041    0.506790   -0.120258
     14          1           0        3.671220    0.756599   -1.874868
     15          1           0        1.597751    1.212352   -0.714033
     16          1           0       -0.901281   -2.450421   -0.242677
     17          1           0       -3.351812   -2.106034   -0.528526
     18          1           0       -4.282889    0.201753   -0.395508
     19          1           0       -2.781379    2.130131   -0.002696
     20          1           0       -0.637878    2.789004    0.387457
 ---------------------------------------------------------------------

 SCF Done:  E(UB3LYP) =  -875.683225880     A.U. after   33 cycles
 SCF Done:  E(UB3LYP) =  -875.683225880     a.u. after    1 cycles

 The electronic state is 2-A.
 Alpha  occ. eigenvalues --  -88.85904 -19.05050 -18.97801 -14.22356 -10.14129
 Alpha  occ. eigenvalues --  -10.10275 -10.08859 -10.08094 -10.07310 -10.07106
 Alpha  occ. eigenvalues --  -10.06813  -7.93277  -5.89593  -5.89451  -5.88855
 Alpha  occ. eigenvalues --   -0.96313  -0.91859  -0.80510  -0.75682  -0.66902
 Alpha  occ. eigenvalues --   -0.64276  -0.60353  -0.54421  -0.52843  -0.49078
 Alpha  occ. eigenvalues --   -0.44835  -0.41260  -0.38794  -0.37058  -0.35686
 Alpha  occ. eigenvalues --   -0.34354  -0.33572  -0.31971  -0.31234  -0.30155
 Alpha  occ. eigenvalues --   -0.29162  -0.27581  -0.26301  -0.25401  -0.24122
 Alpha  occ. eigenvalues --   -0.19281  -0.17063  -0.15007  -0.13353  -0.12905
 Alpha  occ. eigenvalues --    0.04599
 Alpha virt. eigenvalues --    0.06682   0.06968   0.07313   0.08846   0.08989
 Alpha virt. eigenvalues --    0.09557   0.10601   0.11201   0.11730   0.12529
 Alpha virt. eigenvalues --    0.13562   0.14892   0.15489   0.15654   0.16004

  Beta  occ. eigenvalues --  -88.85902 -19.04984 -18.97786 -14.22346 -10.14133
  Beta  occ. eigenvalues --  -10.10252 -10.08786 -10.08041 -10.07213 -10.07117
  Beta  occ. eigenvalues --  -10.06747  -7.93275  -5.89588  -5.89451  -5.88851
  Beta  occ. eigenvalues --   -0.96192  -0.91820  -0.80477  -0.75556  -0.66739
  Beta  occ. eigenvalues --   -0.64164  -0.60276  -0.54345  -0.52697  -0.48972
  Beta  occ. eigenvalues --   -0.44706  -0.41180  -0.38726  -0.36970  -0.35632
  Beta  occ. eigenvalues --   -0.34311  -0.33476  -0.31874  -0.31169  -0.30084
  Beta  occ. eigenvalues --   -0.29092  -0.27536  -0.26231  -0.25317  -0.23891
  Beta  occ. eigenvalues --   -0.19244  -0.16799  -0.14770  -0.13302  -0.12715
  Beta virt. eigenvalues --    0.06928   0.07276   0.07819   0.08584   0.09067
  Beta virt. eigenvalues --    0.09589   0.09940   0.10894   0.11315   0.11985
  Beta virt. eigenvalues --    0.13301   0.13604   0.15094   0.15458   0.15611

 Mulliken charges and spin densities:
               1          2
     1  C    0.204470  -0.579841
     2  N   -0.378587   0.017249
     3  S    0.924303  -0.639858
     4  O   -0.269693  -0.050432
     5  C    0.506842  -0.781749
     6  C   -1.617655   1.230359
     7  C   -0.693439   0.346402
     8  C    1.501004  -1.511004
     9  C   -0.594108   0.498878
    10  C    1.751133  -1.318665
    11  O   -0.295578   0.059089
    12  H    0.008298   0.133629
    13  H   -0.012525   0.167081
    14  H   -0.191114   0.334592
    15  H    0.224619   0.111708
    16  H    0.070159   0.073569
    17  H   -0.148210   0.292669
    18  H   -0.169497   0.324207
    19  H   -1.428955   1.595570
    20  H   -0.391467   0.696549
 Sum of Mulliken charges =  -1.00000   1.00000

 Dipole moment (field-independent basis, Debye):
    X=              3.0141    Y=             -6.7578    Z=             -1.3989  Tot=              7.5306
 Quadrupole moment (field-independent basis, Debye-Ang):
   XX=           -123.4239   YY=           -114.2980   ZZ=           -101.8752
   XY=             10.9274   XZ=             -2.4781   YZ=              0.5867

 Summary of Natural Population Analysis:

                                       Natural Population
                Natural  -----------------------------------------------
    Atom  No    Charge         Core      Valence    Rydberg      Total
 -----------------------------------------------------------------------
      C    1   -0.18810      0.99967     2.17859    0.00984     3.18810
      N    2   -0.42129      0.99978     2.90904    0.01247     3.92129
      S    3    0.66563      4.99939     2.26974    0.06525     7.33437
      O    4   -0.47094      0.99993     3.46503    0.00599     4.47094
      C    5   -0.13235      0.99932     2.11670    0.01632     3.13235
      C    6   -0.08595      0.99952     2.07532    0.01111     3.08595
      C    7   -0.12400      0.99956     2.11406    0.01038     3.12400
      C    8   -0.06954      0.99957     2.05956    0.01042     3.06954
      C    9   -0.12577      0.99952     2.11534    0.01092     3.12577
      C   10    0.16351      0.99932     1.82240    0.01477     2.83649
      O   11   -0.34366      0.99987     3.33539    0.00840     4.34366
      H   12    0.09224      0.00000     0.40626    0.00150     0.40776
      H   13    0.09091      0.00000     0.40777    0.00131     0.40909
      H   14    0.09867      0.00000     0.40027    0.00106     0.40133
      H   15    0.19466      0.00000     0.30172    0.00362     0.30534
      H   16    0.10010      0.00000     0.39848    0.00143     0.39990
      H   17    0.09943      0.00000     0.39973    0.00084     0.40057
      H   18    0.10066      0.00000     0.39818    0.00117     0.39934
      H   19    0.10871      0.00000     0.38501    0.00628     0.39129
      H   20    0.24710      0.00000     0.23442    0.01849     0.25290
 =======================================================================
   * Total *    0.00000     14.99543    29.79299    0.21158    45.00000

 Normal termination of Gaussian 16 at Tue Dec  8 19:29:12 2020.
