 Gaussian 16, Revision A.03,

 -----------------------------------------------------------
 # opt freq B3LYP/6-31G(d) empiricaldispersion=gd3bj scf=xqc
 -----------------------------------------------------------

 -----------------------------
 CID_69637768_JID_132_neutraal
 -----------------------------
 Symbolic Z-matrix:
 Charge =  0 Multiplicity = 1

 SCF Done:  E(RB3LYP) =  -569.071910153     A.U. after   15 cycles
 SCF Done:  E(RB3LYP) =  -569.079741320     A.U. after   13 cycles
 SCF Done:  E(RB3LYP) =  -569.080072235     A.U. after   13 cycles
 SCF Done:  E(RB3LYP) =  -569.080140441     A.U. after   13 cycles
 SCF Done:  E(RB3LYP) =  -569.080746076     A.U. after   12 cycles
 SCF Done:  E(RB3LYP) =  -569.080849935     A.U. after   12 cycles
 SCF Done:  E(RB3LYP) =  -569.080860217     A.U. after   12 cycles
 SCF Done:  E(RB3LYP) =  -569.080916492     A.U. after   11 cycles
 SCF Done:  E(RB3LYP) =  -569.080925117     A.U. after   10 cycles
 SCF Done:  E(RB3LYP) =  -569.080935686     A.U. after   10 cycles
 SCF Done:  E(RB3LYP) =  -569.080940148     A.U. after   10 cycles
 SCF Done:  E(RB3LYP) =  -569.080945273     A.U. after   11 cycles
 SCF Done:  E(RB3LYP) =  -569.080947884     A.U. after   10 cycles
 SCF Done:  E(RB3LYP) =  -569.080948061     A.U. after    8 cycles
 Optimization completed.
    -- Stationary point found.
 Normal termination of Gaussian 16 at Tue Dec  8 10:17:20 2020.

 --------------------------------------------------------------------
 #N Geom=AllCheck Guess=TCheck SCRF=Check GenChk RB3LYP/6-31G(d) Freq
 --------------------------------------------------------------------

 Structure from the checkpoint file:  "JID_132.chk"
 -----------------------------
 CID_69637768_JID_132_neutraal
 -----------------------------
 Charge =  0 Multiplicity = 1

 SCF Done:  E(RB3LYP) =  -569.080948061     A.U. after    1 cycles

  Exact polarizability:  74.916   2.770  55.822  -6.392  -1.261  48.050
 Approx polarizability: 113.793  13.084  86.218 -15.169  -1.846  73.738

                      1                      2                      3
                      A                      A                      A
 Frequencies --     48.7278                62.0766                83.8587
 Red. masses --     12.4499                 4.0871                 6.0865
 Frc consts  --      0.0174                 0.0093                 0.0252
 IR Inten    --      1.3110                 6.5364                 9.6555

                      4                      5                      6
                      A                      A                      A
 Frequencies --    144.8919               281.4726               359.2193
 Red. masses --      6.6846                 9.2673                12.0745
 Frc consts  --      0.0827                 0.4326                 0.9180
 IR Inten    --      0.0499                 1.3961                 3.6126

                      7                      8                      9
                      A                      A                      A
 Frequencies --    420.6481               459.9445               519.3560
 Red. masses --      5.9562                 2.8369                 3.6341
 Frc consts  --      0.6210                 0.3536                 0.5775
 IR Inten    --      9.4442                 7.7279                20.9813

                     10                     11                     12
                      A                      A                      A
 Frequencies --    545.9880               595.0144               601.8457
 Red. masses --      3.4732                10.2725                 1.8743
 Frc consts  --      0.6100                 2.1428                 0.4000
 IR Inten    --      3.8878                 3.2361                85.6541

                     13                     14                     15
                      A                      A                      A
 Frequencies --    642.0530               698.4020               768.1719
 Red. masses --      2.3832                 4.8075                 5.8766
 Frc consts  --      0.5788                 1.3816                 2.0431
 IR Inten    --     64.3116                15.8107                32.3966

                     16                     17                     18
                      A                      A                      A
 Frequencies --    826.9158               862.0364               902.6404
 Red. masses --      3.2301                 4.3324                 3.7505
 Frc consts  --      1.3013                 1.8968                 1.8004
 IR Inten    --      4.8742                17.0337                14.4666

                     19                     20                     21
                      A                      A                      A
 Frequencies --    978.0336              1098.3998              1113.6381
 Red. masses --      3.4983                 5.3638                 4.1003
 Frc consts  --      1.9716                 3.8128                 2.9961
 IR Inten    --      2.0896                58.5568                61.9587

                     22                     23                     24
                      A                      A                      A
 Frequencies --   1144.8678              1188.6569              1221.0497
 Red. masses --      1.5721                 2.0761                 3.9438
 Frc consts  --      1.2141                 1.7283                 3.4644
 IR Inten    --     62.2061               125.5320               316.9885

                     25                     26                     27
                      A                      A                      A
 Frequencies --   1263.4621              1273.0625              1346.9876
 Red. masses --      1.6603                 1.5554                 1.4107
 Frc consts  --      1.5616                 1.4852                 1.5081
 IR Inten    --      8.0756                15.8280                28.9282

                     28                     29                     30
                      A                      A                      A
 Frequencies --   1377.8895              1436.7238              1858.5564
 Red. masses --      2.4985                 1.0820                11.6309
 Frc consts  --      2.7949                 1.3159                23.6709
 IR Inten    --     45.7316                22.4806               173.1092

                     31                     32                     33
                      A                      A                      A
 Frequencies --   1882.7858              1920.3868              3085.7230
 Red. masses --     11.4368                13.0175                 1.0646
 Frc consts  --     23.8867                28.2850                 5.9722
 IR Inten    --    581.0038               143.0441                 4.1867

                     34                     35                     36
                      A                      A                      A
 Frequencies --   3140.1489              3143.9064              3690.5093
 Red. masses --      1.0982                 1.0875                 1.0643
 Frc consts  --      6.3803                 6.3334                 8.5407
 IR Inten    --      0.6549                 2.7951                78.2173

 - Thermochemistry -
 -------------------
 Temperature   298.150 Kelvin.  Pressure   1.00000 Atm.
 Atom     1 has atomic number  6 and mass  12.00000

 Molecular mass:   144.00587 amu.
 Principal axes and moments of inertia in atomic units:
                           1         2         3
     Eigenvalues --   850.927251551.142382009.02293
           X            0.99932  -0.03682  -0.00336
           Y            0.03680   0.99930  -0.00698
           Z            0.00361   0.00685   0.99997
 This molecule is an asymmetric top.
 Rotational symmetry number  1.
 Warning -- assumption of classical behavior for rotation
           may cause significant error
 Rotational temperatures (Kelvin)      0.10179     0.05584     0.04311
 Rotational constants (GHZ):           2.12091     1.16349     0.89832
 Zero-point vibrational energy     245163.0 (Joules/Mol)
                                   58.59536 (Kcal/Mol)
 Warning -- explicit consideration of  12 degrees of freedom as
           vibrations may cause significant error
 Vibrational temperatures:     70.11    89.31   120.65   208.47   404.98
          (Kelvin)            516.84   605.22   661.76   747.24   785.55
                              856.09   865.92   923.77  1004.84  1105.23
                             1189.75  1240.28  1298.70  1407.17  1580.35
                             1602.28  1647.21  1710.21  1756.82  1817.84
                             1831.65  1938.01  1982.48  2067.13  2674.05
                             2708.91  2763.01  4439.67  4517.97  4523.38
                             5309.82

 Zero-point correction=                           0.093378 (Hartree/Particle)
 Thermal correction to Energy=                    0.102061
 Thermal correction to Enthalpy=                  0.103005
 Thermal correction to Gibbs Free Energy=         0.058232
 Sum of electronic and zero-point Energies=           -568.987570
 Sum of electronic and thermal Energies=              -568.978887
 Sum of electronic and thermal Enthalpies=            -568.977943
 Sum of electronic and thermal Free Energies=         -569.022716

                     E (Thermal)             CV                S
                      KCal/Mol        Cal/Mol-Kelvin    Cal/Mol-Kelvin
 Total                   64.044             30.691             94.234
 Electronic               0.000              0.000              0.000
 Translational            0.889              2.981             40.805
 Rotational               0.889              2.981             29.363
 Vibrational             62.267             24.730             24.066
 Vibration     1          0.595              1.978              4.868
 Vibration     2          0.597              1.972              4.390
 Vibration     3          0.601              1.960              3.798
 Vibration     4          0.616              1.908              2.738
 Vibration     5          0.681              1.708              1.525
 Vibration     6          0.734              1.556              1.125
 Vibration     7          0.783              1.425              0.890
 Vibration     8          0.818              1.339              0.766
 Vibration     9          0.874              1.207              0.611
 Vibration    10          0.901              1.148              0.553
 Vibration    11          0.953              1.042              0.458
 Vibration    12          0.960              1.028              0.446

 Optimization completed.
    -- Stationary point found.
 Normal termination of Gaussian 16 at Tue Dec  8 10:19:19 2020.

 ----------------------------------------------------------------------
 # B3LYP/6-311++G(d,p) empiricaldispersion=gd3bj scf=xqc pop=npa geom=c
 heck
 ----------------------------------------------------------------------

 -------------------------------------
 CID_69637768_JID_132_Energie_neutraal
 -------------------------------------
 Structure from the checkpoint file:  "JID_132.chk"
 Charge =  0 Multiplicity = 1

 SCF Done:  E(RB3LYP) =  -569.262149975     A.U. after   14 cycles
 Normal termination of Gaussian 16 at Tue Dec  8 10:19:54 2020.

 ----------------------------------------------------------------------
 # B3LYP/6-311++G(d,p) empiricaldispersion=gd3bj scf=xqc pop=npa geom=c
 heck
 ----------------------------------------------------------------------

 -----------------------------------
 CID_69637768_JID_132_Energie_kation
 -----------------------------------
 Structure from the checkpoint file:  "JID_132.chk"
 Charge =  1 Multiplicity = 2

 SCF Done:  E(UB3LYP) =  -568.892858069     A.U. after   22 cycles
 Normal termination of Gaussian 16 at Tue Dec  8 10:21:15 2020.
 Gaussian 16:  ES64L-G16RevA.03 25-Dec-2016

 ----------------------------------------------------------------------
 # B3LYP/6-311++G(d,p) empiricaldispersion=gd3bj scf=xqc pop=npa geom=c
 heck
 ----------------------------------------------------------------------

 ----------------------------------
 CID_69637768_JID_132_Energie_anion
 ----------------------------------
 Structure from the checkpoint file:  "JID_132.chk"
 Charge = -1 Multiplicity = 2

                         Standard orientation:
 ---------------------------------------------------------------------
 Center     Atomic      Atomic             Coordinates (Angstroms)
 Number     Number       Type             X           Y           Z
 ---------------------------------------------------------------------
      1          6           0       -1.433547    0.914118    0.547748
      2          6           0       -0.094032    1.310088   -0.032366
      3          8           0        0.489029    2.360028    0.049997
      4          6           0        0.433406    0.060923   -0.778545
      5          8           0       -0.663572   -0.849995   -0.832700
      6          6           0       -1.736826   -0.437077   -0.075510
      7          8           0       -2.731799   -1.096457    0.014897
      8          6           0        1.605287   -0.538352   -0.006074
      9          8           0        2.751846   -0.523903   -0.373967
     10          8           0        1.179534   -1.042054    1.173353
     11          1           0       -2.221147    1.642327    0.335672
     12          1           0       -1.357805    0.813756    1.636928
     13          1           0        0.769255    0.304502   -1.787935
     14          1           0        1.963661   -1.399739    1.631164
 ---------------------------------------------------------------------

 SCF Done:  E(UB3LYP) =  -569.278464499     A.U. after   26 cycles

 The electronic state is 2-A.
 Alpha  occ. eigenvalues --  -19.04063 -19.03125 -18.98101 -18.97934 -18.93721
 Alpha  occ. eigenvalues --  -10.16707 -10.15973 -10.10013 -10.07446 -10.04617
 Alpha  occ. eigenvalues --   -0.98399  -0.96836  -0.90146  -0.89233  -0.87958
 Alpha  occ. eigenvalues --   -0.63809  -0.61866  -0.50088  -0.45543  -0.41296
 Alpha  occ. eigenvalues --   -0.38307  -0.37190  -0.34855  -0.32509  -0.32333
 Alpha  occ. eigenvalues --   -0.30953  -0.28449  -0.28006  -0.26947  -0.26153
 Alpha  occ. eigenvalues --   -0.23876  -0.20851  -0.20093  -0.18821  -0.15825
 Alpha  occ. eigenvalues --   -0.14857  -0.09223   0.05093
 Alpha virt. eigenvalues --    0.08745   0.10747   0.11897   0.12156   0.13249
 Alpha virt. eigenvalues --    0.14207   0.15114   0.16094   0.17368   0.17893
 Alpha virt. eigenvalues --    0.18605   0.19688   0.20651   0.21194   0.22127

  Beta  occ. eigenvalues --  -19.03988 -19.03056 -18.98079 -18.97798 -18.93192
  Beta  occ. eigenvalues --  -10.16642 -10.15741 -10.10068 -10.06920 -10.04677
  Beta  occ. eigenvalues --   -0.98177  -0.96685  -0.90025  -0.88997  -0.86982
  Beta  occ. eigenvalues --   -0.63292  -0.61601  -0.49755  -0.45046  -0.40682
  Beta  occ. eigenvalues --   -0.38005  -0.36845  -0.34571  -0.32184  -0.31592
  Beta  occ. eigenvalues --   -0.30632  -0.28177  -0.27496  -0.26111  -0.25785
  Beta  occ. eigenvalues --   -0.23545  -0.19422  -0.18633  -0.18395  -0.15740
  Beta  occ. eigenvalues --   -0.14591  -0.08808
  Beta virt. eigenvalues --    0.08823   0.10865   0.11150   0.12252   0.13384
  Beta virt. eigenvalues --    0.14691   0.15070   0.15832   0.16184   0.17425
  Beta virt. eigenvalues --    0.17799   0.18636   0.19722   0.20631   0.21277

 Mulliken charges and spin densities:
               1          2
     1  C   -0.005263  -0.205781
     2  C   -0.091150   0.252066
     3  O   -0.430540   0.200210
     4  C   -0.081472  -0.017181
     5  O   -0.080811   0.011526
     6  C    0.124276   0.018629
     7  O   -0.369933   0.015317
     8  C    0.066940   0.117888
     9  O   -0.338141   0.050684
    10  O   -0.211776   0.016405
    11  H    0.197408  -0.024996
    12  H   -0.183055   0.434365
    13  H    0.240622   0.018261
    14  H    0.162896   0.112607
 Sum of Mulliken charges =  -1.00000   1.00000

 Dipole moment (field-independent basis, Debye):
    X=             -0.1173    Y=             -1.6150    Z=             -0.3377  Tot=              1.6541
 Quadrupole moment (field-independent basis, Debye-Ang):
   XX=            -86.2917   YY=            -78.4392   ZZ=            -64.5569
   XY=            -10.0640   XZ=              4.7701   YZ=             -3.2209

 Summary of Natural Population Analysis:

                                       Natural Population
                Natural  -----------------------------------------------
    Atom  No    Charge         Core      Valence    Rydberg      Total
 -----------------------------------------------------------------------
      C    1   -0.29530      0.99955     2.28865    0.00711     3.29530
      C    2    0.34152      0.99969     1.63443    0.02436     2.65848
      O    3   -0.24092      0.99987     3.23435    0.00671     4.24092
      C    4   -0.01911      0.99949     2.00449    0.01513     3.01911
      O    5   -0.27387      0.99986     3.26603    0.00798     4.27387
      C    6    0.42049      0.99970     1.55218    0.02763     2.57951
      O    7   -0.30363      0.99986     3.29705    0.00672     4.30363
      C    8    0.42621      0.99971     1.54670    0.02737     2.57379
      O    9   -0.30258      0.99986     3.29664    0.00608     4.30258
      O   10   -0.34535      0.99987     3.33881    0.00667     4.34535
      H   11    0.11890      0.00000     0.38013    0.00097     0.38110
      H   12    0.13320      0.00000     0.36255    0.00425     0.36680
      H   13    0.10642      0.00000     0.39260    0.00098     0.39358
      H   14    0.23403      0.00000     0.26188    0.00409     0.26597
 =======================================================================
   * Total *    0.00000      9.99747    26.85648    0.14605    37.00000

 Normal termination of Gaussian 16 at Tue Dec  8 10:22:51 2020.
