 Gaussian 16, Revision A.03,

 -----------------------------------------------------------
 # opt freq B3LYP/6-31G(d) empiricaldispersion=gd3bj scf=xqc
 -----------------------------------------------------------

 -------------------------------
 CID_115833067_JID_3481_neutraal
 -------------------------------
 Symbolic Z-matrix:
 Charge =  0 Multiplicity = 1

 SCF Done:  E(RB3LYP) =  -525.900346334     A.U. after   12 cycles
 SCF Done:  E(RB3LYP) =  -525.906430456     A.U. after   11 cycles
 SCF Done:  E(RB3LYP) =  -525.906559794     A.U. after   10 cycles
 SCF Done:  E(RB3LYP) =  -525.907288940     A.U. after   10 cycles
 SCF Done:  E(RB3LYP) =  -525.907271394     A.U. after   10 cycles
 SCF Done:  E(RB3LYP) =  -525.907561802     A.U. after    9 cycles
 SCF Done:  E(RB3LYP) =  -525.907589973     A.U. after    9 cycles
 SCF Done:  E(RB3LYP) =  -525.907596220     A.U. after    8 cycles
 SCF Done:  E(RB3LYP) =  -525.907598966     A.U. after    8 cycles
 SCF Done:  E(RB3LYP) =  -525.907600124     A.U. after    7 cycles
 SCF Done:  E(RB3LYP) =  -525.907601063     A.U. after    7 cycles
 SCF Done:  E(RB3LYP) =  -525.907601623     A.U. after    7 cycles
 SCF Done:  E(RB3LYP) =  -525.907601997     A.U. after    7 cycles
 SCF Done:  E(RB3LYP) =  -525.907602142     A.U. after    6 cycles
 Optimization completed.
    -- Stationary point found.
 Normal termination of Gaussian 16 at Wed Dec  9 23:26:27 2020.

 --------------------------------------------------------------------
 #N Geom=AllCheck Guess=TCheck SCRF=Check GenChk RB3LYP/6-31G(d) Freq
 --------------------------------------------------------------------

 Structure from the checkpoint file:  "JID_3481.chk"
 -------------------------------
 CID_115833067_JID_3481_neutraal
 -------------------------------
 Charge =  0 Multiplicity = 1

 SCF Done:  E(RB3LYP) =  -525.907602142     A.U. after    1 cycles

  Exact polarizability: 145.033   0.273 124.127  -1.115   1.155 113.217
 Approx polarizability: 174.146   0.405 176.217  -0.722   0.124 174.053

                      1                      2                      3
                      A                      A                      A
 Frequencies --     39.3378                54.0823                81.5718
 Red. masses --      2.9085                 3.3729                 1.8983
 Frc consts  --      0.0027                 0.0058                 0.0074
 IR Inten    --      0.0422                 0.0572                 0.0093

                      4                      5                      6
                      A                      A                      A
 Frequencies --     92.6618               115.5133               136.2720
 Red. masses --      2.4788                 2.9526                 3.4761
 Frc consts  --      0.0125                 0.0232                 0.0380
 IR Inten    --      0.3101                 0.2134                 0.4693

                      7                      8                      9
                      A                      A                      A
 Frequencies --    162.7980               203.8585               258.1970
 Red. masses --      1.8667                 2.1062                 1.3510
 Frc consts  --      0.0291                 0.0516                 0.0531
 IR Inten    --      0.2295                 0.1654                 7.6145

                     10                     11                     12
                      A                      A                      A
 Frequencies --    263.0010               282.5939               301.1469
 Red. masses --      1.6473                 2.1327                 1.6674
 Frc consts  --      0.0671                 0.1003                 0.0891
 IR Inten    --     15.3995                 0.7130                15.9256

                     13                     14                     15
                      A                      A                      A
 Frequencies --    329.8040               366.1553               412.1651
 Red. masses --      2.2759                 2.1996                 2.1621
 Frc consts  --      0.1459                 0.1737                 0.2164
 IR Inten    --      2.8200                 0.4593                 3.1953

                     16                     17                     18
                      A                      A                      A
 Frequencies --    423.5350               469.3575               496.1423
 Red. masses --      2.7594                 2.5689                 4.3281
 Frc consts  --      0.2916                 0.3334                 0.6277
 IR Inten    --      6.3019                 2.1809                 0.2015

                     19                     20                     21
                      A                      A                      A
 Frequencies --    540.6278               557.9031               629.7140
 Red. masses --      2.3478                 2.6609                 1.8310
 Frc consts  --      0.4043                 0.4880                 0.4278
 IR Inten    --      3.6493                 5.9559                 0.9460

                     22                     23                     24
                      A                      A                      A
 Frequencies --    742.8905               772.1803               802.6946
 Red. masses --      1.3666                 1.3232                 2.9091
 Frc consts  --      0.4444                 0.4649                 1.1043
 IR Inten    --      8.3393                 3.0453                 7.6043

                     25                     26                     27
                      A                      A                      A
 Frequencies --    811.1236               819.9005               846.5735
 Red. masses --      2.2604                 1.8472                 2.4328
 Frc consts  --      0.8762                 0.7316                 1.0273
 IR Inten    --      2.4997                 0.5226                 2.2454

                     28                     29                     30
                      A                      A                      A
 Frequencies --    854.5110               890.5086               931.9489
 Red. masses --      2.3022                 1.6032                 1.6104
 Frc consts  --      0.9905                 0.7490                 0.8241
 IR Inten    --      1.8395                38.2878               120.5225

                     31                     32                     33
                      A                      A                      A
 Frequencies --    947.9014               950.8752               959.9191
 Red. masses --      1.5790                 1.8971                 2.0025
 Frc consts  --      0.8359                 1.0106                 1.0872
 IR Inten    --      1.6540                 0.4093                 3.0694

                     34                     35                     36
                      A                      A                      A
 Frequencies --    982.4094               988.2808              1010.3320
 Red. masses --      2.0461                 2.2890                 1.6269
 Frc consts  --      1.1635                 1.3172                 0.9784
 IR Inten    --     31.6220                 0.3429                 3.4670

                     37                     38                     39
                      A                      A                      A
 Frequencies --   1026.8978              1044.8432              1070.1191
 Red. masses --      1.5229                 1.6897                 2.0264
 Frc consts  --      0.9462                 1.0868                 1.3672
 IR Inten    --      1.6776                10.3241                 1.3920

                     40                     41                     42
                      A                      A                      A
 Frequencies --   1076.1617              1090.5538              1101.1399
 Red. masses --      2.0369                 2.1222                 1.3357
 Frc consts  --      1.3899                 1.4871                 0.9542
 IR Inten    --      1.2692                 0.8296                 7.1153

                     43                     44                     45
                      A                      A                      A
 Frequencies --   1112.7257              1120.8769              1147.3532
 Red. masses --      2.2440                 1.2402                 1.7209
 Frc consts  --      1.6370                 0.9180                 1.3348
 IR Inten    --      0.7283                 0.4794                 5.3184

                     46                     47                     48
                      A                      A                      A
 Frequencies --   1154.2379              1176.6348              1207.3949
 Red. masses --      2.0263                 2.0282                 1.4121
 Frc consts  --      1.5905                 1.6544                 1.2129
 IR Inten    --     16.6477                 1.2731                 1.1283

                     49                     50                     51
                      A                      A                      A
 Frequencies --   1210.6892              1232.6079              1248.9743
 Red. masses --      1.4890                 1.4262                 1.3796
 Frc consts  --      1.2859                 1.2767                 1.2680
 IR Inten    --      0.8276                 5.2428                 1.8425

                     52                     53                     54
                      A                      A                      A
 Frequencies --   1253.0866              1279.8116              1294.3214
 Red. masses --      1.3623                 1.3323                 1.1959
 Frc consts  --      1.2604                 1.2857                 1.1804
 IR Inten    --      0.6084                 0.3036                 0.4786

                     55                     56                     57
                      A                      A                      A
 Frequencies --   1297.0798              1333.0826              1343.0684
 Red. masses --      1.3224                 1.1990                 1.2323
 Frc consts  --      1.3108                 1.2554                 1.3097
 IR Inten    --      3.5167                 2.1586                 0.5635

                     58                     59                     60
                      A                      A                      A
 Frequencies --   1348.2446              1376.4146              1380.9954
 Red. masses --      1.2413                 1.3451                 1.2984
 Frc consts  --      1.3294                 1.5014                 1.4589
 IR Inten    --      2.8292                17.9236                11.4127

                     61                     62                     63
                      A                      A                      A
 Frequencies --   1384.9882              1386.8566              1396.1895
 Red. masses --      1.3372                 1.3517                 1.3828
 Frc consts  --      1.5113                 1.5317                 1.5882
 IR Inten    --      4.5591                 6.5009                 0.6125

                     64                     65                     66
                      A                      A                      A
 Frequencies --   1400.3569              1407.9443              1410.7919
 Red. masses --      1.4806                 1.3652                 1.3825
 Frc consts  --      1.7106                 1.5945                 1.6212
 IR Inten    --      0.6401                 1.4281                 8.6887

                     67                     68                     69
                      A                      A                      A
 Frequencies --   1440.8118              1444.9775              1489.7026
 Red. masses --      1.5290                 1.2675                 2.3667
 Frc consts  --      1.8701                 1.5593                 3.0945
 IR Inten    --      0.4229                 5.7595                 2.5411

                     70                     71                     72
                      A                      A                      A
 Frequencies --   1514.3338              1517.6359              1520.9913
 Red. masses --      1.0784                 1.0688                 1.0880
 Frc consts  --      1.4571                 1.4504                 1.4830
 IR Inten    --      0.0081                 1.6727                 0.3077

                     73                     74                     75
                      A                      A                      A
 Frequencies --   1525.7010              1531.8901              1533.2712
 Red. masses --      1.0552                 1.0783                 1.0862
 Frc consts  --      1.4473                 1.4910                 1.5045
 IR Inten    --      1.3375                 7.3668                 9.2461

                     76                     77                     78
                      A                      A                      A
 Frequencies --   1538.2352              1542.9933              1543.8280
 Red. masses --      1.0669                 1.0908                 1.0850
 Frc consts  --      1.4873                 1.5301                 1.5236
 IR Inten    --      8.2846                 0.4314                 1.3037

                     79                     80                     81
                      A                      A                      A
 Frequencies --   1696.8271              3025.2930              3033.9074
 Red. masses --      1.0877                 1.0716                 1.0700
 Frc consts  --      1.8451                 5.7783                 5.8026
 IR Inten    --     19.2888                 8.9966                19.6482

                     82                     83                     84
                      A                      A                      A
 Frequencies --   3036.9253              3038.3899              3038.9756
 Red. masses --      1.0678                 1.0670                 1.0600
 Frc consts  --      5.8023                 5.8035                 5.7679
 IR Inten    --     24.0095                15.6893                 7.9770

                     85                     86                     87
                      A                      A                      A
 Frequencies --   3042.7964              3045.5330              3046.9829
 Red. masses --      1.0725                 1.0411                 1.0616
 Frc consts  --      5.8506                 5.6896                 5.8072
 IR Inten    --     85.2175                20.8010                32.6720

                     88                     89                     90
                      A                      A                      A
 Frequencies --   3053.8277              3068.2648              3069.2808
 Red. masses --      1.0648                 1.0994                 1.0973
 Frc consts  --      5.8507                 6.0982                 6.0903
 IR Inten    --     52.1327                26.0206                35.1339

                     91                     92                     93
                      A                      A                      A
 Frequencies --   3076.5438              3081.7781              3082.8977
 Red. masses --      1.0935                 1.1015                 1.0992
 Frc consts  --      6.0980                 6.1634                 6.1553
 IR Inten    --     16.1522                45.6393                33.0812

                     94                     95                     96
                      A                      A                      A
 Frequencies --   3092.8072              3097.7071              3099.4746
 Red. masses --      1.0905                 1.1019                 1.0946
 Frc consts  --      6.1461                 6.2296                 6.1954
 IR Inten    --      2.7464               124.0116                58.1412

                     97                     98                     99
                      A                      A                      A
 Frequencies --   3109.3021              3119.3322              3159.1585
 Red. masses --      1.1015                 1.1017                 1.0877
 Frc consts  --      6.2741                 6.3159                 6.3959
 IR Inten    --     46.1825                43.8457                21.1216

                    100                    101                    102
                      A                      A                      A
 Frequencies --   3199.7395              3436.7991              3522.2247
 Red. masses --      1.0874                 1.0498                 1.0911
 Frc consts  --      6.5594                 7.3058                 7.9750
 IR Inten    --     18.8344                 4.4415                 1.8949

 - Thermochemistry -
 -------------------
 Temperature   298.150 Kelvin.  Pressure   1.00000 Atm.
 Atom     1 has atomic number  6 and mass  12.00000

 Molecular mass:   181.18305 amu.
 Principal axes and moments of inertia in atomic units:
                           1         2         3
     Eigenvalues --  1420.917684168.909464816.75948
           X            0.99996  -0.00872  -0.00004
           Y            0.00872   0.99994   0.00628
           Z           -0.00002  -0.00628   0.99998
 This molecule is an asymmetric top.
 Rotational symmetry number  1.
 Warning -- assumption of classical behavior for rotation
           may cause significant error
 Rotational temperatures (Kelvin)      0.06096     0.02078     0.01798
 Rotational constants (GHZ):           1.27012     0.43290     0.37468
 Zero-point vibrational energy     886804.1 (Joules/Mol)
                                  211.95127 (Kcal/Mol)
 Warning -- explicit consideration of  20 degrees of freedom as
           vibrations may cause significant error
 Vibrational temperatures:     56.60    77.81   117.36   133.32   166.20
          (Kelvin)            196.07   234.23   293.31   371.49   378.40
                              406.59   433.28   474.51   526.82   593.01
                              609.37   675.30   713.84   777.84   802.70
                              906.02  1068.85  1111.00  1154.90  1167.03
                             1179.65  1218.03  1229.45  1281.24  1340.87
                             1363.82  1368.10  1381.11  1413.47  1421.92
                             1453.64  1477.48  1503.30  1539.66  1548.36
                             1569.06  1584.29  1600.96  1612.69  1650.79
                             1660.69  1692.92  1737.17  1741.91  1773.45
                             1797.00  1802.91  1841.36  1862.24  1866.21
                             1918.01  1932.38  1939.82  1980.35  1986.94
                             1992.69  1995.38  2008.81  2014.80  2025.72
                             2029.81  2073.01  2079.00  2143.35  2178.79
                             2183.54  2188.37  2195.14  2204.05  2206.04
                             2213.18  2220.02  2221.22  2441.36  4352.72
                             4365.12  4369.46  4371.57  4372.41  4377.91
                             4381.84  4383.93  4393.78  4414.55  4416.01
                             4426.46  4433.99  4435.60  4449.86  4456.91
                             4459.45  4473.59  4488.02  4545.32  4603.71
                             4944.79  5067.70

 Zero-point correction=                           0.337766 (Hartree/Particle)
 Thermal correction to Energy=                    0.351890
 Thermal correction to Enthalpy=                  0.352834
 Thermal correction to Gibbs Free Energy=         0.296671
 Sum of electronic and zero-point Energies=           -525.569836
 Sum of electronic and thermal Energies=              -525.555712
 Sum of electronic and thermal Enthalpies=            -525.554768
 Sum of electronic and thermal Free Energies=         -525.610931

                     E (Thermal)             CV                S
                      KCal/Mol        Cal/Mol-Kelvin    Cal/Mol-Kelvin
 Total                  220.814             54.670            118.206
 Electronic               0.000              0.000              0.000
 Translational            0.889              2.981             41.490
 Rotational               0.889              2.981             31.723
 Vibrational            219.037             48.708             44.993
 Vibration     1          0.594              1.981              5.292
 Vibration     2          0.596              1.976              4.662
 Vibration     3          0.600              1.962              3.853
 Vibration     4          0.602              1.954              3.603
 Vibration     5          0.608              1.937              3.174
 Vibration     6          0.614              1.917              2.856
 Vibration     7          0.623              1.888              2.517
 Vibration     8          0.640              1.834              2.098
 Vibration     9          0.667              1.749              1.674
 Vibration    10          0.670              1.741              1.642
 Vibration    11          0.682              1.706              1.518
 Vibration    12          0.693              1.672              1.411
 Vibration    13          0.713              1.616              1.261
 Vibration    14          0.739              1.542              1.096
 Vibration    15          0.776              1.444              0.919
 Vibration    16          0.786              1.419              0.880
 Vibration    17          0.826              1.318              0.739
 Vibration    18          0.852              1.259              0.668
 Vibration    19          0.896              1.160              0.564
 Vibration    20          0.913              1.122              0.528

 Optimization completed.
    -- Stationary point found.
 Normal termination of Gaussian 16 at Wed Dec  9 23:36:41 2020.

 ----------------------------------------------------------------------
 # B3LYP/6-311++G(d,p) empiricaldispersion=gd3bj scf=xqc pop=npa geom=c
 heck
 ----------------------------------------------------------------------

 ---------------------------------------
 CID_115833067_JID_3481_Energie_neutraal
 ---------------------------------------
 Structure from the checkpoint file:  "JID_3481.chk"
 Charge =  0 Multiplicity = 1

 SCF Done:  E(RB3LYP) =  -526.057254467     A.U. after   13 cycles
 Normal termination of Gaussian 16 at Wed Dec  9 23:40:53 2020.

 ----------------------------------------------------------------------
 # B3LYP/6-311++G(d,p) empiricaldispersion=gd3bj scf=xqc pop=npa geom=c
 heck
 ----------------------------------------------------------------------

 -------------------------------------
 CID_115833067_JID_3481_Energie_kation
 -------------------------------------
 Structure from the checkpoint file:  "JID_3481.chk"
 Charge =  1 Multiplicity = 2

 SCF Done:  E(UB3LYP) =  -525.746678152     A.U. after   21 cycles
 Normal termination of Gaussian 16 at Wed Dec  9 23:49:50 2020.
 Gaussian 16:  ES64L-G16RevA.03 25-Dec-2016

 ----------------------------------------------------------------------
 # B3LYP/6-311++G(d,p) empiricaldispersion=gd3bj scf=xqc pop=npa geom=c
 heck
 ----------------------------------------------------------------------

 ------------------------------------
 CID_115833067_JID_3481_Energie_anion
 ------------------------------------
 Structure from the checkpoint file:  "JID_3481.chk"
 Charge = -1 Multiplicity = 2

                         Standard orientation:
 ---------------------------------------------------------------------
 Center     Atomic      Atomic             Coordinates (Angstroms)
 Number     Number       Type             X           Y           Z
 ---------------------------------------------------------------------
      1          6           0        4.074189   -1.120368   -0.396162
      2          6           0        2.686820   -1.591653    0.050199
      3          6           0        2.075319   -0.739844    1.172472
      4          6           0        1.905728    0.751504    0.841151
      5          6           0        1.192254    1.133052   -0.468037
      6          6           0       -0.287345    0.762982   -0.592644
      7          6           0       -0.893481   -0.601385   -0.363882
      8          6           0       -1.204586    0.540178    0.586778
      9          6           0       -2.655042    0.996888    0.570199
     10          6           0       -3.598800   -0.212722    0.729767
     11          6           0       -3.295170   -1.360809   -0.278989
     12          6           0       -2.084579   -1.064028   -1.189140
     13          7           0        1.399112    2.587157   -0.640102
     14          1           0        4.039927   -0.116967   -0.834295
     15          1           0        4.497850   -1.795780   -1.147763
     16          1           0        4.768846   -1.086297    0.452349
     17          1           0        2.010201   -1.605811   -0.814163
     18          1           0        2.753159   -2.630771    0.398959
     19          1           0        1.116964   -1.176294    1.475632
     20          1           0        2.723251   -0.809652    2.057559
     21          1           0        1.389663    1.244220    1.677205
     22          1           0        2.892181    1.223206    0.784610
     23          1           0        1.726135    0.656320   -1.301099
     24          1           0       -0.750874    1.299987   -1.423583
     25          1           0       -0.247629   -1.393696   -0.000946
     26          1           0       -0.739859    0.494624    1.569257
     27          1           0       -2.843867    1.725868    1.366938
     28          1           0       -2.874222    1.512534   -0.373278
     29          1           0       -3.498306   -0.591682    1.754062
     30          1           0       -4.638924    0.119003    0.628942
     31          1           0       -3.094464   -2.286590    0.273529
     32          1           0       -4.174322   -1.563615   -0.902050
     33          1           0       -1.830437   -1.955276   -1.774538
     34          1           0       -2.356816   -0.289416   -1.917213
     35          1           0        0.980974    2.881246   -1.523045
     36          1           0        0.864945    3.071961    0.083379
 ---------------------------------------------------------------------

 SCF Done:  E(UB3LYP) =  -526.041103187     A.U. after   30 cycles

 The electronic state is 2-A.
 Alpha  occ. eigenvalues --  -14.19425 -10.10087 -10.07247 -10.06926 -10.06850
 Alpha  occ. eigenvalues --  -10.06766 -10.06677 -10.06532 -10.06397 -10.06384
 Alpha  occ. eigenvalues --  -10.06292 -10.06285 -10.06203  -0.79704  -0.76579
 Alpha  occ. eigenvalues --   -0.70177  -0.68153  -0.63729  -0.63543  -0.58036
 Alpha  occ. eigenvalues --   -0.54855  -0.52347  -0.49789  -0.48138  -0.45037
 Alpha  occ. eigenvalues --   -0.41990  -0.40724  -0.38540  -0.37555  -0.36251
 Alpha  occ. eigenvalues --   -0.35963  -0.33932  -0.32808  -0.31250  -0.30799
 Alpha  occ. eigenvalues --   -0.29833  -0.29079  -0.27915  -0.27613  -0.27068
 Alpha  occ. eigenvalues --   -0.26304  -0.25165  -0.24183  -0.23497  -0.22729
 Alpha  occ. eigenvalues --   -0.22180  -0.21745  -0.20393  -0.17935  -0.16679
 Alpha  occ. eigenvalues --   -0.14242   0.04453
 Alpha virt. eigenvalues --    0.06252   0.06717   0.07063   0.08137   0.08522
 Alpha virt. eigenvalues --    0.08991   0.09446   0.09617   0.10516   0.10665
 Alpha virt. eigenvalues --    0.11354   0.11886   0.11908   0.12486   0.13088

  Beta  occ. eigenvalues --  -14.19406 -10.10082 -10.07239 -10.06917 -10.06844
  Beta  occ. eigenvalues --  -10.06751 -10.06665 -10.06515 -10.06386 -10.06362
  Beta  occ. eigenvalues --  -10.06276 -10.06264 -10.06186  -0.79677  -0.76555
  Beta  occ. eigenvalues --   -0.70148  -0.68119  -0.63693  -0.63511  -0.57996
  Beta  occ. eigenvalues --   -0.54810  -0.52299  -0.49752  -0.48092  -0.45000
  Beta  occ. eigenvalues --   -0.41937  -0.40691  -0.38508  -0.37524  -0.36214
  Beta  occ. eigenvalues --   -0.35929  -0.33896  -0.32777  -0.31219  -0.30774
  Beta  occ. eigenvalues --   -0.29805  -0.29046  -0.27880  -0.27579  -0.27037
  Beta  occ. eigenvalues --   -0.26278  -0.25134  -0.24149  -0.23462  -0.22700
  Beta  occ. eigenvalues --   -0.22151  -0.21723  -0.20365  -0.17905  -0.16660
  Beta  occ. eigenvalues --   -0.14220
  Beta virt. eigenvalues --    0.06476   0.07090   0.07236   0.07685   0.08643
  Beta virt. eigenvalues --    0.08959   0.09360   0.09920   0.09984   0.10888
  Beta virt. eigenvalues --    0.11041   0.11688   0.12063   0.12196   0.12719

 Mulliken charges and spin densities:
               1          2
     1  C    0.419881  -1.062757
     2  C   -0.261343   0.072957
     3  C   -0.383463   0.138779
     4  C    0.392351  -0.488634
     5  C    1.779721  -2.658016
     6  C   -0.908977   1.379616
     7  C    0.062476  -0.214167
     8  C   -0.736589   0.348494
     9  C   -0.187836  -0.081995
    10  C    0.042828  -0.456801
    11  C    0.631764  -1.058002
    12  C    0.258521  -0.674370
    13  N   -0.372201   0.149520
    14  H   -0.036506   0.186387
    15  H   -0.214994   0.352509
    16  H   -0.031174   0.162849
    17  H    0.125321   0.019670
    18  H   -0.368342   0.516677
    19  H   -0.062839   0.207224
    20  H   -0.299191   0.469877
    21  H   -0.060536   0.211011
    22  H    0.295876  -0.093194
    23  H    0.107170   0.092805
    24  H   -0.198692   0.456599
    25  H    0.130296   0.072998
    26  H   -0.043371   0.252182
    27  H   -0.329238   0.490670
    28  H   -0.192042   0.333272
    29  H   -0.044392   0.178021
    30  H   -0.255401   0.410639
    31  H   -0.059052   0.191081
    32  H   -0.084596   0.237346
    33  H   -0.190501   0.351146
    34  H   -0.026250   0.158438
    35  H    0.036474   0.179701
    36  H    0.064846   0.167468
 Sum of Mulliken charges =  -1.00000   1.00000

 Dipole moment (field-independent basis, Debye):
    X=              0.8611    Y=              0.4934    Z=             -0.2713  Tot=              1.0288
 Quadrupole moment (field-independent basis, Debye-Ang):
   XX=           -164.6728   YY=           -134.0984   ZZ=           -120.6343
   XY=              6.3517   XZ=              0.8215   YZ=             -0.7053

 Summary of Natural Population Analysis:

                                       Natural Population
                Natural  -----------------------------------------------
    Atom  No    Charge         Core      Valence    Rydberg      Total
 -----------------------------------------------------------------------
      C    1   -0.28818      0.99967     2.28284    0.00567     3.28818
      C    2   -0.19317      0.99964     2.18558    0.00795     3.19317
      C    3   -0.18959      0.99962     2.18151    0.00846     3.18959
      C    4   -0.19461      0.99961     2.18575    0.00925     3.19461
      C    5   -0.01330      0.99958     2.00201    0.01172     3.01330
      C    6   -0.11032      0.99954     2.09833    0.01246     3.11032
      C    7   -0.11274      0.99955     2.10327    0.00991     3.11274
      C    8   -0.11186      0.99956     2.10170    0.01060     3.11186
      C    9   -0.19284      0.99962     2.18367    0.00956     3.19284
      C   10   -0.18768      0.99963     2.18056    0.00749     3.18768
      C   11   -0.18686      0.99963     2.18008    0.00714     3.18686
      C   12   -0.19183      0.99962     2.18287    0.00935     3.19183
      N   13   -0.41857      0.99978     2.90927    0.00952     3.91857
      H   14    0.09737      0.00000     0.40169    0.00094     0.40263
      H   15    0.09865      0.00000     0.40050    0.00085     0.40135
      H   16    0.09477      0.00000     0.40430    0.00093     0.40523
      H   17    0.09476      0.00000     0.40370    0.00153     0.40524
      H   18    0.09657      0.00000     0.40215    0.00128     0.40343
      H   19    0.09650      0.00000     0.40170    0.00180     0.40350
      H   20    0.09518      0.00000     0.40378    0.00104     0.40482
      H   21    0.09761      0.00000     0.40117    0.00122     0.40239
      H   22    0.10368      0.00000     0.39486    0.00146     0.39632
      H   23    0.09029      0.00000     0.40786    0.00185     0.40971
      H   24    0.09811      0.00000     0.40023    0.00167     0.40189
      H   25    0.10443      0.00000     0.39367    0.00191     0.39557
      H   26    0.10476      0.00000     0.39385    0.00139     0.39524
      H   27    0.10288      0.00000     0.39577    0.00135     0.39712
      H   28    0.09545      0.00000     0.40268    0.00186     0.40455
      H   29    0.09372      0.00000     0.40493    0.00135     0.40628
      H   30    0.09681      0.00000     0.40192    0.00128     0.40319
      H   31    0.09397      0.00000     0.40468    0.00135     0.40603
      H   32    0.09591      0.00000     0.40285    0.00124     0.40409
      H   33    0.10202      0.00000     0.39696    0.00102     0.39798
      H   34    0.09505      0.00000     0.40334    0.00162     0.40495
      H   35    0.17198      0.00000     0.32628    0.00174     0.32802
      H   36    0.17111      0.00000     0.32699    0.00190     0.32889
 =======================================================================
   * Total *   -0.00000     12.99504    37.85329    0.15167    51.00000

 Normal termination of Gaussian 16 at Thu Dec 10 00:02:30 2020.
