 Gaussian 16, Revision A.03,

 -----------------------------------------------------------
 # opt freq B3LYP/6-31G(d) empiricaldispersion=gd3bj scf=xqc
 -----------------------------------------------------------

 ------------------------------
 CID_80089952_JID_3386_neutraal
 ------------------------------
 Symbolic Z-matrix:
 Charge =  0 Multiplicity = 1

 SCF Done:  E(RB3LYP) =  -564.232749099     A.U. after   13 cycles
 SCF Done:  E(RB3LYP) =  -564.235463431     A.U. after   11 cycles
 SCF Done:  E(RB3LYP) =  -564.235847263     A.U. after   10 cycles
 SCF Done:  E(RB3LYP) =  -564.236025607     A.U. after   10 cycles
 SCF Done:  E(RB3LYP) =  -564.237050844     A.U. after   10 cycles
 SCF Done:  E(RB3LYP) =  -564.238365847     A.U. after   11 cycles
 SCF Done:  E(RB3LYP) =  -564.237468360     A.U. after   13 cycles
 SCF Done:  E(RB3LYP) =  -564.239770444     A.U. after   11 cycles
 SCF Done:  E(RB3LYP) =  -564.240290296     A.U. after   10 cycles
 SCF Done:  E(RB3LYP) =  -564.240382543     A.U. after   10 cycles
 SCF Done:  E(RB3LYP) =  -564.240476936     A.U. after    8 cycles
 SCF Done:  E(RB3LYP) =  -564.240478536     A.U. after    8 cycles
 SCF Done:  E(RB3LYP) =  -564.240479607     A.U. after    8 cycles
 SCF Done:  E(RB3LYP) =  -564.240480098     A.U. after    7 cycles
 SCF Done:  E(RB3LYP) =  -564.240480329     A.U. after    7 cycles
 SCF Done:  E(RB3LYP) =  -564.240480364     A.U. after    6 cycles
 Optimization completed.
    -- Stationary point found.
 Normal termination of Gaussian 16 at Wed Dec  9 23:11:44 2020.

 --------------------------------------------------------------------
 #N Geom=AllCheck Guess=TCheck SCRF=Check GenChk RB3LYP/6-31G(d) Freq
 --------------------------------------------------------------------

 Structure from the checkpoint file:  "JID_3386.chk"
 ------------------------------
 CID_80089952_JID_3386_neutraal
 ------------------------------
 Charge =  0 Multiplicity = 1

 SCF Done:  E(RB3LYP) =  -564.240480364     A.U. after    1 cycles

  Exact polarizability: 135.801  -3.100 133.690   1.626  -1.993 114.378
 Approx polarizability: 173.539  -2.616 171.557  -0.752  -4.456 169.114

                      1                      2                      3
                      A                      A                      A
 Frequencies --     35.1768                46.0831                68.5690
 Red. masses --      2.4293                 3.1463                 3.0562
 Frc consts  --      0.0018                 0.0039                 0.0085
 IR Inten    --      0.1437                 0.0948                 0.0787

                      4                      5                      6
                      A                      A                      A
 Frequencies --     86.3040               106.1235               115.2072
 Red. masses --      2.9750                 2.4811                 1.9993
 Frc consts  --      0.0131                 0.0165                 0.0156
 IR Inten    --      1.4122                 3.3923                 2.8928

                      7                      8                      9
                      A                      A                      A
 Frequencies --    125.1307               159.8633               183.6015
 Red. masses --      2.5330                 2.3356                 1.7117
 Frc consts  --      0.0234                 0.0352                 0.0340
 IR Inten    --      0.7933                 0.3638                 0.1074

                     10                     11                     12
                      A                      A                      A
 Frequencies --    198.1014               214.1998               219.1310
 Red. masses --      2.0777                 1.5833                 1.7457
 Frc consts  --      0.0480                 0.0428                 0.0494
 IR Inten    --      0.2029                 1.6864                 0.2003

                     13                     14                     15
                      A                      A                      A
 Frequencies --    241.4992               251.3158               276.0123
 Red. masses --      1.1704                 1.5613                 1.8157
 Frc consts  --      0.0402                 0.0581                 0.0815
 IR Inten    --      1.0623                 2.4414                 0.1685

                     16                     17                     18
                      A                      A                      A
 Frequencies --    297.7175               309.9439               351.2386
 Red. masses --      2.0319                 2.2983                 2.0627
 Frc consts  --      0.1061                 0.1301                 0.1499
 IR Inten    --      1.2518                 3.9547                 1.1378

                     19                     20                     21
                      A                      A                      A
 Frequencies --    372.0815               406.0476               434.1170
 Red. masses --      2.5411                 2.5338                 2.8559
 Frc consts  --      0.2073                 0.2461                 0.3171
 IR Inten    --      2.3679                 8.5978                 3.6344

                     22                     23                     24
                      A                      A                      A
 Frequencies --    467.6684               478.8092               534.5568
 Red. masses --      1.8364                 2.3132                 2.2966
 Frc consts  --      0.2366                 0.3125                 0.3867
 IR Inten    --     30.6918                 1.5925                 0.7416

                     25                     26                     27
                      A                      A                      A
 Frequencies --    612.9518               631.8880               765.2089
 Red. masses --      1.7782                 2.3722                 1.3102
 Frc consts  --      0.3936                 0.5581                 0.4520
 IR Inten    --     80.5296                14.8103                 5.9571

                     28                     29                     30
                      A                      A                      A
 Frequencies --    793.3241               802.2574               822.8656
 Red. masses --      1.4727                 1.3147                 1.5298
 Frc consts  --      0.5461                 0.4985                 0.6103
 IR Inten    --      1.3581                 7.2547                 2.9853

                     31                     32                     33
                      A                      A                      A
 Frequencies --    858.7245               898.1475               921.7026
 Red. masses --      1.7259                 2.4170                 2.5064
 Frc consts  --      0.7499                 1.1487                 1.2545
 IR Inten    --      4.9153                 1.8159                 5.3202

                     34                     35                     36
                      A                      A                      A
 Frequencies --    929.7254               965.3271               980.4348
 Red. masses --      1.9046                 1.8964                 2.1523
 Frc consts  --      0.9700                 1.0412                 1.2190
 IR Inten    --      3.3159                 3.8062                 5.8703

                     37                     38                     39
                      A                      A                      A
 Frequencies --   1029.5484              1032.7480              1042.6733
 Red. masses --      1.4634                 1.8178                 2.0441
 Frc consts  --      0.9139                 1.1423                 1.3093
 IR Inten    --      5.1843                 1.4417                 7.5870

                     40                     41                     42
                      A                      A                      A
 Frequencies --   1069.8396              1084.0695              1090.0840
 Red. masses --      2.0100                 1.7445                 1.9891
 Frc consts  --      1.3554                 1.2079                 1.3926
 IR Inten    --      2.7729                17.0813                 3.6242

                     43                     44                     45
                      A                      A                      A
 Frequencies --   1110.1870              1148.9828              1166.9572
 Red. masses --      2.1160                 2.1791                 3.5076
 Frc consts  --      1.5366                 1.6949                 2.8143
 IR Inten    --      0.8657                32.9739                99.9756

                     46                     47                     48
                      A                      A                      A
 Frequencies --   1172.8975              1179.3571              1186.0669
 Red. masses --      1.9497                 2.5007                 1.7437
 Frc consts  --      1.5803                 2.0493                 1.4452
 IR Inten    --     23.5699                21.1269                 4.0849

                     49                     50                     51
                      A                      A                      A
 Frequencies --   1197.0612              1205.2507              1229.8337
 Red. masses --      1.4262                 2.1112                 1.6956
 Frc consts  --      1.2041                 1.8069                 1.5110
 IR Inten    --      6.9579                28.7552                41.0666

                     52                     53                     54
                      A                      A                      A
 Frequencies --   1258.7412              1287.2845              1300.7024
 Red. masses --      1.3292                 1.2402                 1.3138
 Frc consts  --      1.2408                 1.2109                 1.3096
 IR Inten    --      8.7703                 1.5997                 3.9195

                     55                     56                     57
                      A                      A                      A
 Frequencies --   1307.2638              1319.8122              1331.9985
 Red. masses --      1.2643                 1.1429                 1.1625
 Frc consts  --      1.2730                 1.1730                 1.2152
 IR Inten    --      1.5825                 4.5879                 2.8394

                     58                     59                     60
                      A                      A                      A
 Frequencies --   1357.8754              1379.2082              1384.2408
 Red. masses --      1.2338                 1.3060                 1.4063
 Frc consts  --      1.3403                 1.4637                 1.5876
 IR Inten    --      1.2158                 9.9756                 2.3903

                     61                     62                     63
                      A                      A                      A
 Frequencies --   1399.9673              1412.6771              1414.4593
 Red. masses --      1.3753                 1.4865                 1.2979
 Frc consts  --      1.5881                 1.7479                 1.5299
 IR Inten    --      8.6003                 3.1345                16.3036

                     64                     65                     66
                      A                      A                      A
 Frequencies --   1416.9965              1437.7086              1440.6413
 Red. masses --      1.2772                 1.3079                 1.2397
 Frc consts  --      1.5110                 1.5928                 1.5160
 IR Inten    --      4.6489                28.2475                 2.0805

                     67                     68                     69
                      A                      A                      A
 Frequencies --   1445.0713              1447.7023              1502.1787
 Red. masses --      1.2944                 1.2957                 1.1335
 Frc consts  --      1.5926                 1.6000                 1.5071
 IR Inten    --     21.9319                 3.0444                 5.1850

                     70                     71                     72
                      A                      A                      A
 Frequencies --   1504.9493              1514.1943              1516.7632
 Red. masses --      1.1314                 1.0485                 1.0675
 Frc consts  --      1.5098                 1.4164                 1.4470
 IR Inten    --      5.6935                 4.5948                 5.2289

                     73                     74                     75
                      A                      A                      A
 Frequencies --   1519.0505              1524.4129              1527.3270
 Red. masses --      1.0752                 1.0475                 1.0502
 Frc consts  --      1.4618                 1.4342                 1.4435
 IR Inten    --      5.3012                 1.6381                 3.2651

                     76                     77                     78
                      A                      A                      A
 Frequencies --   1529.1696              1532.2659              1533.3968
 Red. masses --      1.1929                 1.0660                 1.0546
 Frc consts  --      1.6434                 1.4746                 1.4610
 IR Inten    --     14.5729                12.5256                 7.4070

                     79                     80                     81
                      A                      A                      A
 Frequencies --   1536.3492              1538.8986              1548.1375
 Red. masses --      1.0588                 1.0609                 1.0800
 Frc consts  --      1.4724                 1.4803                 1.5251
 IR Inten    --      0.8323                 0.9062                 0.1262

                     82                     83                     84
                      A                      A                      A
 Frequencies --   1550.9450              1559.7024              2975.7698
 Red. masses --      1.0745                 1.0913                 1.0509
 Frc consts  --      1.5229                 1.5642                 5.4827
 IR Inten    --      4.9360                 3.5553                31.2489

                     85                     86                     87
                      A                      A                      A
 Frequencies --   2979.5047              2990.6931              3001.5663
 Red. masses --      1.0706                 1.0424                 1.1045
 Frc consts  --      5.5996                 5.4933                 5.8628
 IR Inten    --     83.9081                89.8616                90.6526

                     88                     89                     90
                      A                      A                      A
 Frequencies --   3017.5903              3030.9774              3039.0970
 Red. masses --      1.0812                 1.1044                 1.0674
 Frc consts  --      5.8005                 5.9775                 5.8087
 IR Inten    --      7.5744                63.5911                10.7234

                     91                     92                     93
                      A                      A                      A
 Frequencies --   3044.6872              3045.0940              3050.4169
 Red. masses --      1.0389                 1.0502                 1.0543
 Frc consts  --      5.6744                 5.7374                 5.7802
 IR Inten    --     26.6158                 3.4416                 9.0033

                     94                     95                     96
                      A                      A                      A
 Frequencies --   3053.5924              3057.6889              3063.0948
 Red. masses --      1.0445                 1.0681                 1.0863
 Frc consts  --      5.7384                 5.8838                 6.0052
 IR Inten    --     28.3956                43.7728                63.9160

                     97                     98                     99
                      A                      A                      A
 Frequencies --   3064.8402              3086.3901              3092.6004
 Red. masses --      1.0767                 1.0913                 1.0948
 Frc consts  --      5.9586                 6.1248                 6.1692
 IR Inten    --     44.0406                26.1259                11.0644

                    100                    101                    102
                      A                      A                      A
 Frequencies --   3106.4587              3109.6389              3114.3813
 Red. masses --      1.1015                 1.1008                 1.0986
 Frc consts  --      6.2626                 6.2717                 6.2783
 IR Inten    --     41.2119                60.7920                19.9236

                    103                    104                    105
                      A                      A                      A
 Frequencies --   3115.4199              3120.6226              3124.3384
 Red. masses --      1.1000                 1.1013                 1.1011
 Frc consts  --      6.2904                 6.3190                 6.3325
 IR Inten    --     60.9619                59.9198                53.0606

                    106                    107                    108
                      A                      A                      A
 Frequencies --   3128.2056              3135.1745              3578.9639
 Red. masses --      1.1030                 1.0965                 1.0750
 Frc consts  --      6.3596                 6.3503                 8.1132
 IR Inten    --     30.4986                31.7258                 5.6850

 - Thermochemistry -
 -------------------
 Temperature   298.150 Kelvin.  Pressure   1.00000 Atm.
 Atom     1 has atomic number  6 and mass  12.00000

 Molecular mass:   187.19361 amu.
 Principal axes and moments of inertia in atomic units:
                           1         2         3
     Eigenvalues --  2521.765052950.515514519.91536
           X            0.99849  -0.05490  -0.00152
           Y            0.05490   0.99848   0.00373
           Z            0.00132  -0.00381   0.99999
 This molecule is an asymmetric top.
 Rotational symmetry number  1.
 Warning -- assumption of classical behavior for rotation
           may cause significant error
 Rotational temperatures (Kelvin)      0.03435     0.02936     0.01916
 Rotational constants (GHZ):           0.71567     0.61167     0.39929
 Zero-point vibrational energy     934962.4 (Joules/Mol)
                                  223.46139 (Kcal/Mol)
 Warning -- explicit consideration of  25 degrees of freedom as
           vibrations may cause significant error
 Vibrational temperatures:     50.61    66.30    98.66   124.17   152.69
          (Kelvin)            165.76   180.04   230.01   264.16   285.02
                              308.19   315.28   347.46   361.59   397.12
                              428.35   445.94   505.35   535.34   584.21
                              624.60   672.87   688.90   769.11   881.90
                              909.15  1100.96  1141.42  1154.27  1183.92
                             1235.51  1292.23  1326.12  1337.67  1388.89
                             1410.63  1481.29  1485.89  1500.17  1539.26
                             1559.73  1568.39  1597.31  1653.13  1678.99
                             1687.54  1696.83  1706.49  1722.30  1734.09
                             1769.46  1811.05  1852.12  1871.42  1880.86
                             1898.92  1916.45  1953.68  1984.37  1991.61
                             2014.24  2032.53  2035.09  2038.74  2068.54
                             2072.76  2079.14  2082.92  2161.30  2165.29
                             2178.59  2182.28  2185.57  2193.29  2197.48
                             2200.13  2204.59  2206.22  2210.46  2214.13
                             2227.42  2231.46  2244.06  4281.47  4286.84
                             4302.94  4318.58  4341.64  4360.90  4372.58
                             4380.63  4381.21  4388.87  4393.44  4399.33
                             4407.11  4409.62  4440.63  4449.56  4469.50
                             4474.08  4480.90  4482.39  4489.88  4495.23
                             4500.79  4510.82  5149.33

 Zero-point correction=                           0.356108 (Hartree/Particle)
 Thermal correction to Energy=                    0.372872
 Thermal correction to Enthalpy=                  0.373816
 Thermal correction to Gibbs Free Energy=         0.311988
 Sum of electronic and zero-point Energies=           -563.884372
 Sum of electronic and thermal Energies=              -563.867609
 Sum of electronic and thermal Enthalpies=            -563.866665
 Sum of electronic and thermal Free Energies=         -563.928492

                     E (Thermal)             CV                S
                      KCal/Mol        Cal/Mol-Kelvin    Cal/Mol-Kelvin
 Total                  233.980             61.563            130.127
 Electronic               0.000              0.000              0.000
 Translational            0.889              2.981             41.587
 Rotational               0.889              2.981             31.887
 Vibrational            232.203             55.601             56.654
 Vibration     1          0.594              1.982              5.514
 Vibration     2          0.595              1.979              4.979
 Vibration     3          0.598              1.969              4.194
 Vibration     4          0.601              1.959              3.742
 Vibration     5          0.605              1.944              3.339
 Vibration     6          0.608              1.937              3.179
 Vibration     7          0.610              1.928              3.020
 Vibration     8          0.622              1.892              2.551
 Vibration     9          0.631              1.862              2.291
 Vibration    10          0.637              1.843              2.151
 Vibration    11          0.644              1.819              2.008
 Vibration    12          0.647              1.812              1.966
 Vibration    13          0.658              1.777              1.792
 Vibration    14          0.663              1.761              1.721
 Vibration    15          0.678              1.718              1.558
 Vibration    16          0.691              1.678              1.430
 Vibration    17          0.699              1.655              1.363
 Vibration    18          0.728              1.573              1.161
 Vibration    19          0.744              1.529              1.071
 Vibration    20          0.771              1.457              0.941
 Vibration    21          0.795              1.396              0.845
 Vibration    22          0.825              1.322              0.744
 Vibration    23          0.835              1.297              0.713
 Vibration    24          0.890              1.174              0.577
 Vibration    25          0.972              1.004              0.428

 Optimization completed.
    -- Stationary point found.
 Normal termination of Gaussian 16 at Wed Dec  9 23:23:04 2020.

 ----------------------------------------------------------------------
 # B3LYP/6-311++G(d,p) empiricaldispersion=gd3bj scf=xqc pop=npa geom=c
 heck
 ----------------------------------------------------------------------

 --------------------------------------
 CID_80089952_JID_3386_Energie_neutraal
 --------------------------------------
 Structure from the checkpoint file:  "JID_3386.chk"
 Charge =  0 Multiplicity = 1

 SCF Done:  E(RB3LYP) =  -564.406758294     A.U. after   14 cycles
 Normal termination of Gaussian 16 at Wed Dec  9 23:27:56 2020.

 ----------------------------------------------------------------------
 # B3LYP/6-311++G(d,p) empiricaldispersion=gd3bj scf=xqc pop=npa geom=c
 heck
 ----------------------------------------------------------------------

 ------------------------------------
 CID_80089952_JID_3386_Energie_kation
 ------------------------------------
 Structure from the checkpoint file:  "JID_3386.chk"
 Charge =  1 Multiplicity = 2

 SCF Done:  E(UB3LYP) =  -564.128806119     A.U. after   22 cycles
 Normal termination of Gaussian 16 at Wed Dec  9 23:38:18 2020.
 Gaussian 16:  ES64L-G16RevA.03 25-Dec-2016

 ----------------------------------------------------------------------
 # B3LYP/6-311++G(d,p) empiricaldispersion=gd3bj scf=xqc pop=npa geom=c
 heck
 ----------------------------------------------------------------------

 -----------------------------------
 CID_80089952_JID_3386_Energie_anion
 -----------------------------------
 Structure from the checkpoint file:  "JID_3386.chk"
 Charge = -1 Multiplicity = 2

                         Standard orientation:
 ---------------------------------------------------------------------
 Center     Atomic      Atomic             Coordinates (Angstroms)
 Number     Number       Type             X           Y           Z
 ---------------------------------------------------------------------
      1          6           0       -0.499305   -3.506959    0.138015
      2          6           0       -0.397415   -2.132219    0.806633
      3          6           0       -0.362509   -0.943742   -0.177379
      4          6           0       -1.564171   -0.963246   -1.143973
      5          6           0       -2.944894   -0.946582   -0.478780
      6          6           0       -0.201206    0.410834    0.575804
      7          6           0        1.071514    0.444526    1.462489
      8          6           0        2.357760   -0.012040    0.782298
      9          8           0        2.535997    0.675544   -0.447942
     10          6           0        3.695325    0.256589   -1.131778
     11          7           0       -0.188591    1.603300   -0.271446
     12          6           0       -1.425369    2.301353   -0.590548
     13          6           0       -1.994247    3.044361    0.620711
     14          1           0       -1.453471   -3.644526   -0.380810
     15          1           0       -0.409525   -4.309091    0.879199
     16          1           0        0.301300   -3.643899   -0.599715
     17          1           0       -1.234759   -2.001131    1.505841
     18          1           0        0.507362   -2.120322    1.423378
     19          1           0        0.532270   -1.058491   -0.806670
     20          1           0       -1.473232   -0.113650   -1.828113
     21          1           0       -1.489574   -1.856570   -1.776098
     22          1           0       -3.068409   -0.087238    0.188805
     23          1           0       -3.737383   -0.892099   -1.233525
     24          1           0       -3.118688   -1.850958    0.114754
     25          1           0       -1.053032    0.519809    1.258462
     26          1           0        1.189946    1.478054    1.800165
     27          1           0        0.940814   -0.178450    2.356183
     28          1           0        3.218676    0.178653    1.445195
     29          1           0        2.337394   -1.097785    0.591663
     30          1           0        4.605529    0.443715   -0.539708
     31          1           0        3.658211   -0.817942   -1.375451
     32          1           0        3.751798    0.830615   -2.060303
     33          1           0        0.428915    1.479207   -1.064482
     34          1           0       -1.176443    3.035720   -1.366256
     35          1           0       -2.218401    1.664326   -1.017753
     36          1           0       -1.247317    3.732983    1.028689
     37          1           0       -2.888712    3.612889    0.339966
     38          1           0       -2.284003    2.351494    1.419279
 ---------------------------------------------------------------------

 SCF Done:  E(UB3LYP) =  -564.391014685     A.U. after   30 cycles

 The electronic state is 2-A.
 Alpha  occ. eigenvalues --  -19.02691 -14.18374 -10.11413 -10.11034 -10.09590
 Alpha  occ. eigenvalues --  -10.09435 -10.06626 -10.06458 -10.06378 -10.06321
 Alpha  occ. eigenvalues --  -10.06211 -10.05990 -10.05701  -0.93972  -0.80105
 Alpha  occ. eigenvalues --   -0.71339  -0.67683  -0.64640  -0.64031  -0.60243
 Alpha  occ. eigenvalues --   -0.57646  -0.54527  -0.52175  -0.50116  -0.47968
 Alpha  occ. eigenvalues --   -0.44747  -0.39971  -0.39406  -0.38068  -0.37214
 Alpha  occ. eigenvalues --   -0.36147  -0.35753  -0.35039  -0.33329  -0.32226
 Alpha  occ. eigenvalues --   -0.30940  -0.30576  -0.29505  -0.29193  -0.27896
 Alpha  occ. eigenvalues --   -0.27560  -0.26754  -0.26323  -0.25746  -0.25230
 Alpha  occ. eigenvalues --   -0.24500  -0.23856  -0.22734  -0.22017  -0.20843
 Alpha  occ. eigenvalues --   -0.20276  -0.16372  -0.11110   0.04407
 Alpha virt. eigenvalues --    0.06224   0.06705   0.07098   0.08201   0.08613
 Alpha virt. eigenvalues --    0.08920   0.09356   0.09471   0.10803   0.11120
 Alpha virt. eigenvalues --    0.11310   0.11532   0.11793   0.12245   0.13132

  Beta  occ. eigenvalues --  -19.02683 -14.18371 -10.11392 -10.10991 -10.09588
  Beta  occ. eigenvalues --  -10.09424 -10.06620 -10.06445 -10.06371 -10.06308
  Beta  occ. eigenvalues --  -10.06201 -10.05966 -10.05668  -0.93958  -0.80097
  Beta  occ. eigenvalues --   -0.71318  -0.67657  -0.64607  -0.64005  -0.60204
  Beta  occ. eigenvalues --   -0.57589  -0.54470  -0.52115  -0.50068  -0.47931
  Beta  occ. eigenvalues --   -0.44712  -0.39934  -0.39361  -0.38046  -0.37196
  Beta  occ. eigenvalues --   -0.36117  -0.35726  -0.35007  -0.33311  -0.32193
  Beta  occ. eigenvalues --   -0.30910  -0.30547  -0.29472  -0.29172  -0.27870
  Beta  occ. eigenvalues --   -0.27532  -0.26714  -0.26288  -0.25716  -0.25202
  Beta  occ. eigenvalues --   -0.24475  -0.23832  -0.22698  -0.21993  -0.20820
  Beta  occ. eigenvalues --   -0.20245  -0.16350  -0.11096
  Beta virt. eigenvalues --    0.06321   0.07060   0.07315   0.07536   0.08664
  Beta virt. eigenvalues --    0.09000   0.09412   0.09526   0.09952   0.11272
  Beta virt. eigenvalues --    0.11416   0.11667   0.11795   0.12047   0.12477

 Mulliken charges and spin densities:
               1          2
     1  C    1.232880  -1.927540
     2  C   -1.981117   1.609837
     3  C    1.684536  -0.901135
     4  C   -0.073539  -0.293816
     5  C    0.391651  -1.042234
     6  C   -1.689766   0.756891
     7  C    0.481609  -0.799943
     8  C   -0.524239   0.011511
     9  O   -0.138923   0.047366
    10  C    0.908380  -1.159366
    11  N    0.063373   0.048478
    12  C   -0.227716   0.112793
    13  C    0.029138  -0.464775
    14  H    0.005465   0.131546
    15  H   -0.310411   0.448766
    16  H   -0.360331   0.510244
    17  H   -0.133163   0.285967
    18  H    0.038743   0.071493
    19  H    0.556271  -0.315637
    20  H   -0.148742   0.301334
    21  H   -0.163372   0.333032
    22  H   -0.036391   0.200352
    23  H   -0.218492   0.365332
    24  H    0.005418   0.136254
    25  H    0.395256  -0.245851
    26  H    0.216677  -0.040817
    27  H   -0.245936   0.386558
    28  H   -0.365123   0.527388
    29  H    0.377216  -0.206805
    30  H   -0.366762   0.492473
    31  H   -0.424934   0.561380
    32  H   -0.259425   0.388012
    33  H    0.286864   0.026434
    34  H   -0.199301   0.335014
    35  H    0.296764  -0.187694
    36  H    0.127752   0.003124
    37  H   -0.159264   0.297900
    38  H   -0.071044   0.196130
 Sum of Mulliken charges =  -1.00000   1.00000

 Dipole moment (field-independent basis, Debye):
    X=             -2.8744    Y=              2.9788    Z=              1.4264  Tot=              4.3784
 Quadrupole moment (field-independent basis, Debye-Ang):
   XX=           -159.2423   YY=           -145.9107   ZZ=           -121.0635
   XY=              0.6612   XZ=              0.9811   YZ=              0.1991

 Summary of Natural Population Analysis:

                                       Natural Population
                Natural  -----------------------------------------------
    Atom  No    Charge         Core      Valence    Rydberg      Total
 -----------------------------------------------------------------------
      C    1   -0.28541      0.99966     2.28056    0.00518     3.28541
      C    2   -0.19306      0.99962     2.18446    0.00899     3.19306
      C    3   -0.11605      0.99957     2.10452    0.01196     3.11605
      C    4   -0.19241      0.99962     2.18358    0.00921     3.19241
      C    5   -0.29141      0.99966     2.28604    0.00571     3.29141
      C    6   -0.00530      0.99956     1.99253    0.01321     3.00530
      C    7   -0.19851      0.99960     2.18846    0.01045     3.19851
      C    8   -0.01017      0.99958     1.99836    0.01223     3.01017
      O    9   -0.30374      0.99988     3.29388    0.00998     4.30374
      C   10   -0.09614      0.99962     2.08723    0.00929     3.09614
      N   11   -0.35344      0.99972     2.84149    0.01224     3.85344
      C   12   -0.08591      0.99963     2.07598    0.01030     3.08591
      C   13   -0.28847      0.99966     2.28420    0.00461     3.28847
      H   14    0.09574      0.00000     0.40320    0.00106     0.40426
      H   15    0.09901      0.00000     0.40003    0.00096     0.40099
      H   16    0.09823      0.00000     0.40046    0.00132     0.40177
      H   17    0.09299      0.00000     0.40587    0.00114     0.40701
      H   18    0.09763      0.00000     0.40096    0.00141     0.40237
      H   19    0.09916      0.00000     0.39837    0.00247     0.40084
      H   20    0.09824      0.00000     0.40034    0.00142     0.40176
      H   21    0.09807      0.00000     0.40083    0.00110     0.40193
      H   22    0.09522      0.00000     0.40361    0.00117     0.40478
      H   23    0.09906      0.00000     0.39995    0.00099     0.40094
      H   24    0.09741      0.00000     0.40169    0.00090     0.40259
      H   25    0.09243      0.00000     0.40537    0.00220     0.40757
      H   26    0.10468      0.00000     0.39380    0.00152     0.39532
      H   27    0.09911      0.00000     0.39999    0.00090     0.40089
      H   28    0.08197      0.00000     0.41661    0.00142     0.41803
      H   29    0.07963      0.00000     0.41834    0.00202     0.42037
      H   30    0.07863      0.00000     0.41942    0.00195     0.42137
      H   31    0.08035      0.00000     0.41768    0.00197     0.41965
      H   32    0.08954      0.00000     0.40930    0.00116     0.41046
      H   33    0.18697      0.00000     0.30983    0.00320     0.31303
      H   34    0.09096      0.00000     0.40797    0.00107     0.40904
      H   35    0.07744      0.00000     0.42062    0.00194     0.42256
      H   36    0.09802      0.00000     0.40071    0.00127     0.40198
      H   37    0.09547      0.00000     0.40346    0.00107     0.40453
      H   38    0.09408      0.00000     0.40477    0.00115     0.40592
 =======================================================================
   * Total *    0.00000     12.99539    39.84447    0.16015    53.00000

 Normal termination of Gaussian 16 at Wed Dec  9 23:52:11 2020.
