 Gaussian 16, Revision A.03,

 -----------------------------------------------------------
 # opt freq B3LYP/6-31G(d) empiricaldispersion=gd3bj scf=xqc
 -----------------------------------------------------------

 ------------------------------
 CID_10176743_JID_6055_neutraal
 ------------------------------
 Symbolic Z-matrix:
 Charge =  0 Multiplicity = 1

 SCF Done:  E(RB3LYP) =  -684.772173824     A.U. after   14 cycles
 SCF Done:  E(RB3LYP) =  -684.774437297     A.U. after   12 cycles
 SCF Done:  E(RB3LYP) =  -684.774654002     A.U. after   11 cycles
 SCF Done:  E(RB3LYP) =  -684.774725073     A.U. after   10 cycles
 SCF Done:  E(RB3LYP) =  -684.774750368     A.U. after   10 cycles
 SCF Done:  E(RB3LYP) =  -684.774765640     A.U. after   10 cycles
 SCF Done:  E(RB3LYP) =  -684.774777141     A.U. after   11 cycles
 SCF Done:  E(RB3LYP) =  -684.774784665     A.U. after   10 cycles
 SCF Done:  E(RB3LYP) =  -684.774797716     A.U. after   10 cycles
 SCF Done:  E(RB3LYP) =  -684.774804641     A.U. after   10 cycles
 SCF Done:  E(RB3LYP) =  -684.774806147     A.U. after    9 cycles
 SCF Done:  E(RB3LYP) =  -684.774807434     A.U. after    9 cycles
 SCF Done:  E(RB3LYP) =  -684.774808655     A.U. after    9 cycles
 SCF Done:  E(RB3LYP) =  -684.774808813     A.U. after    7 cycles
 SCF Done:  E(RB3LYP) =  -684.774808831     A.U. after    6 cycles
 Optimization completed.
    -- Stationary point found.
 Normal termination of Gaussian 16 at Thu Dec 10 21:12:55 2020.

 --------------------------------------------------------------------
 #N Geom=AllCheck Guess=TCheck SCRF=Check GenChk RB3LYP/6-31G(d) Freq
 --------------------------------------------------------------------

 Structure from the checkpoint file:  "JID_6055.chk"
 ------------------------------
 CID_10176743_JID_6055_neutraal
 ------------------------------
 Charge =  0 Multiplicity = 1

 SCF Done:  E(RB3LYP) =  -684.774808831     A.U. after    1 cycles

  Exact polarizability: 184.676  -2.545 139.177 -21.493  -0.943  91.836
 Approx polarizability: 253.576  -5.895 244.704 -40.566  -3.697 145.814

                      1                      2                      3
                      A                      A                      A
 Frequencies --     13.9259                39.4228                65.3068
 Red. masses --      4.2684                 5.0414                 4.4837
 Frc consts  --      0.0005                 0.0046                 0.0113
 IR Inten    --      5.0775                 2.2067                 1.3482

                      4                      5                      6
                      A                      A                      A
 Frequencies --     97.5944               113.3992               194.6034
 Red. masses --      4.3935                 4.5803                 3.4256
 Frc consts  --      0.0247                 0.0347                 0.0764
 IR Inten    --      1.9967                 0.1010                 0.4171

                      7                      8                      9
                      A                      A                      A
 Frequencies --    254.9393               295.7870               317.4474
 Red. masses --      3.5698                 2.4026                 2.9596
 Frc consts  --      0.1367                 0.1238                 0.1757
 IR Inten    --      3.8198                 2.2652                 2.2633

                     10                     11                     12
                      A                      A                      A
 Frequencies --    341.0028               362.7836               427.9777
 Red. masses --      2.2027                 3.3468                 2.8697
 Frc consts  --      0.1509                 0.2595                 0.3097
 IR Inten    --      2.2741                 0.9164                 1.0068

                     13                     14                     15
                      A                      A                      A
 Frequencies --    455.6984               481.4838               508.0267
 Red. masses --      6.6704                 2.6900                 1.5475
 Frc consts  --      0.8161                 0.3674                 0.2353
 IR Inten    --      9.8612                12.1900                75.5471

                     16                     17                     18
                      A                      A                      A
 Frequencies --    523.1362               531.7367               596.4058
 Red. masses --      4.5701                 2.8553                 5.9377
 Frc consts  --      0.7369                 0.4757                 1.2444
 IR Inten    --      0.2587                10.9877                 0.2344

                     19                     20                     21
                      A                      A                      A
 Frequencies --    659.4083               680.7004               683.3597
 Red. masses --      2.9285                 2.4102                 3.0509
 Frc consts  --      0.7503                 0.6580                 0.8394
 IR Inten    --      5.3055                 2.9971                 8.8736

                     22                     23                     24
                      A                      A                      A
 Frequencies --    725.0819               757.3172               773.4442
 Red. masses --      5.0961                 2.8808                 3.0157
 Frc consts  --      1.5786                 0.9735                 1.0629
 IR Inten    --      1.0620                 3.6258                 1.9009

                     25                     26                     27
                      A                      A                      A
 Frequencies --    785.3393               810.8009               843.1130
 Red. masses --      1.6179                 2.2384                 1.5109
 Frc consts  --      0.5879                 0.8670                 0.6328
 IR Inten    --     14.3888                 6.8510                13.5001

                     28                     29                     30
                      A                      A                      A
 Frequencies --    861.1216               876.3946               892.6038
 Red. masses --      1.9186                 1.6695                 2.3150
 Frc consts  --      0.8382                 0.7555                 1.0867
 IR Inten    --      1.6592                 6.5814                 3.5365

                     31                     32                     33
                      A                      A                      A
 Frequencies --    933.4956               942.7611               968.1171
 Red. masses --      2.4319                 3.7969                 2.7102
 Frc consts  --      1.2486                 1.9883                 1.4966
 IR Inten    --     15.5552                 6.9129                 5.3131

                     34                     35                     36
                      A                      A                      A
 Frequencies --    977.9577               990.0746              1006.6482
 Red. masses --      1.4312                 2.0040                 2.2827
 Frc consts  --      0.8065                 1.1574                 1.3628
 IR Inten    --      0.1334                 2.1580                 5.1438

                     37                     38                     39
                      A                      A                      A
 Frequencies --   1032.7135              1093.5097              1098.8930
 Red. masses --      3.3135                 2.5841                 2.0269
 Frc consts  --      2.0821                 1.8206                 1.4421
 IR Inten    --     15.2088                 8.0359                 5.9641

                     40                     41                     42
                      A                      A                      A
 Frequencies --   1116.7694              1120.9968              1154.3626
 Red. masses --      1.6980                 1.5662                 2.2478
 Frc consts  --      1.2477                 1.1596                 1.7648
 IR Inten    --      2.0915                16.6882                11.1476

                     43                     44                     45
                      A                      A                      A
 Frequencies --   1166.1006              1186.2421              1194.8544
 Red. masses --      1.4056                 1.4165                 2.4345
 Frc consts  --      1.1261                 1.1744                 2.0478
 IR Inten    --      7.5485                 6.6271                13.0915

                     46                     47                     48
                      A                      A                      A
 Frequencies --   1226.4517              1254.7554              1261.8207
 Red. masses --      1.6711                 3.4586                 1.5477
 Frc consts  --      1.4810                 3.2082                 1.4519
 IR Inten    --      1.4901                 6.5296                 2.6026

                     49                     50                     51
                      A                      A                      A
 Frequencies --   1271.5138              1275.4267              1280.4773
 Red. masses --      2.0120                 1.7536                 1.7666
 Frc consts  --      1.9166                 1.6807                 1.7066
 IR Inten    --      4.0455                 2.5480                17.9804

                     52                     53                     54
                      A                      A                      A
 Frequencies --   1294.7005              1327.1136              1363.3197
 Red. masses --      1.3760                 1.3976                 1.4991
 Frc consts  --      1.3590                 1.4503                 1.6417
 IR Inten    --      1.4511                 5.2628                 4.5192

                     55                     56                     57
                      A                      A                      A
 Frequencies --   1375.0554              1390.7210              1403.5201
 Red. masses --      1.8705                 1.6373                 1.7830
 Frc consts  --      2.0837                 1.8657                 2.0693
 IR Inten    --      1.4568                 2.3274                15.0559

                     58                     59                     60
                      A                      A                      A
 Frequencies --   1404.8030              1419.2315              1446.2305
 Red. masses --      1.6026                 1.7298                 3.0082
 Frc consts  --      1.8634                 2.0528                 3.7071
 IR Inten    --      2.6720                 8.6405                45.0527

                     61                     62                     63
                      A                      A                      A
 Frequencies --   1447.5281              1499.5145              1500.9341
 Red. masses --      3.2237                 1.1639                 1.1161
 Frc consts  --      3.9798                 1.5419                 1.4814
 IR Inten    --     51.8823                 4.6507                 8.6033

                     64                     65                     66
                      A                      A                      A
 Frequencies --   1507.5056              1510.2610              1521.5603
 Red. masses --      2.1741                 3.5984                 1.1039
 Frc consts  --      2.9111                 4.8358                 1.5058
 IR Inten    --      3.6708                24.6151                10.3297

                     67                     68                     69
                      A                      A                      A
 Frequencies --   1528.2933              1600.1202              1620.1459
 Red. masses --      1.1149                 9.0788                 5.3205
 Frc consts  --      1.5343                13.6957                 8.2284
 IR Inten    --      4.3570                 1.1854                 1.8916

                     70                     71                     72
                      A                      A                      A
 Frequencies --   1623.5575              3027.2037              3032.6122
 Red. masses --      4.4112                 1.0716                 1.0686
 Frc consts  --      6.8508                 5.7857                 5.7904
 IR Inten    --      9.9413                26.8067                17.2197

                     73                     74                     75
                      A                      A                      A
 Frequencies --   3044.7330              3048.9589              3059.7580
 Red. masses --      1.0650                 1.0667                 1.0809
 Frc consts  --      5.8169                 5.8425                 5.9623
 IR Inten    --     20.9179                11.4769                45.0453

                     76                     77                     78
                      A                      A                      A
 Frequencies --   3084.5179              3089.6502              3091.9392
 Red. masses --      1.1006                 1.0942                 1.0908
 Frc consts  --      6.1696                 6.1544                 6.1440
 IR Inten    --     26.1271                30.5751                12.6257

                     79                     80                     81
                      A                      A                      A
 Frequencies --   3103.9956              3172.6846              3191.5928
 Red. masses --      1.0987                 1.0872                 1.0969
 Frc consts  --      6.2371                 6.4477                 6.5832
 IR Inten    --     33.2345                 5.4206                58.2495

                     82                     83                     84
                      A                      A                      A
 Frequencies --   3254.0141              3266.9144              3646.0518
 Red. masses --      1.0959                 1.0974                 1.0807
 Frc consts  --      6.8369                 6.9007                 8.4643
 IR Inten    --      8.7921                 2.4358                28.8658

 - Thermochemistry -
 -------------------
 Temperature   298.150 Kelvin.  Pressure   1.00000 Atm.
 Atom     1 has atomic number  6 and mass  12.00000

 Molecular mass:   214.12185 amu.
 Principal axes and moments of inertia in atomic units:
                           1         2         3
     Eigenvalues --  1269.892216374.646236853.11294
           X            1.00000   0.00031  -0.00299
           Y           -0.00029   0.99998   0.00631
           Z            0.00299  -0.00631   0.99998
 This molecule is an asymmetric top.
 Rotational symmetry number  1.
 Warning -- assumption of classical behavior for rotation
           may cause significant error
 Rotational temperatures (Kelvin)      0.06821     0.01359     0.01264
 Rotational constants (GHZ):           1.42118     0.28311     0.26335
 Zero-point vibrational energy     660470.5 (Joules/Mol)
                                  157.85624 (Kcal/Mol)
 Warning -- explicit consideration of  18 degrees of freedom as
           vibrations may cause significant error
 Vibrational temperatures:     20.04    56.72    93.96   140.42   163.16
          (Kelvin)            279.99   366.80   425.57   456.74   490.63
                              521.96   615.76   655.65   692.75   730.94
                              752.68   765.05   858.09   948.74   979.38
                              983.20  1043.23  1089.61  1112.81  1129.93
                             1166.56  1213.05  1238.96  1260.94  1284.26
                             1343.09  1356.42  1392.90  1407.06  1424.50
                             1448.34  1485.84  1573.32  1581.06  1606.78
                             1612.86  1660.87  1677.76  1706.74  1719.13
                             1764.59  1805.31  1815.48  1829.42  1835.05
                             1842.32  1862.79  1909.42  1961.51  1978.40
                             2000.94  2019.35  2021.20  2041.96  2080.80
                             2082.67  2157.47  2159.51  2168.96  2172.93
                             2189.19  2198.87  2302.22  2331.03  2335.94
                             4355.47  4363.25  4380.69  4386.77  4402.31
                             4437.93  4445.32  4448.61  4465.96  4564.79
                             4591.99  4681.80  4700.36  5245.86

 Zero-point correction=                           0.251560 (Hartree/Particle)
 Thermal correction to Energy=                    0.264278
 Thermal correction to Enthalpy=                  0.265222
 Thermal correction to Gibbs Free Energy=         0.210085
 Sum of electronic and zero-point Energies=           -684.523249
 Sum of electronic and thermal Energies=              -684.510531
 Sum of electronic and thermal Enthalpies=            -684.509587
 Sum of electronic and thermal Free Energies=         -684.564724

                     E (Thermal)             CV                S
                      KCal/Mol        Cal/Mol-Kelvin    Cal/Mol-Kelvin
 Total                  165.837             50.391            116.045
 Electronic               0.000              0.000              0.000
 Translational            0.889              2.981             41.988
 Rotational               0.889              2.981             32.384
 Vibrational            164.059             44.429             41.674
 Vibration     1          0.593              1.986              7.353
 Vibration     2          0.594              1.981              5.288
 Vibration     3          0.597              1.971              4.290
 Vibration     4          0.603              1.951              3.502
 Vibration     5          0.607              1.938              3.210
 Vibration     6          0.635              1.847              2.184
 Vibration     7          0.665              1.754              1.696
 Vibration     8          0.690              1.682              1.441
 Vibration     9          0.704              1.640              1.323
 Vibration    10          0.721              1.594              1.207
 Vibration    11          0.737              1.549              1.110
 Vibration    12          0.789              1.409              0.865
 Vibration    13          0.814              1.348              0.779
 Vibration    14          0.838              1.291              0.706
 Vibration    15          0.863              1.232              0.638
 Vibration    16          0.878              1.199              0.603
 Vibration    17          0.887              1.180              0.583
 Vibration    18          0.954              1.039              0.456

                           ! Non-Optimized Parameters !
 Normal termination of Gaussian 16 at Thu Dec 10 21:23:35 2020.

 ----------------------------------------------------------------------
 # B3LYP/6-311++G(d,p) empiricaldispersion=gd3bj scf=xqc pop=npa geom=c
 heck
 ----------------------------------------------------------------------

 --------------------------------------
 CID_10176743_JID_6055_Energie_neutraal
 --------------------------------------
 Structure from the checkpoint file:  "JID_6055.chk"
 Charge =  0 Multiplicity = 1

 SCF Done:  E(RB3LYP) =  -684.954459174     A.U. after   16 cycles
 Normal termination of Gaussian 16 at Thu Dec 10 21:28:15 2020.

 ----------------------------------------------------------------------
 # B3LYP/6-311++G(d,p) empiricaldispersion=gd3bj scf=xqc pop=npa geom=c
 heck
 ----------------------------------------------------------------------

 ------------------------------------
 CID_10176743_JID_6055_Energie_kation
 ------------------------------------
 Structure from the checkpoint file:  "JID_6055.chk"
 Charge =  1 Multiplicity = 2

 SCF Done:  E(UB3LYP) =  -684.654075506     A.U. after   29 cycles
 Normal termination of Gaussian 16 at Thu Dec 10 21:38:41 2020.
 Gaussian 16:  ES64L-G16RevA.03 25-Dec-2016

 ----------------------------------------------------------------------
 # B3LYP/6-311++G(d,p) empiricaldispersion=gd3bj scf=xqc pop=npa geom=c
 heck
 ----------------------------------------------------------------------

 -----------------------------------
 CID_10176743_JID_6055_Energie_anion
 -----------------------------------
 Structure from the checkpoint file:  "JID_6055.chk"
 Charge = -1 Multiplicity = 2

                         Standard orientation:
 ---------------------------------------------------------------------
 Center     Atomic      Atomic             Coordinates (Angstroms)
 Number     Number       Type             X           Y           Z
 ---------------------------------------------------------------------
      1          6           0       -0.266154    0.042956    1.621797
      2          6           0        0.585017   -1.109889    1.075639
      3          6           0        1.854232   -0.650795    0.395552
      4          7           0        2.763973   -1.593745    0.108379
      5          6           0        3.875954   -1.195808   -0.513261
      6          6           0        4.084228    0.139581   -0.859284
      7          7           0        3.182964    1.084823   -0.584355
      8          6           0        2.064542    0.697829    0.047576
      9          6           0        1.056427    1.772247    0.385464
     10          6           0       -0.353800    1.216299    0.632763
     11          6           0       -1.038357    0.835866   -0.703112
     12          6           0       -2.416623    0.280129   -0.536967
     13          6           0       -3.629298    0.867150   -0.254830
     14          7           0       -4.628679   -0.076539   -0.135072
     15          6           0       -4.037580   -1.233197   -0.340045
     16          7           0       -2.699514   -1.076160   -0.582901
     17          1           0        0.180209    0.410938    2.554583
     18          1           0       -1.268238   -0.319317    1.872465
     19          1           0        0.849610   -1.815268    1.870781
     20          1           0        0.009961   -1.700077    0.347748
     21          1           0        4.616270   -1.959389   -0.743277
     22          1           0        4.991683    0.453574   -1.371096
     23          1           0        1.062079    2.516402   -0.418874
     24          1           0        1.403340    2.296953    1.286953
     25          1           0       -0.963079    2.004299    1.091514
     26          1           0       -1.084794    1.735109   -1.328753
     27          1           0       -0.411192    0.122926   -1.253891
     28          1           0       -3.837659    1.922162   -0.134689
     29          1           0       -4.515309   -2.203539   -0.331364
     30          1           0       -2.035615   -1.807646   -0.792210
 ---------------------------------------------------------------------

 SCF Done:  E(UB3LYP) =  -684.959796012     A.U. after   33 cycles
 SCF Done:  E(UB3LYP) =  -684.959796012     a.u. after    1 cycles

 The electronic state is 2-A.
 Alpha  occ. eigenvalues --  -14.26512 -14.19693 -14.15395 -14.15204 -10.12409
 Alpha  occ. eigenvalues --  -10.10586 -10.08179 -10.07993 -10.07402 -10.06789
 Alpha  occ. eigenvalues --  -10.06419 -10.05953 -10.05935 -10.05771 -10.05522
 Alpha  occ. eigenvalues --  -10.05105  -0.91527  -0.82685  -0.77342  -0.75375
 Alpha  occ. eigenvalues --   -0.72826  -0.67265  -0.63108  -0.62551  -0.58323
 Alpha  occ. eigenvalues --   -0.53401  -0.51435  -0.50458  -0.48886  -0.48619
 Alpha  occ. eigenvalues --   -0.44514  -0.42434  -0.38652  -0.37128  -0.35932
 Alpha  occ. eigenvalues --   -0.35238  -0.34179  -0.33092  -0.32335  -0.31334
 Alpha  occ. eigenvalues --   -0.31303  -0.29984  -0.28939  -0.28078  -0.26750
 Alpha  occ. eigenvalues --   -0.26213  -0.24509  -0.23021  -0.21420  -0.20735
 Alpha  occ. eigenvalues --   -0.18687  -0.17835  -0.17743  -0.15325  -0.12803
 Alpha  occ. eigenvalues --   -0.11918  -0.09877   0.04368
 Alpha virt. eigenvalues --    0.06451   0.07931   0.09013   0.09252   0.09541
 Alpha virt. eigenvalues --    0.10324   0.10825   0.11141   0.11465   0.11646
 Alpha virt. eigenvalues --    0.12299   0.12505   0.13218   0.14007   0.14613

  Beta  occ. eigenvalues --  -14.26463 -14.19694 -14.14881 -14.14679 -10.12396
  Beta  occ. eigenvalues --  -10.10586 -10.08177 -10.07993 -10.07402 -10.06776
  Beta  occ. eigenvalues --  -10.06345 -10.05953 -10.05909 -10.05711 -10.05528
  Beta  occ. eigenvalues --  -10.05105  -0.91492  -0.82037  -0.77295  -0.74504
  Beta  occ. eigenvalues --   -0.72754  -0.67183  -0.63013  -0.62386  -0.58258
  Beta  occ. eigenvalues --   -0.53082  -0.51330  -0.50379  -0.48831  -0.48171
  Beta  occ. eigenvalues --   -0.44436  -0.42378  -0.38467  -0.37026  -0.35770
  Beta  occ. eigenvalues --   -0.35164  -0.34086  -0.33035  -0.32253  -0.31292
  Beta  occ. eigenvalues --   -0.31136  -0.29913  -0.28459  -0.27893  -0.26684
  Beta  occ. eigenvalues --   -0.26103  -0.23781  -0.22811  -0.21369  -0.20640
  Beta  occ. eigenvalues --   -0.18629  -0.17766  -0.15422  -0.14627  -0.12777
  Beta  occ. eigenvalues --   -0.11034  -0.09315
  Beta virt. eigenvalues --    0.07295   0.07983   0.08992   0.09131   0.09964
  Beta virt. eigenvalues --    0.10278   0.10585   0.10897   0.11192   0.11433
  Beta virt. eigenvalues --    0.11743   0.12337   0.12617   0.13209   0.13998

 Mulliken charges and spin densities:
               1          2
     1  C   -0.893736   0.212863
     2  C    0.570624  -0.489312
     3  C   -0.869707   0.117905
     4  N   -0.081917   0.279795
     5  C   -0.083853   0.070412
     6  C   -0.046710   0.070956
     7  N   -0.040674   0.239224
     8  C   -0.053458  -0.041562
     9  C   -0.899498  -0.048286
    10  C    0.985618   0.024161
    11  C   -0.652133  -0.898264
    12  C    0.821067   0.049210
    13  C   -0.678486   0.176833
    14  N   -0.151229   0.024590
    15  C    0.187920  -0.127873
    16  N   -0.086252  -0.049773
    17  H    0.141486   0.011885
    18  H    0.182246   0.001499
    19  H    0.207092  -0.034185
    20  H   -0.202953   0.340242
    21  H    0.120852   0.008380
    22  H    0.130382  -0.005348
    23  H    0.138124   0.015451
    24  H    0.134772   0.015815
    25  H    0.198375   0.000680
    26  H    0.157330   0.019768
    27  H    0.202237  -0.020033
    28  H    0.107518   0.000012
    29  H   -0.451269   0.609013
    30  H   -0.093767   0.425942
 Sum of Mulliken charges =  -1.00000   1.00000

 Dipole moment (field-independent basis, Debye):
    X=             -0.8736    Y=              3.4359    Z=              1.2310  Tot=              3.7528
 Quadrupole moment (field-independent basis, Debye-Ang):
   XX=           -175.1722   YY=           -122.7094   ZZ=           -107.4288
   XY=             -6.5422   XZ=              0.0450   YZ=              0.2112

 Summary of Natural Population Analysis:

                                       Natural Population
                Natural  -----------------------------------------------
    Atom  No    Charge         Core      Valence    Rydberg      Total
 -----------------------------------------------------------------------
      C    1   -0.18979      0.99962     2.18148    0.00870     3.18979
      C    2   -0.20490      0.99960     2.19382    0.01148     3.20490
      C    3    0.09131      0.99948     1.89538    0.01383     2.90869
      N    4   -0.15987      0.99967     2.64889    0.01131     3.65987
      C    5    0.00068      0.99960     1.98600    0.01372     2.99932
      C    6    0.00513      0.99960     1.98137    0.01390     2.99487
      N    7   -0.16683      0.99968     2.65308    0.01408     3.66683
      C    8    0.07944      0.99948     1.90579    0.01528     2.92056
      C    9   -0.19854      0.99959     2.19029    0.00866     3.19854
      C   10   -0.10114      0.99960     2.09101    0.01053     3.10114
      C   11   -0.21074      0.99958     2.20120    0.00995     3.21074
      C   12    0.05848      0.99953     1.92782    0.01417     2.94152
      C   13   -0.04166      0.99950     2.02993    0.01223     3.04166
      N   14   -0.25918      0.99973     2.74921    0.01024     3.75918
      C   15    0.09465      0.99966     1.88645    0.01924     2.90535
      N   16   -0.27105      0.99966     2.76060    0.01079     3.77105
      H   17    0.09568      0.00000     0.40338    0.00094     0.40432
      H   18    0.10098      0.00000     0.39811    0.00090     0.39902
      H   19    0.10603      0.00000     0.39271    0.00127     0.39397
      H   20    0.09715      0.00000     0.39941    0.00344     0.40285
      H   21    0.08014      0.00000     0.41839    0.00147     0.41986
      H   22    0.07957      0.00000     0.41887    0.00156     0.42043
      H   23    0.10407      0.00000     0.39477    0.00115     0.39593
      H   24    0.10196      0.00000     0.39711    0.00093     0.39804
      H   25    0.09403      0.00000     0.40471    0.00126     0.40597
      H   26    0.10639      0.00000     0.39265    0.00096     0.39361
      H   27    0.11005      0.00000     0.38839    0.00156     0.38995
      H   28    0.09404      0.00000     0.40507    0.00089     0.40596
      H   29    0.09300      0.00000     0.40543    0.00158     0.40700
      H   30    0.21094      0.00000     0.28340    0.00566     0.28906
 =======================================================================
   * Total *    0.00000     15.99359    40.78473    0.22168    57.00000

 Normal termination of Gaussian 16 at Thu Dec 10 21:52:47 2020.
