 Gaussian 16, Revision A.03,

 -----------------------------------------------------------
 # opt freq B3LYP/6-31G(d) empiricaldispersion=gd3bj scf=xqc
 -----------------------------------------------------------

 ------------------------------
 CID_69015863_JID_6665_neutraal
 ------------------------------
 Symbolic Z-matrix:
 Charge =  0 Multiplicity = 1

 SCF Done:  E(RB3LYP) =  -799.962193615     A.U. after   15 cycles
 SCF Done:  E(RB3LYP) =  -799.965524134     A.U. after   13 cycles
 SCF Done:  E(RB3LYP) =  -799.965347312     A.U. after   13 cycles
 SCF Done:  E(RB3LYP) =  -799.966730340     A.U. after   11 cycles
 SCF Done:  E(RB3LYP) =  -799.967105015     A.U. after   12 cycles
 SCF Done:  E(RB3LYP) =  -799.967233964     A.U. after   13 cycles
 SCF Done:  E(RB3LYP) =  -799.967747944     A.U. after   12 cycles
 SCF Done:  E(RB3LYP) =  -799.967731516     A.U. after   12 cycles
 SCF Done:  E(RB3LYP) =  -799.968142509     A.U. after   12 cycles
 SCF Done:  E(RB3LYP) =  -799.968280129     A.U. after   12 cycles
 SCF Done:  E(RB3LYP) =  -799.968695230     A.U. after   10 cycles
 SCF Done:  E(RB3LYP) =  -799.968696238     A.U. after    9 cycles
 SCF Done:  E(RB3LYP) =  -799.968696835     A.U. after    9 cycles
 SCF Done:  E(RB3LYP) =  -799.968697039     A.U. after    8 cycles
 SCF Done:  E(RB3LYP) =  -799.968697055     A.U. after    7 cycles
 Optimization completed.
    -- Stationary point found.
 Normal termination of Gaussian 16 at Fri Dec 11 00:29:16 2020.

 --------------------------------------------------------------------
 #N Geom=AllCheck Guess=TCheck SCRF=Check GenChk RB3LYP/6-31G(d) Freq
 --------------------------------------------------------------------

 Structure from the checkpoint file:  "JID_6665.chk"
 ------------------------------
 CID_69015863_JID_6665_neutraal
 ------------------------------
 Charge =  0 Multiplicity = 1

 SCF Done:  E(RB3LYP) =  -799.968697055     A.U. after    1 cycles

  Exact polarizability: 140.789   6.455 128.744   0.099  -5.949  98.181
 Approx polarizability: 192.433  12.068 204.590   1.436 -26.257 152.197

                      1                      2                      3
                      A                      A                      A
 Frequencies --     27.9464                34.3622                44.7158
 Red. masses --      9.3323                 8.7487                 4.6539
 Frc consts  --      0.0043                 0.0061                 0.0055
 IR Inten    --      0.6741                 1.0505                 0.5844

                      4                      5                      6
                      A                      A                      A
 Frequencies --     60.3303                74.8517                81.4523
 Red. masses --      3.8360                 4.6213                 5.1672
 Frc consts  --      0.0082                 0.0153                 0.0202
 IR Inten    --      0.8341                 2.3967                 2.2883

                      7                      8                      9
                      A                      A                      A
 Frequencies --    104.2426               126.7190               184.7052
 Red. masses --      6.3049                 5.6673                 3.2495
 Frc consts  --      0.0404                 0.0536                 0.0653
 IR Inten    --      0.4965                 0.4474                 1.0874

                     10                     11                     12
                      A                      A                      A
 Frequencies --    220.3638               226.8994               230.6577
 Red. masses --      1.5501                 2.6551                 1.9402
 Frc consts  --      0.0443                 0.0805                 0.0608
 IR Inten    --      0.1229                 1.4515                 0.1580

                     13                     14                     15
                      A                      A                      A
 Frequencies --    262.6410               299.6031               338.1291
 Red. masses --      1.2168                 2.7627                 5.8660
 Frc consts  --      0.0495                 0.1461                 0.3951
 IR Inten    --      0.2629                 0.7839                 0.6147

                     16                     17                     18
                      A                      A                      A
 Frequencies --    399.0603               417.4226               419.9815
 Red. masses --      2.5530                 4.3419                 2.2546
 Frc consts  --      0.2395                 0.4457                 0.2343
 IR Inten    --      1.1116                 4.7469                 3.4536

                     19                     20                     21
                      A                      A                      A
 Frequencies --    443.3115               495.5276               519.2127
 Red. masses --      3.5274                 3.3373                 2.3169
 Frc consts  --      0.4084                 0.4828                 0.3680
 IR Inten    --      5.2765                 7.8515                19.2502

                     22                     23                     24
                      A                      A                      A
 Frequencies --    572.6807               603.1936               623.1130
 Red. masses --      2.5647                 2.8462                 2.2457
 Frc consts  --      0.4956                 0.6101                 0.5137
 IR Inten    --     41.7769                 0.4013                83.5246

                     25                     26                     27
                      A                      A                      A
 Frequencies --    643.1925               684.9242               691.3767
 Red. masses --      2.0520                 6.5074                 2.1757
 Frc consts  --      0.5001                 1.7986                 0.6127
 IR Inten    --     17.1256                 9.1130                42.5807

                     28                     29                     30
                      A                      A                      A
 Frequencies --    699.2542               719.3747               821.5927
 Red. masses --      2.8271                 2.8058                 4.1859
 Frc consts  --      0.8145                 0.8555                 1.6648
 IR Inten    --     48.2524               127.5067                 1.0088

                     31                     32                     33
                      A                      A                      A
 Frequencies --    832.6001               860.4819               880.4119
 Red. masses --      3.9546                 1.4386                 4.3002
 Frc consts  --      1.6152                 0.6276                 1.9638
 IR Inten    --      9.0728                 5.9668                 8.1391

                     34                     35                     36
                      A                      A                      A
 Frequencies --    901.3811               903.8436               937.8293
 Red. masses --      2.8629                 3.9894                 2.3441
 Frc consts  --      1.3705                 1.9202                 1.2147
 IR Inten    --      5.5898                 0.4768                 3.1577

                     37                     38                     39
                      A                      A                      A
 Frequencies --    952.7951               959.5817               966.8820
 Red. masses --      1.1699                 2.0789                 1.5183
 Frc consts  --      0.6257                 1.1278                 0.8363
 IR Inten    --      1.3405                23.0409                 0.0180

                     40                     41                     42
                      A                      A                      A
 Frequencies --   1058.3363              1096.6733              1139.1088
 Red. masses --      3.1856                 1.7903                 1.7152
 Frc consts  --      2.1023                 1.2686                 1.3113
 IR Inten    --     33.5213                 8.1398                92.2198

                     43                     44                     45
                      A                      A                      A
 Frequencies --   1164.6298              1179.3971              1196.0352
 Red. masses --      2.1295                 2.0870                 2.6006
 Frc consts  --      1.7018                 1.7103                 2.1919
 IR Inten    --      2.3016                79.9626               116.6336

                     46                     47                     48
                      A                      A                      A
 Frequencies --   1222.9104              1227.3367              1266.7620
 Red. masses --      1.9208                 1.7536                 1.3041
 Frc consts  --      1.6925                 1.5563                 1.2329
 IR Inten    --     20.1595                58.5078                56.4288

                     49                     50                     51
                      A                      A                      A
 Frequencies --   1269.0526              1308.2354              1327.2377
 Red. masses --      1.3741                 4.3682                 1.4306
 Frc consts  --      1.3038                 4.4048                 1.4848
 IR Inten    --     28.3213                40.1265                 3.1907

                     52                     53                     54
                      A                      A                      A
 Frequencies --   1349.4407              1370.5597              1379.4125
 Red. masses --      1.5698                 1.3740                 2.5122
 Frc consts  --      1.6842                 1.5206                 2.8164
 IR Inten    --      6.9702                 0.6561                21.8841

                     55                     56                     57
                      A                      A                      A
 Frequencies --   1397.5313              1411.4859              1425.9821
 Red. masses --      3.1792                 1.8749                 1.5022
 Frc consts  --      3.6584                 2.2008                 1.7998
 IR Inten    --     55.6401                20.6565                 5.3870

                     58                     59                     60
                      A                      A                      A
 Frequencies --   1426.6576              1445.0271              1465.7966
 Red. masses --      2.7279                 1.3038                 2.2034
 Frc consts  --      3.2713                 1.6040                 2.7893
 IR Inten    --     43.6402                 5.5177                44.3272

                     61                     62                     63
                      A                      A                      A
 Frequencies --   1492.0539              1504.2133              1510.5842
 Red. masses --      1.1046                 1.1035                 1.0528
 Frc consts  --      1.4488                 1.4711                 1.4155
 IR Inten    --     20.3969                 7.0544                 0.5920

                     64                     65                     66
                      A                      A                      A
 Frequencies --   1519.8539              1522.5851              1526.2210
 Red. masses --      2.5441                 1.1323                 1.1791
 Frc consts  --      3.4625                 1.5466                 1.6182
 IR Inten    --     15.7495                 3.9079                 4.8562

                     67                     68                     69
                      A                      A                      A
 Frequencies --   1544.8637              1617.8672              1833.6622
 Red. masses --      1.1049                 6.7114                 9.3242
 Frc consts  --      1.5536                10.3502                18.4714
 IR Inten    --      2.3278                12.8050               335.8531

                     70                     71                     72
                      A                      A                      A
 Frequencies --   1846.9998              3062.0442              3066.2112
 Red. masses --      9.6787                 1.0347                 1.0356
 Frc consts  --     19.4537                 5.7159                 5.7363
 IR Inten    --    214.0983                19.1019                17.8403

                     73                     74                     75
                      A                      A                      A
 Frequencies --   3075.6094              3079.2289              3099.5212
 Red. masses --      1.0605                 1.0596                 1.0854
 Frc consts  --      5.9107                 5.9194                 6.1436
 IR Inten    --     16.2391                12.7756                 5.6026

                     76                     77                     78
                      A                      A                      A
 Frequencies --   3127.0521              3128.5891              3132.2800
 Red. masses --      1.1038                 1.1041                 1.1032
 Frc consts  --      6.3596                 6.3671                 6.3773
 IR Inten    --      2.5955                 6.3562                16.8002

                     79                     80                     81
                      A                      A                      A
 Frequencies --   3137.0367              3146.4048              3155.6166
 Red. masses --      1.1029                 1.1034                 1.1018
 Frc consts  --      6.3951                 6.4358                 6.4640
 IR Inten    --     35.7996                 8.7007                20.6160

                     82                     83                     84
                      A                      A                      A
 Frequencies --   3249.8741              3683.2547              3685.8915
 Red. masses --      1.0963                 1.0638                 1.0640
 Frc consts  --      6.8223                 8.5034                 8.5169
 IR Inten    --      8.8601                39.8184                60.4649

 - Thermochemistry -
 -------------------
 Temperature   298.150 Kelvin.  Pressure   1.00000 Atm.
 Atom     1 has atomic number  6 and mass  12.00000

 Molecular mass:   226.09536 amu.
 Principal axes and moments of inertia in atomic units:
                           1         2         3
     Eigenvalues --  2416.992854200.933255629.55618
           X            0.99999   0.00150   0.00499
           Y           -0.00156   0.99992   0.01264
           Z           -0.00497  -0.01265   0.99991
 This molecule is an asymmetric top.
 Rotational symmetry number  1.
 Warning -- assumption of classical behavior for rotation
           may cause significant error
 Rotational temperatures (Kelvin)      0.03584     0.02062     0.01539
 Rotational constants (GHZ):           0.74669     0.42960     0.32058
 Zero-point vibrational energy     640850.1 (Joules/Mol)
                                  153.16685 (Kcal/Mol)
 Warning -- explicit consideration of  23 degrees of freedom as
           vibrations may cause significant error
 Vibrational temperatures:     40.21    49.44    64.34    86.80   107.69
          (Kelvin)            117.19   149.98   182.32   265.75   317.05
                              326.46   331.87   377.88   431.06   486.49
                              574.16   600.58   604.26   637.83   712.95
                              747.03   823.96   867.86   896.52   925.41
                              985.45   994.74  1006.07  1035.02  1182.09
                             1197.93  1238.04  1266.72  1296.89  1300.43
                             1349.33  1370.86  1380.62  1391.13  1522.71
                             1577.87  1638.92  1675.64  1696.89  1720.83
                             1759.50  1765.86  1822.59  1825.88  1882.26
                             1909.60  1941.54  1971.93  1984.67  2010.74
                             2030.81  2051.67  2052.64  2079.07  2108.95
                             2146.73  2164.23  2173.39  2186.73  2190.66
                             2195.89  2222.71  2327.75  2638.23  2657.42
                             4405.60  4411.59  4425.12  4430.32  4459.52
                             4499.13  4501.34  4506.65  4513.50  4526.97
                             4540.23  4675.84  5299.38  5303.18

 Zero-point correction=                           0.244087 (Hartree/Particle)
 Thermal correction to Energy=                    0.260236
 Thermal correction to Enthalpy=                  0.261180
 Thermal correction to Gibbs Free Energy=         0.198406
 Sum of electronic and zero-point Energies=           -799.724610
 Sum of electronic and thermal Energies=              -799.708461
 Sum of electronic and thermal Enthalpies=            -799.707517
 Sum of electronic and thermal Free Energies=         -799.770291

                     E (Thermal)             CV                S
                      KCal/Mol        Cal/Mol-Kelvin    Cal/Mol-Kelvin
 Total                  163.301             58.527            132.120
 Electronic               0.000              0.000              0.000
 Translational            0.889              2.981             42.150
 Rotational               0.889              2.981             32.414
 Vibrational            161.523             52.565             57.556
 Vibration     1          0.593              1.984              5.970
 Vibration     2          0.594              1.983              5.560
 Vibration     3          0.595              1.980              5.038
 Vibration     4          0.597              1.973              4.446
 Vibration     5          0.599              1.966              4.022
 Vibration     6          0.600              1.962              3.856
 Vibration     7          0.605              1.946              3.373
 Vibration     8          0.611              1.926              2.995
 Vibration     9          0.631              1.861              2.280
 Vibration    10          0.647              1.810              1.956
 Vibration    11          0.651              1.800              1.903
 Vibration    12          0.652              1.794              1.874
 Vibration    13          0.670              1.741              1.644
 Vibration    14          0.692              1.674              1.419
 Vibration    15          0.718              1.599              1.221
 Vibration    16          0.765              1.472              0.966
 Vibration    17          0.780              1.432              0.901
 Vibration    18          0.783              1.427              0.892
 Vibration    19          0.803              1.376              0.816
 Vibration    20          0.851              1.260              0.669
 Vibration    21          0.874              1.207              0.612
 Vibration    22          0.929              1.090              0.499
 Vibration    23          0.962              1.025              0.444

 Optimization completed.
    -- Stationary point found.
 Normal termination of Gaussian 16 at Fri Dec 11 00:39:12 2020.

 ----------------------------------------------------------------------
 # B3LYP/6-311++G(d,p) empiricaldispersion=gd3bj scf=xqc pop=npa geom=c
 heck
 ----------------------------------------------------------------------

 --------------------------------------
 CID_69015863_JID_6665_Energie_neutraal
 --------------------------------------
 Structure from the checkpoint file:  "JID_6665.chk"
 Charge =  0 Multiplicity = 1

 SCF Done:  E(RB3LYP) =  -800.212376235     A.U. after   15 cycles
 Normal termination of Gaussian 16 at Fri Dec 11 00:43:03 2020.

 ----------------------------------------------------------------------
 # B3LYP/6-311++G(d,p) empiricaldispersion=gd3bj scf=xqc pop=npa geom=c
 heck
 ----------------------------------------------------------------------

 ------------------------------------
 CID_69015863_JID_6665_Energie_kation
 ------------------------------------
 Structure from the checkpoint file:  "JID_6665.chk"
 Charge =  1 Multiplicity = 2

 SCF Done:  E(UB3LYP) =  -799.898395433     A.U. after   25 cycles
 Normal termination of Gaussian 16 at Fri Dec 11 00:52:07 2020.
 Gaussian 16:  ES64L-G16RevA.03 25-Dec-2016

 ----------------------------------------------------------------------
 # B3LYP/6-311++G(d,p) empiricaldispersion=gd3bj scf=xqc pop=npa geom=c
 heck
 ----------------------------------------------------------------------

 -----------------------------------
 CID_69015863_JID_6665_Energie_anion
 -----------------------------------
 Structure from the checkpoint file:  "JID_6665.chk"
 Charge = -1 Multiplicity = 2

                         Standard orientation:
 ---------------------------------------------------------------------
 Center     Atomic      Atomic             Coordinates (Angstroms)
 Number     Number       Type             X           Y           Z
 ---------------------------------------------------------------------
      1          6           0        2.851926    0.234908    1.459559
      2          6           0        2.581014   -0.092252   -0.011675
      3          6           0        3.703861   -0.908139   -0.652782
      4          7           0        1.303719   -0.806618   -0.132710
      5          6           0        0.113933   -0.333948   -0.604589
      6          6           0       -0.813304   -1.352853   -0.414170
      7          6           0       -0.075681   -2.392330    0.191580
      8          7           0        1.202567   -2.060945    0.362823
      9          6           0       -2.277825   -1.340727   -0.763525
     10          6           0       -3.005396   -0.247778   -0.004126
     11          8           0       -3.190151    0.880529   -0.410617
     12          8           0       -3.402899   -0.655998    1.220416
     13          6           0       -0.058635    1.036765   -1.180627
     14          6           0        0.171396    2.166290   -0.190461
     15          8           0        0.808981    3.169850   -0.416243
     16          8           0       -0.432325    1.934038    0.999698
     17          1           0        2.952298   -0.690126    2.034631
     18          1           0        2.026717    0.815936    1.882456
     19          1           0        3.775344    0.815367    1.555454
     20          1           0        2.454924    0.841915   -0.566372
     21          1           0        3.811769   -1.867670   -0.140759
     22          1           0        3.489844   -1.102871   -1.708442
     23          1           0        4.649138   -0.360091   -0.583713
     24          1           0       -0.428578   -3.367692    0.501959
     25          1           0       -2.436793   -1.152743   -1.830295
     26          1           0       -2.718027   -2.310495   -0.515969
     27          1           0       -3.794909    0.126332    1.652382
     28          1           0        0.605108    1.219739   -2.030490
     29          1           0       -1.092135    1.135922   -1.529498
     30          1           0       -0.255297    2.722442    1.546726
 ---------------------------------------------------------------------

 SCF Done:  E(UB3LYP) =  -800.202378718     A.U. after   33 cycles
 SCF Done:  E(UB3LYP) =  -800.202378718     a.u. after    1 cycles

 The electronic state is 2-A.
 Alpha  occ. eigenvalues --  -19.07334 -19.07273 -19.02539 -19.01980 -14.29278
 Alpha  occ. eigenvalues --  -14.23313 -10.21798 -10.21269 -10.13187 -10.12263
 Alpha  occ. eigenvalues --  -10.10548 -10.10085 -10.09542 -10.08428 -10.07562
 Alpha  occ. eigenvalues --  -10.07124  -1.01718  -1.01426  -0.95733  -0.92923
 Alpha  occ. eigenvalues --   -0.92504  -0.76469  -0.73704  -0.69359  -0.65994
 Alpha  occ. eigenvalues --   -0.62950  -0.60479  -0.54205  -0.52835  -0.52409
 Alpha  occ. eigenvalues --   -0.48587  -0.46009  -0.43296  -0.40265  -0.39739
 Alpha  occ. eigenvalues --   -0.39403  -0.38899  -0.37475  -0.37104  -0.36534
 Alpha  occ. eigenvalues --   -0.35857  -0.34345  -0.33137  -0.32053  -0.31046
 Alpha  occ. eigenvalues --   -0.30951  -0.30547  -0.30019  -0.29435  -0.29334
 Alpha  occ. eigenvalues --   -0.28040  -0.26374  -0.26213  -0.23513  -0.22754
 Alpha  occ. eigenvalues --   -0.20374  -0.19857  -0.18744  -0.15839  -0.14518
 Alpha  occ. eigenvalues --    0.04170
 Alpha virt. eigenvalues --    0.06206   0.06697   0.07781   0.08072   0.08564
 Alpha virt. eigenvalues --    0.08755   0.09184   0.09333   0.09949   0.10004
 Alpha virt. eigenvalues --    0.11035   0.11631   0.12639   0.12815   0.13118

  Beta  occ. eigenvalues --  -19.07278 -19.07222 -19.02527 -19.01963 -14.29278
  Beta  occ. eigenvalues --  -14.23309 -10.21794 -10.21261 -10.13180 -10.12262
  Beta  occ. eigenvalues --  -10.10522 -10.10054 -10.09537 -10.08428 -10.07541
  Beta  occ. eigenvalues --  -10.07102  -1.01652  -1.01356  -0.95729  -0.92866
  Beta  occ. eigenvalues --   -0.92448  -0.76458  -0.73683  -0.69321  -0.65959
  Beta  occ. eigenvalues --   -0.62907  -0.60436  -0.54170  -0.52765  -0.52308
  Beta  occ. eigenvalues --   -0.48535  -0.45978  -0.43269  -0.40221  -0.39713
  Beta  occ. eigenvalues --   -0.39376  -0.38865  -0.37429  -0.37074  -0.36511
  Beta  occ. eigenvalues --   -0.35824  -0.34314  -0.33102  -0.32014  -0.31016
  Beta  occ. eigenvalues --   -0.30912  -0.30508  -0.29987  -0.29406  -0.29308
  Beta  occ. eigenvalues --   -0.28011  -0.26346  -0.26187  -0.23471  -0.22706
  Beta  occ. eigenvalues --   -0.20355  -0.19819  -0.18710  -0.15830  -0.14503
  Beta virt. eigenvalues --    0.06361   0.06979   0.07838   0.08161   0.08510
  Beta virt. eigenvalues --    0.08831   0.09192   0.09387   0.09567   0.10103
  Beta virt. eigenvalues --    0.10495   0.11232   0.11807   0.12723   0.12871

 Mulliken charges and spin densities:
               1          2
     1  C    0.507571  -1.000458
     2  C   -0.986151   0.969395
     3  C   -0.011612  -0.511606
     4  N    0.652134   0.078589
     5  C    1.043823  -1.673468
     6  C   -1.246285   2.535295
     7  C   -0.564906   0.158166
     8  N   -0.269994  -0.067898
     9  C    0.866055  -1.565787
    10  C   -0.113883   0.065341
    11  O   -0.269357   0.029553
    12  O   -0.190202   0.064067
    13  C    0.951223  -1.634493
    14  C   -0.083386  -0.194418
    15  O   -0.241888   0.044264
    16  O   -0.101835   0.003092
    17  H    0.079535   0.081726
    18  H   -0.011344   0.187886
    19  H   -0.126576   0.261130
    20  H    0.193428  -0.020808
    21  H    0.134381   0.029556
    22  H   -0.139130   0.294253
    23  H   -0.104955   0.250467
    24  H   -0.112935   0.264615
    25  H   -0.362706   0.582206
    26  H    0.108882   0.069388
    27  H   -0.412668   0.722548
    28  H   -0.291652   0.557866
    29  H    0.415231  -0.211339
    30  H   -0.310796   0.630871
 Sum of Mulliken charges =  -1.00000   1.00000

 Dipole moment (field-independent basis, Debye):
    X=              2.3326    Y=             -2.9784    Z=             -2.1132  Tot=              4.3333
 Quadrupole moment (field-independent basis, Debye-Ang):
   XX=           -155.2689   YY=           -139.3811   ZZ=           -133.4320
   XY=              1.7064   XZ=              7.6431   YZ=             -4.3571

 Summary of Natural Population Analysis:

                                       Natural Population
                Natural  -----------------------------------------------
    Atom  No    Charge         Core      Valence    Rydberg      Total
 -----------------------------------------------------------------------
      C    1   -0.28859      0.99964     2.28291    0.00603     3.28859
      C    2   -0.00853      0.99960     1.99651    0.01243     3.00853
      C    3   -0.28579      0.99964     2.28137    0.00478     3.28579
      N    4   -0.10811      0.99960     2.59340    0.01512     3.60811
      C    5    0.09420      0.99945     1.89324    0.01311     2.90580
      C    6   -0.07001      0.99944     2.05928    0.01130     3.07001
      C    7   -0.00342      0.99956     1.99048    0.01338     3.00342
      N    8   -0.15457      0.99973     2.64381    0.01103     3.65457
      C    9   -0.24101      0.99955     2.23214    0.00932     3.24101
      C   10    0.41248      0.99973     1.56181    0.02598     2.58752
      O   11   -0.30919      0.99987     3.30253    0.00679     4.30919
      O   12   -0.34056      0.99987     3.33400    0.00668     4.34056
      C   13   -0.26145      0.99954     2.25279    0.00912     3.26145
      C   14    0.40928      0.99973     1.56502    0.02597     2.59072
      O   15   -0.30528      0.99987     3.29924    0.00617     4.30528
      O   16   -0.33798      0.99987     3.33023    0.00787     4.33798
      H   17    0.10471      0.00000     0.39422    0.00107     0.39529
      H   18    0.10769      0.00000     0.39096    0.00134     0.39231
      H   19    0.09986      0.00000     0.39936    0.00078     0.40014
      H   20    0.10243      0.00000     0.39531    0.00226     0.39757
      H   21    0.10718      0.00000     0.39148    0.00135     0.39282
      H   22    0.10304      0.00000     0.39581    0.00115     0.39696
      H   23    0.09991      0.00000     0.39919    0.00089     0.40009
      H   24    0.09701      0.00000     0.40205    0.00094     0.40299
      H   25    0.11422      0.00000     0.38422    0.00157     0.38578
      H   26    0.11559      0.00000     0.38299    0.00142     0.38441
      H   27    0.24620      0.00000     0.24034    0.01346     0.25380
      H   28    0.11808      0.00000     0.38056    0.00136     0.38192
      H   29    0.13666      0.00000     0.36163    0.00171     0.36334
      H   30    0.24593      0.00000     0.24206    0.01201     0.25407
 =======================================================================
   * Total *   -0.00000     15.99468    43.77894    0.22638    60.00000

 Normal termination of Gaussian 16 at Fri Dec 11 01:03:31 2020.
