 Gaussian 16, Revision A.03,

 -----------------------------------------------------------
 # opt freq B3LYP/6-31G(d) empiricaldispersion=gd3bj scf=xqc
 -----------------------------------------------------------

 ------------------------------
 CID_54534963_JID_1264_neutraal
 ------------------------------
 Symbolic Z-matrix:
 Charge =  0 Multiplicity = 1

 SCF Done:  E(RB3LYP) =  -567.307450855     A.U. after   16 cycles
 SCF Done:  E(RB3LYP) =  -567.310392993     A.U. after   15 cycles
 SCF Done:  E(RB3LYP) =  -567.302646324     A.U. after   16 cycles
 SCF Done:  E(RB3LYP) =  -567.312503185     A.U. after   14 cycles
 SCF Done:  E(RB3LYP) =  -567.312745123     A.U. after   14 cycles
 SCF Done:  E(RB3LYP) =  -567.312921243     A.U. after   13 cycles
 SCF Done:  E(RB3LYP) =  -567.313010520     A.U. after   13 cycles
 SCF Done:  E(RB3LYP) =  -567.313048863     A.U. after   14 cycles
 SCF Done:  E(RB3LYP) =  -567.313056274     A.U. after   10 cycles
 SCF Done:  E(RB3LYP) =  -567.313059457     A.U. after   13 cycles
 SCF Done:  E(RB3LYP) =  -567.313060654     A.U. after   12 cycles
 SCF Done:  E(RB3LYP) =  -567.313060710     A.U. after    9 cycles
 SCF Done:  E(RB3LYP) =  -567.313060755     A.U. after    8 cycles
 Optimization completed.
    -- Stationary point found.
 Normal termination of Gaussian 16 at Tue Dec  8 19:34:32 2020.

 --------------------------------------------------------------------
 #N Geom=AllCheck Guess=TCheck SCRF=Check GenChk RB3LYP/6-31G(d) Freq
 --------------------------------------------------------------------

 Structure from the checkpoint file:  "JID_1264.chk"
 ------------------------------
 CID_54534963_JID_1264_neutraal
 ------------------------------
 Charge =  0 Multiplicity = 1

 SCF Done:  E(RB3LYP) =  -567.313060755     A.U. after    1 cycles

  Exact polarizability:  93.883  -9.810  99.233  -7.943  -8.112  51.028
 Approx polarizability: 132.299 -16.440 191.604 -13.478 -30.991  92.655

                      1                      2                      3
                      A                      A                      A
 Frequencies --     34.4133                71.0101                83.5258
 Red. masses --     12.7728                 5.3872                 5.7984
 Frc consts  --      0.0089                 0.0160                 0.0238
 IR Inten    --      0.5990                 1.0001                 3.8609

                      4                      5                      6
                      A                      A                      A
 Frequencies --    136.8806               181.1180               214.9442
 Red. masses --      5.9267                 4.5777                 5.7746
 Frc consts  --      0.0654                 0.0885                 0.1572
 IR Inten    --      0.7906                 0.2344                 3.5369

                      7                      8                      9
                      A                      A                      A
 Frequencies --    362.7228               432.1925               506.5739
 Red. masses --      4.9369                 3.8954                 4.9529
 Frc consts  --      0.3827                 0.4287                 0.7488
 IR Inten    --      2.5205                 5.1655                 7.3486

                     10                     11                     12
                      A                      A                      A
 Frequencies --    549.0297               578.0608               607.1910
 Red. masses --      7.0933                 3.8022                 3.1093
 Frc consts  --      1.2598                 0.7486                 0.6754
 IR Inten    --      6.9270                13.0053                 7.7548

                     13                     14                     15
                      A                      A                      A
 Frequencies --    669.6268               685.3669               764.0900
 Red. masses --      4.3511                 4.3892                 1.2763
 Frc consts  --      1.1495                 1.2147                 0.4390
 IR Inten    --      8.4428                26.8369                40.6514

                     16                     17                     18
                      A                      A                      A
 Frequencies --    796.2497               843.3076               897.7229
 Red. masses --      6.4563                 1.2903                 1.3657
 Frc consts  --      2.4117                 0.5407                 0.6484
 IR Inten    --      3.3366                23.5793                17.2206

                     19                     20                     21
                      A                      A                      A
 Frequencies --    908.8807               918.5441               938.8810
 Red. masses --      6.2539                 4.2690                 4.0466
 Frc consts  --      3.0438                 2.1222                 2.1016
 IR Inten    --      8.6836                25.7555                 5.0815

                     22                     23                     24
                      A                      A                      A
 Frequencies --    952.1349              1016.9156              1053.7818
 Red. masses --      1.6707                 1.9063                 1.5670
 Frc consts  --      0.8924                 1.1615                 1.0252
 IR Inten    --     26.1856                29.9990                61.4793

                     25                     26                     27
                      A                      A                      A
 Frequencies --   1073.2715              1126.8204              1197.0820
 Red. masses --      1.7009                 2.8057                 1.9031
 Frc consts  --      1.1544                 2.0989                 1.6068
 IR Inten    --     11.7686                 9.4303                 4.3712

                     28                     29                     30
                      A                      A                      A
 Frequencies --   1224.0929              1255.4911              1276.7441
 Red. masses --      1.1523                 2.8775                 1.5482
 Frc consts  --      1.0173                 2.6724                 1.4870
 IR Inten    --      5.8953                16.5663                 3.5112

                     31                     32                     33
                      A                      A                      A
 Frequencies --   1334.4060              1400.3117              1427.2783
 Red. masses --      1.3540                 2.6284                 6.5141
 Frc consts  --      1.4205                 3.0366                 7.8185
 IR Inten    --      2.7842                72.2312                91.4888

                     34                     35                     36
                      A                      A                      A
 Frequencies --   1453.4618              1486.1447              1521.0932
 Red. masses --      3.2437                 1.1049                 4.9723
 Frc consts  --      4.0374                 1.4378                 6.7783
 IR Inten    --     83.0877                19.4564                43.6429

                     37                     38                     39
                      A                      A                      A
 Frequencies --   1618.9809              1673.5640              1705.8880
 Red. masses --      5.4030                10.4974                 9.5481
 Frc consts  --      8.3439                17.3228                16.3708
 IR Inten    --      1.9369               211.6327                98.3791

                     40                     41                     42
                      A                      A                      A
 Frequencies --   3128.3135              3198.4950              3274.7725
 Red. masses --      1.0565                 1.1110                 1.0913
 Frc consts  --      6.0919                 6.6966                 6.8952
 IR Inten    --      1.1658                 0.8900                 1.6583

                     43                     44                     45
                      A                      A                      A
 Frequencies --   3285.6847              3306.5184              3431.5147
 Red. masses --      1.0978                 1.1053                 1.0739
 Frc consts  --      6.9829                 7.1201                 7.4507
 IR Inten    --      1.0368                 0.4079                 2.5024

 - Thermochemistry -
 -------------------
 Temperature   298.150 Kelvin.  Pressure   1.00000 Atm.
 Atom     1 has atomic number  6 and mass  12.00000

 Molecular mass:   154.03784 amu.
 Principal axes and moments of inertia in atomic units:
                           1         2         3
     Eigenvalues --   939.686692126.057582723.21161
           X            0.99958  -0.02596  -0.01317
           Y            0.02591   0.99966  -0.00417
           Z            0.01327   0.00383   0.99990
 This molecule is an asymmetric top.
 Rotational symmetry number  1.
 Warning -- assumption of classical behavior for rotation
           may cause significant error
 Rotational temperatures (Kelvin)      0.09217     0.04074     0.03181
 Rotational constants (GHZ):           1.92058     0.84887     0.66273
 Zero-point vibrational energy     326599.0 (Joules/Mol)
                                   78.05904 (Kcal/Mol)
 Warning -- explicit consideration of  12 degrees of freedom as
           vibrations may cause significant error
 Vibrational temperatures:     49.51   102.17   120.18   196.94   260.59
          (Kelvin)            309.26   521.88   621.83   728.85   789.93
                              831.70   873.61   963.44   986.09  1099.36
                             1145.63  1213.33  1291.62  1307.68  1321.58
                             1350.84  1369.91  1463.11  1516.16  1544.20
                             1621.24  1722.33  1761.20  1806.37  1836.95
                             1919.91  2014.74  2053.54  2091.21  2138.23
                             2188.51  2329.35  2407.89  2454.39  4500.95
                             4601.92  4711.67  4727.37  4757.34  4937.18

 Zero-point correction=                           0.124395 (Hartree/Particle)
 Thermal correction to Energy=                    0.133761
 Thermal correction to Enthalpy=                  0.134705
 Thermal correction to Gibbs Free Energy=         0.088006
 Sum of electronic and zero-point Energies=           -567.188666
 Sum of electronic and thermal Energies=              -567.179300
 Sum of electronic and thermal Enthalpies=            -567.178356
 Sum of electronic and thermal Free Energies=         -567.225055

                     E (Thermal)             CV                S
                      KCal/Mol        Cal/Mol-Kelvin    Cal/Mol-Kelvin
 Total                   83.936             33.605             98.286
 Electronic               0.000              0.000              0.000
 Translational            0.889              2.981             41.006
 Rotational               0.889              2.981             30.077
 Vibrational             82.159             27.644             27.203
 Vibration     1          0.594              1.983              5.557
 Vibration     2          0.598              1.968              4.125
 Vibration     3          0.600              1.961              3.806
 Vibration     4          0.614              1.916              2.847
 Vibration     5          0.630              1.865              2.317
 Vibration     6          0.645              1.818              2.001
 Vibration     7          0.737              1.549              1.110
 Vibration     8          0.793              1.400              0.852
 Vibration     9          0.862              1.235              0.642
 Vibration    10          0.904              1.142              0.546
 Vibration    11          0.935              1.079              0.489
 Vibration    12          0.966              1.017              0.437

 Optimization completed.
    -- Stationary point found.
 Normal termination of Gaussian 16 at Tue Dec  8 19:37:38 2020.

 ----------------------------------------------------------------------
 # B3LYP/6-311++G(d,p) empiricaldispersion=gd3bj scf=xqc pop=npa geom=c
 heck
 ----------------------------------------------------------------------

 --------------------------------------
 CID_54534963_JID_1264_Energie_neutraal
 --------------------------------------
 Structure from the checkpoint file:  "JID_1264.chk"
 Charge =  0 Multiplicity = 1

 SCF Done:  E(RB3LYP) =  -567.481949529     A.U. after   15 cycles
 Normal termination of Gaussian 16 at Tue Dec  8 19:38:55 2020.

 ----------------------------------------------------------------------
 # B3LYP/6-311++G(d,p) empiricaldispersion=gd3bj scf=xqc pop=npa geom=c
 heck
 ----------------------------------------------------------------------

 ------------------------------------
 CID_54534963_JID_1264_Energie_kation
 ------------------------------------
 Structure from the checkpoint file:  "JID_1264.chk"
 Charge =  1 Multiplicity = 2

 SCF Done:  E(UB3LYP) =  -567.145477577     A.U. after   25 cycles
 Normal termination of Gaussian 16 at Tue Dec  8 19:41:52 2020.
 Gaussian 16:  ES64L-G16RevA.03 25-Dec-2016

 ----------------------------------------------------------------------
 # B3LYP/6-311++G(d,p) empiricaldispersion=gd3bj scf=xqc pop=npa geom=c
 heck
 ----------------------------------------------------------------------

 -----------------------------------
 CID_54534963_JID_1264_Energie_anion
 -----------------------------------
 Structure from the checkpoint file:  "JID_1264.chk"
 Charge = -1 Multiplicity = 2

                         Standard orientation:
 ---------------------------------------------------------------------
 Center     Atomic      Atomic             Coordinates (Angstroms)
 Number     Number       Type             X           Y           Z
 ---------------------------------------------------------------------
      1          6           0        2.350093   -1.457693    0.065100
      2          6           0        2.940923   -0.292829   -0.328857
      3          8           0        2.055193    0.736070   -0.275228
      4          6           0        0.861402    0.219879    0.164164
      5          6           0        0.998774   -1.127521    0.386845
      6          6           0       -0.246547    1.154151    0.309735
      7          7           0       -0.207900    2.416522    0.104553
      8          6           0       -1.558645    0.572504    0.794172
      9          7           0       -2.081259   -0.474795   -0.164772
     10          8           0       -2.297130   -1.597629    0.287141
     11          8           0       -2.256281   -0.123350   -1.323501
     12          1           0        2.815749   -2.431199    0.117570
     13          1           0        3.934689   -0.037479   -0.663213
     14          1           0        0.223917   -1.801600    0.722605
     15          1           0        0.734830    2.696417   -0.188816
     16          1           0       -1.474195    0.080224    1.762915
     17          1           0       -2.301124    1.369872    0.816216
 ---------------------------------------------------------------------

 SCF Done:  E(UB3LYP) =  -567.508064245     A.U. after   29 cycles

 The electronic state is 2-A.
 Alpha  occ. eigenvalues --  -19.05566 -18.96863 -18.96450 -14.33632 -14.13594
 Alpha  occ. eigenvalues --  -10.09490 -10.08728 -10.07002 -10.06869 -10.05094
 Alpha  occ. eigenvalues --  -10.03557  -1.04290  -0.98436  -0.87360  -0.76211
 Alpha  occ. eigenvalues --   -0.67643  -0.64302  -0.62012  -0.49734  -0.47512
 Alpha  occ. eigenvalues --   -0.45298  -0.42312  -0.39583  -0.36990  -0.35605
 Alpha  occ. eigenvalues --   -0.34191  -0.33174  -0.32830  -0.29591  -0.27780
 Alpha  occ. eigenvalues --   -0.27274  -0.25575  -0.24665  -0.19472  -0.16099
 Alpha  occ. eigenvalues --   -0.14860  -0.13640  -0.12366  -0.11711  -0.10225
 Alpha  occ. eigenvalues --    0.03970
 Alpha virt. eigenvalues --    0.08109   0.08452   0.10345   0.11033   0.12963
 Alpha virt. eigenvalues --    0.13047   0.14346   0.14789   0.16251   0.17291
 Alpha virt. eigenvalues --    0.17778   0.18317   0.19513   0.20073   0.20708

  Beta  occ. eigenvalues --  -19.05425 -18.96633 -18.96035 -14.33014 -14.13217
  Beta  occ. eigenvalues --  -10.09317 -10.08691 -10.07045 -10.06707 -10.05158
  Beta  occ. eigenvalues --  -10.03421  -1.03435  -0.98199  -0.86741  -0.75596
  Beta  occ. eigenvalues --   -0.67459  -0.63812  -0.61707  -0.48906  -0.47375
  Beta  occ. eigenvalues --   -0.44713  -0.42146  -0.39114  -0.36000  -0.34973
  Beta  occ. eigenvalues --   -0.33024  -0.32631  -0.32210  -0.29488  -0.27610
  Beta  occ. eigenvalues --   -0.27142  -0.25144  -0.24385  -0.17958  -0.15527
  Beta  occ. eigenvalues --   -0.13298  -0.12623  -0.11919  -0.11375  -0.08981
  Beta virt. eigenvalues --    0.08375   0.09544   0.10274   0.10927   0.11702
  Beta virt. eigenvalues --    0.13013   0.13458   0.14474   0.15317   0.16344
  Beta virt. eigenvalues --    0.17275   0.17743   0.18283   0.19519   0.20186

 Mulliken charges and spin densities:
               1          2
     1  C   -0.492591  -0.105594
     2  C   -0.009438   0.175001
     3  O   -0.084514   0.027507
     4  C   -0.368900  -0.027068
     5  C    0.191059   0.199452
     6  C   -0.102492   0.091854
     7  N   -0.376338   0.219082
     8  C   -0.245240  -0.115096
     9  N   -0.063824   0.184532
    10  O   -0.181511   0.103985
    11  O   -0.173266   0.155884
    12  H    0.123935   0.003284
    13  H    0.133633  -0.003586
    14  H    0.184062   0.004312
    15  H    0.193561  -0.006983
    16  H    0.115421   0.039367
    17  H    0.156442   0.054067
 Sum of Mulliken charges =  -1.00000   1.00000

 Dipole moment (field-independent basis, Debye):
    X=              5.1873    Y=             -0.7230    Z=              2.0031  Tot=              5.6074
 Quadrupole moment (field-independent basis, Debye-Ang):
   XX=            -85.5865   YY=            -84.7837   ZZ=            -73.9120
   XY=             -4.7581   XZ=             -6.8640   YZ=             -0.9167

 Summary of Natural Population Analysis:

                                       Natural Population
                Natural  -----------------------------------------------
    Atom  No    Charge         Core      Valence    Rydberg      Total
 -----------------------------------------------------------------------
      C    1   -0.17430      0.99958     2.16616    0.00856     3.17430
      C    2    0.08782      0.99954     1.89837    0.01427     2.91218
      O    3   -0.22741      0.99986     3.21836    0.00919     4.22741
      C    4    0.12481      0.99942     1.86264    0.01313     2.87519
      C    5   -0.11339      0.99953     2.10613    0.00773     3.11339
      C    6    0.12196      0.99959     1.86413    0.01432     2.87804
      N    7   -0.26293      0.99972     2.75481    0.00840     3.76293
      C    8   -0.13548      0.99955     2.12249    0.01344     3.13548
      N    9    0.30863      0.99979     2.16439    0.02719     3.19137
      O   10   -0.22286      0.99989     3.21430    0.00867     4.22286
      O   11   -0.18031      0.99989     3.17160    0.00882     4.18031
      H   12    0.10100      0.00000     0.39811    0.00089     0.39900
      H   13    0.08477      0.00000     0.41427    0.00096     0.41523
      H   14    0.11674      0.00000     0.38219    0.00107     0.38326
      H   15    0.15623      0.00000     0.34203    0.00173     0.34377
      H   16    0.10239      0.00000     0.39578    0.00183     0.39761
      H   17    0.11233      0.00000     0.38575    0.00192     0.38767
 =======================================================================
   * Total *    0.00000     10.99635    28.86150    0.14215    40.00000

 Normal termination of Gaussian 16 at Tue Dec  8 19:45:30 2020.
