 Gaussian 16, Revision A.03,

 -----------------------------------------------------------
 # opt freq B3LYP/6-31G(d) empiricaldispersion=gd3bj scf=xqc
 -----------------------------------------------------------

 -------------------------------
 CID_105478118_JID_6214_neutraal
 -------------------------------
 Symbolic Z-matrix:
 Charge =  0 Multiplicity = 1

 SCF Done:  E(RB3LYP) =  -708.182954861     A.U. after   14 cycles
 SCF Done:  E(RB3LYP) =  -708.188458378     A.U. after   12 cycles
 SCF Done:  E(RB3LYP) =  -708.187884018     A.U. after   12 cycles
 SCF Done:  E(RB3LYP) =  -708.188341677     A.U. after   11 cycles
 SCF Done:  E(RB3LYP) =  -708.189081594     A.U. after    9 cycles
 SCF Done:  E(RB3LYP) =  -708.189278979     A.U. after   11 cycles
 SCF Done:  E(RB3LYP) =  -708.189278378     A.U. after   10 cycles
 SCF Done:  E(RB3LYP) =  -708.189329393     A.U. after   10 cycles
 SCF Done:  E(RB3LYP) =  -708.189344275     A.U. after    9 cycles
 SCF Done:  E(RB3LYP) =  -708.189352290     A.U. after    9 cycles
 SCF Done:  E(RB3LYP) =  -708.189354768     A.U. after    9 cycles
 SCF Done:  E(RB3LYP) =  -708.189356078     A.U. after    8 cycles
 SCF Done:  E(RB3LYP) =  -708.189356654     A.U. after    7 cycles
 SCF Done:  E(RB3LYP) =  -708.189356780     A.U. after    6 cycles
 SCF Done:  E(RB3LYP) =  -708.189356838     A.U. after    6 cycles
 Optimization completed.
    -- Stationary point found.
 Normal termination of Gaussian 16 at Thu Dec 10 21:21:20 2020.

 --------------------------------------------------------------------
 #N Geom=AllCheck Guess=TCheck SCRF=Check GenChk RB3LYP/6-31G(d) Freq
 --------------------------------------------------------------------

 Structure from the checkpoint file:  "JID_6214.chk"
 -------------------------------
 CID_105478118_JID_6214_neutraal
 -------------------------------
 Charge =  0 Multiplicity = 1

 SCF Done:  E(RB3LYP) =  -708.189356838     A.U. after    1 cycles

  Exact polarizability: 163.850   4.056 149.638   2.107  -0.676 109.283
 Approx polarizability: 227.474   5.343 223.377   1.248  -2.906 164.982

                      1                      2                      3
                      A                      A                      A
 Frequencies --     49.2037                68.2441                79.0556
 Red. masses --      3.4685                 3.6411                 3.7770
 Frc consts  --      0.0049                 0.0100                 0.0139
 IR Inten    --      0.4825                 1.1645                 0.4852

                      4                      5                      6
                      A                      A                      A
 Frequencies --     98.3235               151.1329               161.0882
 Red. masses --      4.0443                 3.2110                 2.0294
 Frc consts  --      0.0230                 0.0432                 0.0310
 IR Inten    --      2.7575                 1.6146                 1.6585

                      7                      8                      9
                      A                      A                      A
 Frequencies --    171.3443               219.4238               237.5534
 Red. masses --      1.4600                 1.6808                 2.0937
 Frc consts  --      0.0253                 0.0477                 0.0696
 IR Inten    --      1.1162                13.3709                 4.1357

                     10                     11                     12
                      A                      A                      A
 Frequencies --    248.3235               251.2328               257.7764
 Red. masses --      2.4190                 2.9035                 2.0506
 Frc consts  --      0.0879                 0.1080                 0.0803
 IR Inten    --      0.7859                11.6028                22.2340

                     13                     14                     15
                      A                      A                      A
 Frequencies --    336.9655               349.9140               358.4804
 Red. masses --      3.8642                 3.3508                 2.4671
 Frc consts  --      0.2585                 0.2417                 0.1868
 IR Inten    --      9.6243                 1.9691                 8.8823

                     16                     17                     18
                      A                      A                      A
 Frequencies --    385.6154               394.4464               441.9141
 Red. masses --      3.0731                 2.4874                 2.3732
 Frc consts  --      0.2692                 0.2280                 0.2731
 IR Inten    --      0.3026                 3.8293                 4.5348

                     19                     20                     21
                      A                      A                      A
 Frequencies --    476.8493               509.7499               513.7939
 Red. masses --      2.8932                 3.5347                 3.1842
 Frc consts  --      0.3876                 0.5411                 0.4953
 IR Inten    --      1.1905                 0.8813                11.2470

                     22                     23                     24
                      A                      A                      A
 Frequencies --    562.9099               563.7842               665.0157
 Red. masses --      3.3113                 2.5642                 7.2211
 Frc consts  --      0.6182                 0.4802                 1.8816
 IR Inten    --      6.6820                 4.7072                 4.2970

                     25                     26                     27
                      A                      A                      A
 Frequencies --    729.6839               760.7492               784.3850
 Red. masses --      4.9773                 4.2552                 1.1113
 Frc consts  --      1.5614                 1.4510                 0.4029
 IR Inten    --      0.8063                 7.4808                 0.7450

                     28                     29                     30
                      A                      A                      A
 Frequencies --    787.3626               828.9456               850.3733
 Red. masses --      3.0683                 1.5457                 3.1550
 Frc consts  --      1.1207                 0.6258                 1.3442
 IR Inten    --      6.0389                 0.9781                 4.3822

                     31                     32                     33
                      A                      A                      A
 Frequencies --    850.9188               873.8749               880.4439
 Red. masses --      2.1623                 2.1206                 1.4324
 Frc consts  --      0.9225                 0.9541                 0.6542
 IR Inten    --     55.6722                26.4745                10.6218

                     34                     35                     36
                      A                      A                      A
 Frequencies --    910.4261               912.6468               929.3220
 Red. masses --      1.9665                 2.3856                 2.1768
 Frc consts  --      0.9604                 1.1707                 1.1077
 IR Inten    --     24.9362                 2.9843                 1.3943

                     37                     38                     39
                      A                      A                      A
 Frequencies --    974.5138               986.9031              1009.0943
 Red. masses --      1.3414                 1.9361                 1.3612
 Frc consts  --      0.7506                 1.1110                 0.8167
 IR Inten    --     59.3702                 0.3250                 5.4336

                     40                     41                     42
                      A                      A                      A
 Frequencies --   1010.2281              1026.3026              1048.7359
 Red. masses --      3.2255                 2.0341                 2.9561
 Frc consts  --      1.9395                 1.2623                 1.9156
 IR Inten    --     40.6024                 7.1547                13.1015

                     43                     44                     45
                      A                      A                      A
 Frequencies --   1049.8762              1055.4708              1076.8889
 Red. masses --      1.4460                 1.8564                 1.4403
 Frc consts  --      0.9390                 1.2184                 0.9841
 IR Inten    --      3.5761                 3.8761                 3.7500

                     46                     47                     48
                      A                      A                      A
 Frequencies --   1110.3380              1142.9252              1154.0493
 Red. masses --      3.5676                 2.2298                 1.3175
 Frc consts  --      2.5914                 1.7161                 1.0339
 IR Inten    --     19.0262                 1.6375                 7.7786

                     49                     50                     51
                      A                      A                      A
 Frequencies --   1170.2482              1180.7300              1197.1607
 Red. masses --      4.9728                 1.9328                 1.3085
 Frc consts  --      4.0124                 1.5876                 1.1049
 IR Inten    --     69.7475                11.7405                 0.0314

                     52                     53                     54
                      A                      A                      A
 Frequencies --   1209.4432              1210.1310              1228.2233
 Red. masses --      1.3386                 1.3670                 3.1744
 Frc consts  --      1.1536                 1.1795                 2.8214
 IR Inten    --      3.5071                 7.5368                 0.6662

                     55                     56                     57
                      A                      A                      A
 Frequencies --   1277.6345              1289.7545              1303.6113
 Red. masses --      1.2949                 1.6623                 1.8392
 Frc consts  --      1.2454                 1.6292                 1.8416
 IR Inten    --     18.9203                 9.1184                22.0672

                     58                     59                     60
                      A                      A                      A
 Frequencies --   1323.0847              1333.1316              1343.4748
 Red. masses --      1.6206                 2.6640                 1.2533
 Frc consts  --      1.6715                 2.7895                 1.3328
 IR Inten    --      2.2677                12.3940                 1.5920

                     61                     62                     63
                      A                      A                      A
 Frequencies --   1349.4562              1366.5486              1390.7558
 Red. masses --      2.7206                 1.4603                 1.3049
 Frc consts  --      2.9190                 1.6067                 1.4870
 IR Inten    --      1.5254                23.3926                 0.9031

                     64                     65                     66
                      A                      A                      A
 Frequencies --   1401.2210              1406.4716              1442.4681
 Red. masses --      1.2437                 1.9448                 1.3329
 Frc consts  --      1.4388                 2.2666                 1.6340
 IR Inten    --     10.4750                35.2431                23.3608

                     67                     68                     69
                      A                      A                      A
 Frequencies --   1447.8968              1451.1134              1479.0123
 Red. masses --      1.8927                 3.6757                 1.5858
 Frc consts  --      2.3378                 4.5603                 2.0438
 IR Inten    --     16.3878                13.6976                 6.4859

                     70                     71                     72
                      A                      A                      A
 Frequencies --   1497.1602              1502.2464              1504.4704
 Red. masses --      1.0881                 1.7716                 1.3150
 Frc consts  --      1.4371                 2.3555                 1.7537
 IR Inten    --      2.9923                 1.9671                 4.6121

                     73                     74                     75
                      A                      A                      A
 Frequencies --   1510.7178              1521.5517              1524.4555
 Red. masses --      1.1671                 1.0828                 1.0739
 Frc consts  --      1.5694                 1.4770                 1.4704
 IR Inten    --      1.2933                 0.3510                14.7571

                     76                     77                     78
                      A                      A                      A
 Frequencies --   1531.7287              1533.8643              1542.5193
 Red. masses --      1.3277                 1.1269                 1.2259
 Frc consts  --      1.8353                 1.5621                 1.7186
 IR Inten    --      5.3411                 0.4799                23.9399

                     79                     80                     81
                      A                      A                      A
 Frequencies --   1609.4193              1690.7283              2965.7624
 Red. masses --      6.4849                 1.0960                 1.0725
 Frc consts  --      9.8967                 1.8459                 5.5580
 IR Inten    --      7.3337                34.7836                18.4217

                     82                     83                     84
                      A                      A                      A
 Frequencies --   2973.2934              3058.4836              3062.7160
 Red. masses --      1.0723                 1.0591                 1.0554
 Frc consts  --      5.5852                 5.8371                 5.8328
 IR Inten    --     94.1267                24.5694                22.2184

                     85                     86                     87
                      A                      A                      A
 Frequencies --   3065.9291              3085.1391              3102.8970
 Red. masses --      1.0539                 1.0843                 1.0977
 Frc consts  --      5.8367                 6.0805                 6.2269
 IR Inten    --     34.0012                 3.4686                42.2142

                     88                     89                     90
                      A                      A                      A
 Frequencies --   3109.1901              3111.4813              3126.5951
 Red. masses --      1.0925                 1.0944                 1.0972
 Frc consts  --      6.2224                 6.2427                 6.3192
 IR Inten    --     36.0235                35.4832                50.8429

                     91                     92                     93
                      A                      A                      A
 Frequencies --   3139.8981              3142.7990              3144.9815
 Red. masses --      1.0542                 1.0934                 1.0582
 Frc consts  --      6.1237                 6.3630                 6.1670
 IR Inten    --     18.6327                20.5525                14.2797

                     94                     95                     96
                      A                      A                      A
 Frequencies --   3184.4608              3218.1366              3230.5698
 Red. masses --      1.1039                 1.1166                 1.1144
 Frc consts  --      6.5957                 6.8133                 6.8527
 IR Inten    --      6.3207                 0.9451                30.9741

                     97                     98                     99
                      A                      A                      A
 Frequencies --   3282.8629              3458.0824              3554.9195
 Red. masses --      1.0959                 1.0515                 1.0905
 Frc consts  --      6.9584                 7.4083                 8.1200
 IR Inten    --      3.4088                 1.3234                 0.3506

 - Thermochemistry -
 -------------------
 Temperature   298.150 Kelvin.  Pressure   1.00000 Atm.
 Atom     1 has atomic number  6 and mass  12.00000

 Molecular mass:   221.15281 amu.
 Principal axes and moments of inertia in atomic units:
                           1         2         3
     Eigenvalues --  2360.340644459.821005982.04886
           X            0.99954   0.03019   0.00311
           Y           -0.03019   0.99954   0.00217
           Z           -0.00305  -0.00226   0.99999
 This molecule is an asymmetric top.
 Rotational symmetry number  1.
 Warning -- assumption of classical behavior for rotation
           may cause significant error
 Rotational temperatures (Kelvin)      0.03670     0.01942     0.01448
 Rotational constants (GHZ):           0.76461     0.40467     0.30169
 Zero-point vibrational energy     807989.1 (Joules/Mol)
                                  193.11403 (Kcal/Mol)
 Warning -- explicit consideration of  23 degrees of freedom as
           vibrations may cause significant error
 Vibrational temperatures:     70.79    98.19   113.74   141.47   217.45
          (Kelvin)            231.77   246.53   315.70   341.79   357.28
                              361.47   370.88   484.82   503.45   515.77
                              554.81   567.52   635.82   686.08   733.42
                              739.23   809.90   811.16   956.81  1049.85
                             1094.55  1128.56  1132.84  1192.67  1223.50
                             1224.28  1257.31  1266.76  1309.90  1313.10
                             1337.09  1402.11  1419.93  1451.86  1453.49
                             1476.62  1508.90  1510.54  1518.59  1549.40
                             1597.53  1644.41  1660.42  1683.73  1698.81
                             1722.45  1740.12  1741.11  1767.14  1838.23
                             1855.67  1875.61  1903.62  1918.08  1932.96
                             1941.57  1966.16  2000.99  2016.04  2023.60
                             2075.39  2083.20  2087.83  2127.97  2154.08
                             2161.40  2164.60  2173.59  2189.17  2193.35
                             2203.82  2206.89  2219.34  2315.60  2432.58
                             4267.07  4277.91  4400.48  4406.57  4411.19
                             4438.83  4464.38  4473.43  4476.73  4498.47
                             4517.61  4521.79  4524.93  4581.73  4630.18
                             4648.07  4723.31  4975.41  5114.74

 Zero-point correction=                           0.307747 (Hartree/Particle)
 Thermal correction to Energy=                    0.322714
 Thermal correction to Enthalpy=                  0.323658
 Thermal correction to Gibbs Free Energy=         0.266137
 Sum of electronic and zero-point Energies=           -707.881610
 Sum of electronic and thermal Energies=              -707.866643
 Sum of electronic and thermal Enthalpies=            -707.865699
 Sum of electronic and thermal Free Energies=         -707.923220

                     E (Thermal)             CV                S
                      KCal/Mol        Cal/Mol-Kelvin    Cal/Mol-Kelvin
 Total                  202.506             59.040            121.064
 Electronic               0.000              0.000              0.000
 Translational            0.889              2.981             42.084
 Rotational               0.889              2.981             32.510
 Vibrational            200.729             53.079             46.470
 Vibration     1          0.595              1.978              4.849
 Vibration     2          0.598              1.969              4.203
 Vibration     3          0.600              1.963              3.914
 Vibration     4          0.604              1.950              3.487
 Vibration     5          0.619              1.901              2.658
 Vibration     6          0.622              1.890              2.537
 Vibration     7          0.626              1.878              2.421
 Vibration     8          0.647              1.811              1.964
 Vibration     9          0.656              1.783              1.821
 Vibration    10          0.662              1.766              1.742
 Vibration    11          0.663              1.761              1.722
 Vibration    12          0.667              1.750              1.677
 Vibration    13          0.718              1.602              1.226
 Vibration    14          0.727              1.575              1.167
 Vibration    15          0.733              1.558              1.129
 Vibration    16          0.754              1.501              1.017
 Vibration    17          0.761              1.482              0.983
 Vibration    18          0.802              1.379              0.821
 Vibration    19          0.833              1.301              0.719
 Vibration    20          0.865              1.228              0.634
 Vibration    21          0.869              1.219              0.625
 Vibration    22          0.919              1.112              0.518
 Vibration    23          0.920              1.110              0.516

 Optimization completed.
    -- Stationary point found.
 Normal termination of Gaussian 16 at Thu Dec 10 21:35:49 2020.

 ----------------------------------------------------------------------
 # B3LYP/6-311++G(d,p) empiricaldispersion=gd3bj scf=xqc pop=npa geom=c
 heck
 ----------------------------------------------------------------------

 ---------------------------------------
 CID_105478118_JID_6214_Energie_neutraal
 ---------------------------------------
 Structure from the checkpoint file:  "JID_6214.chk"
 Charge =  0 Multiplicity = 1

 SCF Done:  E(RB3LYP) =  -708.386987455     A.U. after   15 cycles
 Normal termination of Gaussian 16 at Thu Dec 10 21:42:55 2020.

 ----------------------------------------------------------------------
 # B3LYP/6-311++G(d,p) empiricaldispersion=gd3bj scf=xqc pop=npa geom=c
 heck
 ----------------------------------------------------------------------

 -------------------------------------
 CID_105478118_JID_6214_Energie_kation
 -------------------------------------
 Structure from the checkpoint file:  "JID_6214.chk"
 Charge =  1 Multiplicity = 2

 SCF Done:  E(UB3LYP) =  -708.103667644     A.U. after   25 cycles
 Normal termination of Gaussian 16 at Thu Dec 10 21:59:45 2020.
 Gaussian 16:  ES64L-G16RevA.03 25-Dec-2016

 ----------------------------------------------------------------------
 # B3LYP/6-311++G(d,p) empiricaldispersion=gd3bj scf=xqc pop=npa geom=c
 heck
 ----------------------------------------------------------------------

 ------------------------------------
 CID_105478118_JID_6214_Energie_anion
 ------------------------------------
 Structure from the checkpoint file:  "JID_6214.chk"
 Charge = -1 Multiplicity = 2

                         Standard orientation:
 ---------------------------------------------------------------------
 Center     Atomic      Atomic             Coordinates (Angstroms)
 Number     Number       Type             X           Y           Z
 ---------------------------------------------------------------------
      1          6           0        0.763824    2.975965   -0.010703
      2          7           0       -0.342536    2.038373   -0.050193
      3          6           0       -0.343443    0.665442    0.011530
      4          6           0       -1.689663    0.287984    0.015978
      5          6           0       -2.400815    1.510510   -0.025921
      6          7           0       -1.590800    2.563069   -0.066885
      7          6           0       -2.346999   -1.052261    0.036368
      8          6           0       -1.666261   -2.272649   -0.571286
      9          6           0       -1.830513   -2.154625    0.927971
     10          7           0       -3.793502   -0.933407   -0.064301
     11          6           0        0.905244   -0.174016    0.049984
     12          6           0        1.878267    0.149431    1.203827
     13          6           0        3.067908   -0.810917    1.156491
     14          8           0        3.741929   -0.748051   -0.092703
     15          6           0        2.893018   -1.126600   -1.166821
     16          6           0        1.679581   -0.203169   -1.286311
     17          1           0        0.387183    3.921886   -0.400093
     18          1           0        1.123491    3.130206    1.012543
     19          1           0        1.591398    2.630835   -0.632619
     20          1           0       -3.472400    1.644831   -0.019467
     21          1           0       -2.310076   -2.978854   -1.090197
     22          1           0       -0.678010   -2.176653   -1.010014
     23          1           0       -0.958734   -1.943483    1.540078
     24          1           0       -2.560318   -2.796638    1.416472
     25          1           0       -4.045560   -0.693405   -1.023349
     26          1           0       -4.228054   -1.832035    0.132610
     27          1           0        0.575457   -1.201479    0.230377
     28          1           0        2.259451    1.171211    1.121686
     29          1           0        1.361521    0.066571    2.167767
     30          1           0        3.812361   -0.557333    1.916690
     31          1           0        2.724750   -1.843925    1.345353
     32          1           0        2.554163   -2.168770   -1.025738
     33          1           0        3.509841   -1.091224   -2.069484
     34          1           0        1.021478   -0.546157   -2.093778
     35          1           0        2.023614    0.802019   -1.554195
 ---------------------------------------------------------------------

 SCF Done:  E(UB3LYP) =  -708.374471425     A.U. after   32 cycles

 The electronic state is 2-A.
 Alpha  occ. eigenvalues --  -19.03549 -14.29283 -14.22860 -14.20362 -10.12712
 Alpha  occ. eigenvalues --  -10.12592 -10.12422 -10.12247 -10.11520 -10.10140
 Alpha  occ. eigenvalues --  -10.08520 -10.08410 -10.08211 -10.07921 -10.07544
 Alpha  occ. eigenvalues --  -10.07485  -0.95202  -0.95031  -0.82106  -0.75342
 Alpha  occ. eigenvalues --   -0.73405  -0.72037  -0.67871  -0.67855  -0.61443
 Alpha  occ. eigenvalues --   -0.56799  -0.55414  -0.52827  -0.51316  -0.49625
 Alpha  occ. eigenvalues --   -0.47536  -0.45428  -0.42820  -0.40245  -0.39419
 Alpha  occ. eigenvalues --   -0.39212  -0.38261  -0.37273  -0.36783  -0.36405
 Alpha  occ. eigenvalues --   -0.35382  -0.34525  -0.34265  -0.31444  -0.30842
 Alpha  occ. eigenvalues --   -0.30292  -0.29868  -0.28479  -0.27658  -0.27057
 Alpha  occ. eigenvalues --   -0.25280  -0.24724  -0.24612  -0.22139  -0.21709
 Alpha  occ. eigenvalues --   -0.19423  -0.17156  -0.15513  -0.15240  -0.12386
 Alpha  occ. eigenvalues --    0.04102
 Alpha virt. eigenvalues --    0.05732   0.06724   0.06809   0.08237   0.08553
 Alpha virt. eigenvalues --    0.08761   0.08933   0.09479   0.10438   0.10902
 Alpha virt. eigenvalues --    0.10962   0.11288   0.11737   0.12348   0.12765

  Beta  occ. eigenvalues --  -19.03540 -14.29279 -14.22856 -14.20331 -10.12691
  Beta  occ. eigenvalues --  -10.12569 -10.12421 -10.12230 -10.11517 -10.10134
  Beta  occ. eigenvalues --  -10.08519 -10.08397 -10.08193 -10.07899 -10.07543
  Beta  occ. eigenvalues --  -10.07459  -0.95194  -0.95014  -0.82071  -0.75329
  Beta  occ. eigenvalues --   -0.73380  -0.71999  -0.67843  -0.67834  -0.61420
  Beta  occ. eigenvalues --   -0.56767  -0.55365  -0.52804  -0.51242  -0.49576
  Beta  occ. eigenvalues --   -0.47503  -0.45393  -0.42787  -0.40215  -0.39393
  Beta  occ. eigenvalues --   -0.39161  -0.38233  -0.37236  -0.36750  -0.36373
  Beta  occ. eigenvalues --   -0.35352  -0.34507  -0.34248  -0.31427  -0.30809
  Beta  occ. eigenvalues --   -0.30259  -0.29842  -0.28464  -0.27624  -0.27021
  Beta  occ. eigenvalues --   -0.25251  -0.24700  -0.24583  -0.22111  -0.21682
  Beta  occ. eigenvalues --   -0.19408  -0.17106  -0.15490  -0.15224  -0.12367
  Beta virt. eigenvalues --    0.06192   0.06810   0.07377   0.07473   0.08688
  Beta virt. eigenvalues --    0.09002   0.09143   0.09406   0.09785   0.10698
  Beta virt. eigenvalues --    0.11163   0.11349   0.11842   0.12059   0.12529

 Mulliken charges and spin densities:
               1          2
     1  C    0.160989  -0.536064
     2  N    0.194228   0.056412
     3  C    0.398468  -0.155876
     4  C    0.677711  -0.447747
     5  C    0.750079  -0.645709
     6  N   -0.176941  -0.020941
     7  C   -2.492955   1.507097
     8  C    0.410202  -0.688108
     9  C    0.907511  -1.168561
    10  N   -0.213749  -0.102155
    11  C   -0.394694   0.494258
    12  C    0.072088  -0.227519
    13  C    0.179814  -0.763022
    14  O   -0.142632   0.043696
    15  C    0.144934  -0.721289
    16  C   -0.410806   0.148772
    17  H    0.114298   0.057497
    18  H   -0.124069   0.315439
    19  H   -0.047668   0.207796
    20  H    0.145869   0.025834
    21  H   -0.790779   0.998129
    22  H   -0.502708   0.632821
    23  H   -0.307268   0.449407
    24  H   -0.437613   0.615609
    25  H    0.038019   0.198299
    26  H    0.007342   0.257126
    27  H    1.785021  -1.769255
    28  H    0.099956   0.025571
    29  H   -0.105080   0.300760
    30  H   -0.394814   0.594619
    31  H   -0.269649   0.404023
    32  H   -0.116460   0.260460
    33  H   -0.273509   0.465686
    34  H   -0.005796   0.189185
    35  H    0.120661  -0.002252
 Sum of Mulliken charges =  -1.00000   1.00000

 Dipole moment (field-independent basis, Debye):
    X=              1.3559    Y=              4.2549    Z=             -0.7670  Tot=              4.5311
 Quadrupole moment (field-independent basis, Debye-Ang):
   XX=           -175.0497   YY=           -155.2681   ZZ=           -137.1455
   XY=             -6.2373   XZ=             -2.7811   YZ=             -4.3754

 Summary of Natural Population Analysis:

                                       Natural Population
                Natural  -----------------------------------------------
    Atom  No    Charge         Core      Valence    Rydberg      Total
 -----------------------------------------------------------------------
      C    1   -0.17511      0.99964     2.16768    0.00779     3.17511
      N    2   -0.10983      0.99962     2.59796    0.01225     3.60983
      C    3    0.09344      0.99948     1.89453    0.01255     2.90656
      C    4   -0.06666      0.99944     2.05607    0.01115     3.06666
      C    5   -0.00599      0.99959     1.99262    0.01378     3.00599
      N    6   -0.15845      0.99973     2.64743    0.01129     3.65845
      C    7    0.04615      0.99952     1.94110    0.01322     2.95385
      C    8   -0.20054      0.99960     2.19052    0.01041     3.20054
      C    9   -0.19219      0.99960     2.18300    0.00959     3.19219
      N   10   -0.41318      0.99975     2.90335    0.01008     3.91318
      C   11   -0.13483      0.99956     2.12463    0.01064     3.13483
      C   12   -0.19968      0.99961     2.19084    0.00923     3.19968
      C   13   -0.00768      0.99958     1.99540    0.01270     3.00768
      O   14   -0.29946      0.99989     3.29019    0.00938     4.29946
      C   15   -0.00859      0.99958     1.99662    0.01239     3.00859
      C   16   -0.19792      0.99961     2.18960    0.00871     3.19792
      H   17    0.10852      0.00000     0.39023    0.00125     0.39148
      H   18    0.09767      0.00000     0.40116    0.00117     0.40233
      H   19    0.09872      0.00000     0.40010    0.00118     0.40128
      H   20    0.10417      0.00000     0.39469    0.00114     0.39583
      H   21    0.10531      0.00000     0.39203    0.00266     0.39469
      H   22    0.10122      0.00000     0.39715    0.00163     0.39878
      H   23    0.10349      0.00000     0.39520    0.00131     0.39651
      H   24    0.10420      0.00000     0.39449    0.00131     0.39580
      H   25    0.17443      0.00000     0.32379    0.00178     0.32557
      H   26    0.17853      0.00000     0.31926    0.00221     0.32147
      H   27    0.10774      0.00000     0.38816    0.00411     0.39226
      H   28    0.09819      0.00000     0.40011    0.00170     0.40181
      H   29    0.10522      0.00000     0.39348    0.00131     0.39478
      H   30    0.09347      0.00000     0.40509    0.00144     0.40653
      H   31    0.07750      0.00000     0.42090    0.00160     0.42250
      H   32    0.07800      0.00000     0.42038    0.00162     0.42200
      H   33    0.09267      0.00000     0.40604    0.00129     0.40733
      H   34    0.10578      0.00000     0.39306    0.00116     0.39422
      H   35    0.09566      0.00000     0.40298    0.00135     0.40434
 =======================================================================
   * Total *    0.00000     15.99378    43.79986    0.20636    60.00000

 Normal termination of Gaussian 16 at Thu Dec 10 22:21:07 2020.
