 Gaussian 16, Revision A.03,

 -----------------------------------------------------------
 # opt freq B3LYP/6-31G(d) empiricaldispersion=gd3bj scf=xqc
 -----------------------------------------------------------

 -------------------------------
 CID_131143323_JID_2508_neutraal
 -------------------------------
 Symbolic Z-matrix:
 Charge =  0 Multiplicity = 1

 SCF Done:  E(RB3LYP) =  -486.553566605     A.U. after   12 cycles
 SCF Done:  E(RB3LYP) =  -486.557710503     A.U. after   11 cycles
 SCF Done:  E(RB3LYP) =  -486.557829263     A.U. after   11 cycles
 SCF Done:  E(RB3LYP) =  -486.558789590     A.U. after   11 cycles
 SCF Done:  E(RB3LYP) =  -486.559062818     A.U. after   10 cycles
 SCF Done:  E(RB3LYP) =  -486.559155459     A.U. after    9 cycles
 SCF Done:  E(RB3LYP) =  -486.559193331     A.U. after    9 cycles
 SCF Done:  E(RB3LYP) =  -486.559209416     A.U. after    9 cycles
 SCF Done:  E(RB3LYP) =  -486.559218254     A.U. after    8 cycles
 SCF Done:  E(RB3LYP) =  -486.559220685     A.U. after    7 cycles
 SCF Done:  E(RB3LYP) =  -486.559221525     A.U. after    7 cycles
 SCF Done:  E(RB3LYP) =  -486.559221633     A.U. after    6 cycles
 Optimization completed.
    -- Stationary point found.
 Normal termination of Gaussian 16 at Wed Dec  9 17:30:26 2020.

 --------------------------------------------------------------------
 #N Geom=AllCheck Guess=TCheck SCRF=Check GenChk RB3LYP/6-31G(d) Freq
 --------------------------------------------------------------------

 Structure from the checkpoint file:  "JID_2508.chk"
 -------------------------------
 CID_131143323_JID_2508_neutraal
 -------------------------------
 Charge =  0 Multiplicity = 1

 SCF Done:  E(RB3LYP) =  -486.559221633     A.U. after    1 cycles

  Exact polarizability: 125.898   2.219 117.353   3.123  -0.353 109.531
 Approx polarizability: 165.388   3.378 163.622   5.220  -1.098 160.959

                      1                      2                      3
                      A                      A                      A
 Frequencies --     47.2111                91.9614               101.9645
 Red. masses --      2.8110                 3.1411                 3.0693
 Frc consts  --      0.0037                 0.0157                 0.0188
 IR Inten    --      0.2320                 0.8330                 1.1539

                      4                      5                      6
                      A                      A                      A
 Frequencies --    153.2611               163.3864               170.4221
 Red. masses --      1.6309                 1.3396                 2.5223
 Frc consts  --      0.0226                 0.0211                 0.0432
 IR Inten    --      0.1637                 0.4133                 0.2184

                      7                      8                      9
                      A                      A                      A
 Frequencies --    184.1326               199.4202               238.3610
 Red. masses --      1.5042                 1.5386                 1.3830
 Frc consts  --      0.0300                 0.0360                 0.0463
 IR Inten    --      0.2467                 1.9955                10.2284

                     10                     11                     12
                      A                      A                      A
 Frequencies --    254.1625               287.8309               299.6418
 Red. masses --      1.8026                 1.5983                 1.7455
 Frc consts  --      0.0686                 0.0780                 0.0923
 IR Inten    --     14.9804                15.9089                 7.2917

                     13                     14                     15
                      A                      A                      A
 Frequencies --    310.8564               327.3160               338.6393
 Red. masses --      1.3828                 1.8035                 2.5179
 Frc consts  --      0.0787                 0.1138                 0.1701
 IR Inten    --      0.6008                 8.7405                12.1739

                     16                     17                     18
                      A                      A                      A
 Frequencies --    363.9096               368.0652               411.9322
 Red. masses --      2.2095                 2.2981                 2.5917
 Frc consts  --      0.1724                 0.1834                 0.2591
 IR Inten    --      0.5849                 4.4319                 2.5557

                     19                     20                     21
                      A                      A                      A
 Frequencies --    470.6457               498.7058               552.8220
 Red. masses --      2.8212                 2.6248                 2.6537
 Frc consts  --      0.3682                 0.3846                 0.4778
 IR Inten    --      0.9746                 1.9202                 4.1560

                     22                     23                     24
                      A                      A                      A
 Frequencies --    579.0101               664.6312               720.0004
 Red. masses --      2.9431                 2.8194                 3.1205
 Frc consts  --      0.5813                 0.7338                 0.9531
 IR Inten    --      1.8562                 1.2608                 2.6450

                     25                     26                     27
                      A                      A                      A
 Frequencies --    782.0322               830.1880               850.3834
 Red. masses --      2.7534                 2.4425                 1.8683
 Frc consts  --      0.9921                 0.9918                 0.7960
 IR Inten    --      3.3002                 2.0887                17.7576

                     28                     29                     30
                      A                      A                      A
 Frequencies --    876.4223               881.7324               939.5931
 Red. masses --      1.2848                 1.2966                 1.3986
 Frc consts  --      0.5814                 0.5939                 0.7275
 IR Inten    --      2.4847               101.9528                 0.3875

                     31                     32                     33
                      A                      A                      A
 Frequencies --    971.1898               981.7816               986.3252
 Red. masses --      1.6955                 1.5281                 1.7883
 Frc consts  --      0.9422                 0.8678                 1.0250
 IR Inten    --      2.4631                 4.0718                10.4398

                     34                     35                     36
                      A                      A                      A
 Frequencies --   1010.4537              1025.4652              1041.9414
 Red. masses --      1.4275                 2.1064                 1.7336
 Frc consts  --      0.8587                 1.3051                 1.1089
 IR Inten    --      3.3444                16.5967                 2.0883

                     37                     38                     39
                      A                      A                      A
 Frequencies --   1051.0685              1061.3695              1076.5171
 Red. masses --      1.7317                 1.6514                 1.5069
 Frc consts  --      1.1271                 1.0961                 1.0289
 IR Inten    --      4.7683                 0.3752                 6.0672

                     40                     41                     42
                      A                      A                      A
 Frequencies --   1101.1280              1124.7726              1136.4064
 Red. masses --      1.3111                 1.5761                 1.6342
 Frc consts  --      0.9366                 1.1748                 1.2435
 IR Inten    --      0.9863                 0.7807                11.8557

                     43                     44                     45
                      A                      A                      A
 Frequencies --   1155.0863              1163.1939              1167.4217
 Red. masses --      1.6813                 1.4708                 1.9133
 Frc consts  --      1.3217                 1.1725                 1.5363
 IR Inten    --      3.4139                 3.4302                 3.4998

                     46                     47                     48
                      A                      A                      A
 Frequencies --   1190.4302              1216.5730              1218.9852
 Red. masses --      1.7519                 1.6389                 1.9806
 Frc consts  --      1.4627                 1.4292                 1.7340
 IR Inten    --      5.3440                 1.1965                 5.2726

                     49                     50                     51
                      A                      A                      A
 Frequencies --   1230.0691              1273.2492              1309.6576
 Red. masses --      2.2378                 1.9403                 1.7132
 Frc consts  --      1.9949                 1.8533                 1.7313
 IR Inten    --      0.3799                 2.7210                 5.7903

                     52                     53                     54
                      A                      A                      A
 Frequencies --   1324.8395              1360.0930              1407.5844
 Red. masses --      1.5830                 1.4658                 1.4208
 Frc consts  --      1.6370                 1.5976                 1.6586
 IR Inten    --      1.4605                 2.2246                 4.7649

                     55                     56                     57
                      A                      A                      A
 Frequencies --   1426.7702              1429.4923              1436.8069
 Red. masses --      1.6133                 1.5969                 1.3056
 Frc consts  --      1.9349                 1.9227                 1.5880
 IR Inten    --      6.5831                 2.4237                 1.4222

                     58                     59                     60
                      A                      A                      A
 Frequencies --   1443.1255              1457.2684              1458.2155
 Red. masses --      1.2403                 1.3526                 1.2294
 Frc consts  --      1.5219                 1.6924                 1.5403
 IR Inten    --      2.0621                 0.6258                 4.5276

                     61                     62                     63
                      A                      A                      A
 Frequencies --   1481.7080              1513.0787              1518.2656
 Red. masses --      2.0997                 1.0502                 1.1765
 Frc consts  --      2.7160                 1.4166                 1.5979
 IR Inten    --      8.4815                 0.2808                 0.2131

                     64                     65                     66
                      A                      A                      A
 Frequencies --   1520.2893              1526.4719              1529.3079
 Red. masses --      1.0889                 1.0921                 1.0530
 Frc consts  --      1.4828                 1.4993                 1.4510
 IR Inten    --      4.1732                 8.1540                 4.5293

                     67                     68                     69
                      A                      A                      A
 Frequencies --   1538.3168              1538.8937              1539.7277
 Red. masses --      1.0580                 1.0756                 1.0767
 Frc consts  --      1.4751                 1.5008                 1.5039
 IR Inten    --      4.1998                 4.0948                 7.8924

                     70                     71                     72
                      A                      A                      A
 Frequencies --   1545.5756              1555.9633              1689.5462
 Red. masses --      1.0887                 1.1308                 1.0896
 Frc consts  --      1.5323                 1.6130                 1.8325
 IR Inten    --      2.0612                 3.7675                31.8066

                     73                     74                     75
                      A                      A                      A
 Frequencies --   2993.1878              3033.7395              3038.9682
 Red. masses --      1.0701                 1.0396                 1.0381
 Frc consts  --      5.6487                 5.6371                 5.6487
 IR Inten    --     61.6460                25.0803                38.0067

                     76                     77                     78
                      A                      A                      A
 Frequencies --   3040.3268              3048.6040              3058.5054
 Red. masses --      1.0406                 1.0411                 1.0906
 Frc consts  --      5.6673                 5.7009                 6.0110
 IR Inten    --     65.9127                32.5137                43.2606

                     79                     80                     81
                      A                      A                      A
 Frequencies --   3085.1774              3089.7239              3090.6394
 Red. masses --      1.1016                 1.1011                 1.1017
 Frc consts  --      6.1781                 6.1934                 6.2000
 IR Inten    --      2.9380                43.1144                54.0889

                     82                     83                     84
                      A                      A                      A
 Frequencies --   3097.5898              3112.8910              3124.6898
 Red. masses --      1.1003                 1.0869                 1.0916
 Frc consts  --      6.2203                 6.2053                 6.2793
 IR Inten    --     28.8302                13.1440                14.7098

                     85                     86                     87
                      A                      A                      A
 Frequencies --   3135.2544              3136.0270              3136.4625
 Red. masses --      1.0748                 1.0785                 1.0974
 Frc consts  --      6.2250                 6.2495                 6.3603
 IR Inten    --     12.0323                11.5955                43.7831

                     88                     89                     90
                      A                      A                      A
 Frequencies --   3140.6622              3153.7239              3207.5254
 Red. masses --      1.0949                 1.0936                 1.0862
 Frc consts  --      6.3631                 6.4086                 6.5839
 IR Inten    --     31.4796                41.6124                 9.0016

                     91                     92                     93
                      A                      A                      A
 Frequencies --   3213.0416              3461.5973              3548.6711
 Red. masses --      1.1167                 1.0495                 1.0923
 Frc consts  --      6.7924                 7.4092                 8.1047
 IR Inten    --     23.3777                 4.6728                 1.6191

 - Thermochemistry -
 -------------------
 Temperature   298.150 Kelvin.  Pressure   1.00000 Atm.
 Atom     1 has atomic number  6 and mass  12.00000

 Molecular mass:   167.16740 amu.
 Principal axes and moments of inertia in atomic units:
                           1         2         3
     Eigenvalues --  1707.961962275.201682797.40364
           X            0.99972   0.02014  -0.01239
           Y           -0.01982   0.99949   0.02513
           Z            0.01289  -0.02488   0.99961
 This molecule is an asymmetric top.
 Rotational symmetry number  1.
 Warning -- assumption of classical behavior for rotation
           may cause significant error
 Rotational temperatures (Kelvin)      0.05071     0.03807     0.03096
 Rotational constants (GHZ):           1.05666     0.79322     0.64515
 Zero-point vibrational energy     799345.2 (Joules/Mol)
                                  191.04808 (Kcal/Mol)
 Warning -- explicit consideration of  22 degrees of freedom as
           vibrations may cause significant error
 Vibrational temperatures:     67.93   132.31   146.70   220.51   235.08
          (Kelvin)            245.20   264.93   286.92   342.95   365.68
                              414.12   431.12   447.25   470.93   487.23
                              523.58   529.56   592.68   677.15   717.53
                              795.39   833.07   956.26  1035.92  1125.17
                             1194.46  1223.51  1260.98  1268.62  1351.86
                             1397.33  1412.56  1419.10  1453.82  1475.42
                             1499.12  1512.25  1527.07  1548.87  1584.28
                             1618.30  1635.04  1661.91  1673.58  1679.66
                             1712.76  1750.38  1753.85  1769.80  1831.92
                             1884.31  1906.15  1956.87  2025.20  2052.80
                             2056.72  2067.24  2076.34  2096.68  2098.05
                             2131.85  2176.98  2184.45  2187.36  2196.25
                             2200.33  2213.29  2214.12  2215.32  2223.74
                             2238.68  2430.88  4306.53  4364.87  4372.40
                             4374.35  4386.26  4400.51  4438.88  4445.42
                             4446.74  4456.74  4478.76  4495.73  4510.93
                             4512.04  4512.67  4518.71  4537.51  4614.91
                             4622.85  4980.47  5105.75

 Zero-point correction=                           0.304454 (Hartree/Particle)
 Thermal correction to Energy=                    0.318698
 Thermal correction to Enthalpy=                  0.319642
 Thermal correction to Gibbs Free Energy=         0.265003
 Sum of electronic and zero-point Energies=           -486.254767
 Sum of electronic and thermal Energies=              -486.240524
 Sum of electronic and thermal Enthalpies=            -486.239580
 Sum of electronic and thermal Free Energies=         -486.294219

                     E (Thermal)             CV                S
                      KCal/Mol        Cal/Mol-Kelvin    Cal/Mol-Kelvin
 Total                  199.986             54.810            114.997
 Electronic               0.000              0.000              0.000
 Translational            0.889              2.981             41.250
 Rotational               0.889              2.981             30.764
 Vibrational            198.208             48.848             42.983
 Vibration     1          0.595              1.979              4.931
 Vibration     2          0.602              1.955              3.618
 Vibration     3          0.604              1.948              3.416
 Vibration     4          0.619              1.899              2.631
 Vibration     5          0.623              1.887              2.510
 Vibration     6          0.626              1.879              2.431
 Vibration     7          0.631              1.861              2.286
 Vibration     8          0.638              1.841              2.138
 Vibration     9          0.656              1.782              1.815
 Vibration    10          0.665              1.756              1.702
 Vibration    11          0.685              1.696              1.487
 Vibration    12          0.692              1.674              1.419
 Vibration    13          0.700              1.653              1.358
 Vibration    14          0.711              1.621              1.273
 Vibration    15          0.719              1.598              1.219
 Vibration    16          0.737              1.547              1.105
 Vibration    17          0.741              1.538              1.088
 Vibration    18          0.776              1.444              0.920
 Vibration    19          0.828              1.315              0.736
 Vibration    20          0.854              1.253              0.661
 Vibration    21          0.908              1.134              0.538
 Vibration    22          0.936              1.077              0.487

                           ! Non-Optimized Parameters !
 Normal termination of Gaussian 16 at Wed Dec  9 17:41:02 2020.

 ----------------------------------------------------------------------
 # B3LYP/6-311++G(d,p) empiricaldispersion=gd3bj scf=xqc pop=npa geom=c
 heck
 ----------------------------------------------------------------------

 ---------------------------------------
 CID_131143323_JID_2508_Energie_neutraal
 ---------------------------------------
 Structure from the checkpoint file:  "JID_2508.chk"
 Charge =  0 Multiplicity = 1

 SCF Done:  E(RB3LYP) =  -486.698778897     A.U. after   14 cycles
 Normal termination of Gaussian 16 at Wed Dec  9 17:47:08 2020.

 ----------------------------------------------------------------------
 # B3LYP/6-311++G(d,p) empiricaldispersion=gd3bj scf=xqc pop=npa geom=c
 heck
 ----------------------------------------------------------------------

 -------------------------------------
 CID_131143323_JID_2508_Energie_kation
 -------------------------------------
 Structure from the checkpoint file:  "JID_2508.chk"
 Charge =  1 Multiplicity = 2

 SCF Done:  E(UB3LYP) =  -486.389374730     A.U. after   25 cycles
 Normal termination of Gaussian 16 at Wed Dec  9 18:00:19 2020.
 Gaussian 16:  ES64L-G16RevA.03 25-Dec-2016

 ----------------------------------------------------------------------
 # B3LYP/6-311++G(d,p) empiricaldispersion=gd3bj scf=xqc pop=npa geom=c
 heck
 ----------------------------------------------------------------------

 ------------------------------------
 CID_131143323_JID_2508_Energie_anion
 ------------------------------------
 Structure from the checkpoint file:  "JID_2508.chk"
 Charge = -1 Multiplicity = 2

                         Standard orientation:
 ---------------------------------------------------------------------
 Center     Atomic      Atomic             Coordinates (Angstroms)
 Number     Number       Type             X           Y           Z
 ---------------------------------------------------------------------
      1          6           0        2.463998    0.588067   -1.256555
      2          6           0        2.395391   -0.598726   -0.317691
      3          6           0        2.414592   -0.364634    1.169957
      4          6           0        1.191550   -0.986066    0.530323
      5          6           0       -0.168798   -0.319046    0.571805
      6          6           0       -0.694941    0.462125   -0.628988
      7          6           0       -1.274664   -0.898992   -0.318172
      8          6           0       -0.902821   -2.023644   -1.271600
      9          6           0       -2.690777   -1.059112    0.210886
     10          6           0       -1.419737    1.779171   -0.477660
     11          7           0       -0.435110    2.839207   -0.208193
     12          6           0       -0.536276    0.126812    1.982008
     13          1           0        2.098648    0.336990   -2.259973
     14          1           0        3.506982    0.912967   -1.360016
     15          1           0        1.880969    1.440223   -0.895454
     16          1           0        2.975354   -1.454066   -0.663620
     17          1           0        3.041880   -0.977299    1.812125
     18          1           0        2.338959    0.672890    1.488083
     19          1           0        1.124496   -2.061274    0.699604
     20          1           0       -0.033549    0.470991   -1.487829
     21          1           0       -0.956923   -2.999980   -0.771871
     22          1           0       -1.597703   -2.049725   -2.120622
     23          1           0        0.109082   -1.906521   -1.667925
     24          1           0       -3.017473   -0.237111    0.850241
     25          1           0       -3.399809   -1.125665   -0.624120
     26          1           0       -2.781672   -1.986168    0.791484
     27          1           0       -1.920623    2.023524   -1.423147
     28          1           0       -2.213466    1.711788    0.282903
     29          1           0       -0.903485    3.742182   -0.143844
     30          1           0       -0.014268    2.669783    0.704240
     31          1           0       -0.571559   -0.736349    2.658311
     32          1           0        0.218729    0.813510    2.381178
     33          1           0       -1.503892    0.629127    2.041725
 ---------------------------------------------------------------------

 SCF Done:  E(UB3LYP) =  -486.683011745     A.U. after   28 cycles

 The electronic state is 2-A.
 Alpha  occ. eigenvalues --  -14.18537 -10.08456 -10.07665 -10.07600 -10.07392
 Alpha  occ. eigenvalues --  -10.07017 -10.06122 -10.06038 -10.05637 -10.05500
 Alpha  occ. eigenvalues --  -10.05494 -10.05234  -0.78782  -0.76527  -0.74047
 Alpha  occ. eigenvalues --   -0.63716  -0.61441  -0.59967  -0.58746  -0.55524
 Alpha  occ. eigenvalues --   -0.50293  -0.47109  -0.43917  -0.40452  -0.39058
 Alpha  occ. eigenvalues --   -0.38455  -0.37211  -0.34534  -0.34045  -0.32088
 Alpha  occ. eigenvalues --   -0.31241  -0.30704  -0.29693  -0.29104  -0.28373
 Alpha  occ. eigenvalues --   -0.28213  -0.27357  -0.27094  -0.26870  -0.25060
 Alpha  occ. eigenvalues --   -0.23211  -0.23005  -0.19246  -0.18032  -0.15708
 Alpha  occ. eigenvalues --   -0.14541  -0.13756   0.04582
 Alpha virt. eigenvalues --    0.06615   0.07261   0.07706   0.08970   0.09194
 Alpha virt. eigenvalues --    0.09427   0.09963   0.10059   0.11614   0.11726
 Alpha virt. eigenvalues --    0.12055   0.12331   0.13299   0.13395   0.13883

  Beta  occ. eigenvalues --  -14.18500 -10.08431 -10.07664 -10.07597 -10.07383
  Beta  occ. eigenvalues --  -10.07008 -10.06104 -10.06035 -10.05625 -10.05475
  Beta  occ. eigenvalues --  -10.05469 -10.05200  -0.78750  -0.76483  -0.74022
  Beta  occ. eigenvalues --   -0.63683  -0.61408  -0.59925  -0.58696  -0.55455
  Beta  occ. eigenvalues --   -0.50249  -0.47068  -0.43877  -0.40412  -0.39015
  Beta  occ. eigenvalues --   -0.38415  -0.37168  -0.34488  -0.34009  -0.32044
  Beta  occ. eigenvalues --   -0.31213  -0.30677  -0.29653  -0.29078  -0.28348
  Beta  occ. eigenvalues --   -0.28181  -0.27327  -0.27060  -0.26837  -0.25031
  Beta  occ. eigenvalues --   -0.23186  -0.22981  -0.19224  -0.18014  -0.15689
  Beta  occ. eigenvalues --   -0.14523  -0.13717
  Beta virt. eigenvalues --    0.06701   0.07615   0.07810   0.08311   0.09434
  Beta virt. eigenvalues --    0.09672   0.09848   0.10310   0.10561   0.11944
  Beta virt. eigenvalues --    0.12185   0.12398   0.12712   0.13586   0.13721

 Mulliken charges and spin densities:
               1          2
     1  C   -0.180804  -0.527055
     2  C    0.158403  -0.173881
     3  C    1.049567  -1.688614
     4  C   -2.007100   2.286709
     5  C    1.056099  -1.211713
     6  C    0.557556  -0.791925
     7  C   -2.055143   2.490174
     8  C    0.199914  -0.678930
     9  C   -0.275556  -0.200415
    10  C    1.014127  -1.668386
    11  N   -0.543000   0.154638
    12  C    1.717517  -2.133072
    13  H    0.019876   0.112976
    14  H   -0.037061   0.168798
    15  H    0.126116   0.053612
    16  H   -0.174461   0.358384
    17  H   -0.149452   0.302047
    18  H    0.002592   0.114551
    19  H   -0.382045   0.637572
    20  H    0.323779  -0.105558
    21  H    0.041859   0.099339
    22  H   -0.083889   0.220148
    23  H   -0.188125   0.355229
    24  H   -0.184354   0.314211
    25  H   -0.011992   0.159852
    26  H   -0.129670   0.284647
    27  H   -0.213595   0.386240
    28  H   -0.099117   0.226924
    29  H   -0.266576   0.521476
    30  H    0.169595   0.049258
    31  H   -0.181221   0.362251
    32  H   -0.114301   0.240402
    33  H   -0.159536   0.280109
 Sum of Mulliken charges =  -1.00000   1.00000

 Dipole moment (field-independent basis, Debye):
    X=              1.4730    Y=             -1.0657    Z=             -1.5215  Tot=              2.3707
 Quadrupole moment (field-independent basis, Debye-Ang):
   XX=           -128.7929   YY=           -132.8381   ZZ=           -115.9368
   XY=              5.4440   XZ=              1.2780   YZ=              2.1917

 Summary of Natural Population Analysis:

                                       Natural Population
                Natural  -----------------------------------------------
    Atom  No    Charge         Core      Valence    Rydberg      Total
 -----------------------------------------------------------------------
      C    1   -0.29063      0.99964     2.28594    0.00505     3.29063
      C    2   -0.10803      0.99958     2.09836    0.01008     3.10803
      C    3   -0.19376      0.99959     2.18531    0.00886     3.19376
      C    4   -0.10950      0.99954     2.09752    0.01244     3.10950
      C    5   -0.03816      0.99948     2.02252    0.01615     3.03816
      C    6   -0.10816      0.99950     2.09656    0.01211     3.10816
      C    7   -0.03313      0.99951     2.02160    0.01202     3.03313
      C    8   -0.28062      0.99962     2.27487    0.00613     3.28062
      C    9   -0.28345      0.99962     2.27753    0.00629     3.28345
      C   10   -0.08833      0.99960     2.07693    0.01181     3.08833
      N   11   -0.42142      0.99977     2.91132    0.01033     3.92142
      C   12   -0.28453      0.99963     2.27782    0.00708     3.28453
      H   13    0.09608      0.00000     0.40285    0.00107     0.40392
      H   14    0.09653      0.00000     0.40255    0.00092     0.40347
      H   15    0.11113      0.00000     0.38715    0.00172     0.38887
      H   16    0.09757      0.00000     0.40127    0.00116     0.40243
      H   17    0.10112      0.00000     0.39782    0.00106     0.39888
      H   18    0.09898      0.00000     0.39974    0.00127     0.40102
      H   19    0.10510      0.00000     0.39333    0.00157     0.39490
      H   20    0.10629      0.00000     0.39100    0.00270     0.39371
      H   21    0.09848      0.00000     0.40045    0.00108     0.40152
      H   22    0.09794      0.00000     0.40117    0.00088     0.40206
      H   23    0.10365      0.00000     0.39529    0.00107     0.39635
      H   24    0.10260      0.00000     0.39608    0.00132     0.39740
      H   25    0.09887      0.00000     0.40010    0.00103     0.40113
      H   26    0.10009      0.00000     0.39879    0.00112     0.39991
      H   27    0.09135      0.00000     0.40747    0.00119     0.40865
      H   28    0.08248      0.00000     0.41500    0.00252     0.41752
      H   29    0.17548      0.00000     0.32195    0.00257     0.32452
      H   30    0.17289      0.00000     0.32485    0.00226     0.32711
      H   31    0.10248      0.00000     0.39626    0.00126     0.39752
      H   32    0.09886      0.00000     0.39976    0.00138     0.40114
      H   33    0.10176      0.00000     0.39685    0.00139     0.39824
 =======================================================================
   * Total *    0.00000     11.99509    34.85601    0.14890    47.00000

 Normal termination of Gaussian 16 at Wed Dec  9 18:13:53 2020.
