 Gaussian 16, Revision A.03,

 -----------------------------------------------------------
 # opt freq B3LYP/6-31G(d) empiricaldispersion=gd3bj scf=xqc
 -----------------------------------------------------------

 ------------------------------
 CID_83820616_JID_5971_neutraal
 ------------------------------
 Symbolic Z-matrix:
 Charge =  0 Multiplicity = 1

 SCF Done:  E(RB3LYP) =  -704.860984379     A.U. after   14 cycles
 SCF Done:  E(RB3LYP) =  -704.864372934     A.U. after   12 cycles
 SCF Done:  E(RB3LYP) =  -704.864597656     A.U. after   12 cycles
 SCF Done:  E(RB3LYP) =  -704.864663495     A.U. after   12 cycles
 SCF Done:  E(RB3LYP) =  -704.864886451     A.U. after   11 cycles
 SCF Done:  E(RB3LYP) =  -704.864977508     A.U. after   11 cycles
 SCF Done:  E(RB3LYP) =  -704.865043025     A.U. after   11 cycles
 SCF Done:  E(RB3LYP) =  -704.865070131     A.U. after   10 cycles
 SCF Done:  E(RB3LYP) =  -704.865092557     A.U. after   10 cycles
 SCF Done:  E(RB3LYP) =  -704.865094976     A.U. after    8 cycles
 SCF Done:  E(RB3LYP) =  -704.865096537     A.U. after    8 cycles
 SCF Done:  E(RB3LYP) =  -704.865097503     A.U. after    8 cycles
 SCF Done:  E(RB3LYP) =  -704.865098152     A.U. after    8 cycles
 SCF Done:  E(RB3LYP) =  -704.865098854     A.U. after    9 cycles
 SCF Done:  E(RB3LYP) =  -704.865099193     A.U. after    8 cycles
 SCF Done:  E(RB3LYP) =  -704.865099246     A.U. after    7 cycles
 Optimization completed.
    -- Stationary point found.
 Normal termination of Gaussian 16 at Thu Dec 10 17:47:42 2020.

 --------------------------------------------------------------------
 #N Geom=AllCheck Guess=TCheck SCRF=Check GenChk RB3LYP/6-31G(d) Freq
 --------------------------------------------------------------------

 Structure from the checkpoint file:  "JID_5971.chk"
 ------------------------------
 CID_83820616_JID_5971_neutraal
 ------------------------------
 Charge =  0 Multiplicity = 1

 SCF Done:  E(RB3LYP) =  -704.865099246     A.U. after    1 cycles

  Exact polarizability: 172.090  -2.194 113.882   2.766   4.209  86.654
 Approx polarizability: 202.017  -2.612 184.505   6.514   7.959 146.730

                      1                      2                      3
                      A                      A                      A
 Frequencies --     31.7657                32.8417                47.1421
 Red. masses --      7.1132                 4.9302                 4.0676
 Frc consts  --      0.0042                 0.0031                 0.0053
 IR Inten    --      3.0149                 4.3604                 1.1751

                      4                      5                      6
                      A                      A                      A
 Frequencies --     74.6236               104.6844               152.8814
 Red. masses --      4.5308                 4.7014                 3.7678
 Frc consts  --      0.0149                 0.0304                 0.0519
 IR Inten    --      0.9423                 4.3703                 0.5275

                      7                      8                      9
                      A                      A                      A
 Frequencies --    190.9390               243.0207               247.6138
 Red. masses --      4.1771                 1.8549                 5.4613
 Frc consts  --      0.0897                 0.0645                 0.1973
 IR Inten    --      3.4366                 1.8848                 0.9969

                     10                     11                     12
                      A                      A                      A
 Frequencies --    280.7393               312.9902               360.4761
 Red. masses --      2.6583                 3.8262                 2.5333
 Frc consts  --      0.1234                 0.2208                 0.1939
 IR Inten    --      7.3478                 3.6831                19.6444

                     13                     14                     15
                      A                      A                      A
 Frequencies --    411.2250               428.2620               450.5095
 Red. masses --      3.6799                 1.4221                 1.9426
 Frc consts  --      0.3666                 0.1537                 0.2323
 IR Inten    --     10.5179                48.5083                10.3471

                     16                     17                     18
                      A                      A                      A
 Frequencies --    471.1481               485.5386               527.0170
 Red. masses --      3.4653                 3.2375                 1.8146
 Frc consts  --      0.4532                 0.4497                 0.2969
 IR Inten    --      4.1233                 4.1864                16.4535

                     19                     20                     21
                      A                      A                      A
 Frequencies --    581.4316               625.3322               641.0019
 Red. masses --      3.0298                 3.9922                 4.1429
 Frc consts  --      0.6035                 0.9198                 1.0029
 IR Inten    --     26.1617                13.1125                27.5744

                     22                     23                     24
                      A                      A                      A
 Frequencies --    671.4557               687.0052               705.4471
 Red. masses --      1.2964                 1.3951                 2.6023
 Frc consts  --      0.3444                 0.3880                 0.7630
 IR Inten    --     33.0453               101.8084                11.1204

                     25                     26                     27
                      A                      A                      A
 Frequencies --    745.3853               822.3521               836.9785
 Red. masses --      5.1299                 1.9854                 1.8675
 Frc consts  --      1.6793                 0.7911                 0.7708
 IR Inten    --      3.1225                 1.9601                 2.8240

                     28                     29                     30
                      A                      A                      A
 Frequencies --    837.9206               885.4027               905.5603
 Red. masses --      1.2800                 3.7762                 3.3374
 Frc consts  --      0.5295                 1.7442                 1.6125
 IR Inten    --      9.1130                 2.2911                24.3592

                     31                     32                     33
                      A                      A                      A
 Frequencies --    924.8663               943.3698               972.9655
 Red. masses --      2.2392                 4.9778                 1.5361
 Frc consts  --      1.1285                 2.6101                 0.8568
 IR Inten    --      2.6080                 2.1299                 5.2591

                     34                     35                     36
                      A                      A                      A
 Frequencies --    992.9341              1014.4910              1027.7768
 Red. masses --      2.3067                 1.8468                 2.5183
 Frc consts  --      1.3399                 1.1199                 1.5673
 IR Inten    --     29.2146                 2.3182                 0.6917

                     37                     38                     39
                      A                      A                      A
 Frequencies --   1078.5198              1101.3597              1113.2781
 Red. masses --      1.7898                 1.5681                 2.2190
 Frc consts  --      1.2266                 1.1207                 1.6204
 IR Inten    --     36.1027                13.0514                 8.5289

                     40                     41                     42
                      A                      A                      A
 Frequencies --   1132.8501              1136.4174              1153.3807
 Red. masses --      2.8111                 2.0418                 2.5551
 Frc consts  --      2.1255                 1.5536                 2.0026
 IR Inten    --     53.0474                33.3672                25.4808

                     43                     44                     45
                      A                      A                      A
 Frequencies --   1172.0524              1184.9853              1197.0475
 Red. masses --      2.5910                 2.3025                 1.3740
 Frc consts  --      2.0971                 1.9049                 1.1600
 IR Inten    --    190.0939                57.2400                 3.0500

                     46                     47                     48
                      A                      A                      A
 Frequencies --   1219.3482              1235.3087              1288.7019
 Red. masses --      1.7859                 1.5983                 1.4877
 Frc consts  --      1.5645                 1.4370                 1.4557
 IR Inten    --     11.8777                 6.1312                 8.6559

                     49                     50                     51
                      A                      A                      A
 Frequencies --   1296.0421              1307.2134              1317.7187
 Red. masses --      1.4606                 1.3551                 1.2574
 Frc consts  --      1.4455                 1.3643                 1.2863
 IR Inten    --     17.8547                17.6519                19.3189

                     52                     53                     54
                      A                      A                      A
 Frequencies --   1339.1627              1355.3804              1367.5590
 Red. masses --      1.7163                 1.4435                 1.3505
 Frc consts  --      1.8135                 1.5624                 1.4881
 IR Inten    --      4.8716                22.4106                36.0495

                     55                     56                     57
                      A                      A                      A
 Frequencies --   1391.6853              1401.9344              1403.6880
 Red. masses --      1.6269                 1.6709                 1.5952
 Frc consts  --      1.8564                 1.9349                 1.8518
 IR Inten    --      4.0244                 3.7735                13.5922

                     58                     59                     60
                      A                      A                      A
 Frequencies --   1425.4253              1436.5384              1441.7502
 Red. masses --      1.7323                 1.6520                 1.7315
 Frc consts  --      2.0738                 2.0086                 2.1205
 IR Inten    --     20.0628                76.0984                 7.1672

                     61                     62                     63
                      A                      A                      A
 Frequencies --   1486.1326              1486.8995              1506.4094
 Red. masses --      1.5840                 1.8684                 1.1110
 Frc consts  --      2.0612                 2.4338                 1.4855
 IR Inten    --     28.3111                47.4816                 1.4144

                     64                     65                     66
                      A                      A                      A
 Frequencies --   1518.7062              1521.9851              1536.4462
 Red. masses --      1.0939                 1.0845                 1.1032
 Frc consts  --      1.4866                 1.4801                 1.5344
 IR Inten    --      9.5355                 1.6965                24.8961

                     67                     68                     69
                      A                      A                      A
 Frequencies --   1563.7137              1619.2839              1841.9093
 Red. masses --      4.5292                 5.0110                 9.5231
 Frc consts  --      6.5251                 7.7414                19.0355
 IR Inten    --     31.4652               355.1504               228.6343

                     70                     71                     72
                      A                      A                      A
 Frequencies --   2965.0432              2977.6015              3033.6331
 Red. masses --      1.0735                 1.0743                 1.0754
 Frc consts  --      5.5603                 5.6120                 5.8311
 IR Inten    --     42.9167                54.2325                 3.0492

                     73                     74                     75
                      A                      A                      A
 Frequencies --   3036.1452              3042.8150              3047.7917
 Red. masses --      1.0617                 1.0656                 1.0709
 Frc consts  --      5.7661                 5.8132                 5.8609
 IR Inten    --     15.6830                 8.7691                48.9659

                     76                     77                     78
                      A                      A                      A
 Frequencies --   3078.8900              3085.9842              3097.1961
 Red. masses --      1.1024                 1.0984                 1.0892
 Frc consts  --      6.1569                 6.1630                 6.1561
 IR Inten    --     17.0188                41.2070                46.1827

                     79                     80                     81
                      A                      A                      A
 Frequencies --   3116.5683              3148.5826              3260.9753
 Red. masses --      1.0962                 1.0891                 1.0921
 Frc consts  --      6.2734                 6.3613                 6.8422
 IR Inten    --     20.3820                 7.8027                11.4463

                     82                     83                     84
                      A                      A                      A
 Frequencies --   3294.8898              3667.1068              3682.9663
 Red. masses --      1.1034                 1.0800                 1.0639
 Frc consts  --      7.0580                 8.5573                 8.5028
 IR Inten    --      6.6181                29.9770                46.3718

 - Thermochemistry -
 -------------------
 Temperature   298.150 Kelvin.  Pressure   1.00000 Atm.
 Atom     1 has atomic number  6 and mass  12.00000

 Molecular mass:   209.11643 amu.
 Principal axes and moments of inertia in atomic units:
                           1         2         3
     Eigenvalues --   825.192537790.768988271.45186
           X            0.99998  -0.00588   0.00246
           Y            0.00584   0.99986   0.01572
           Z           -0.00255  -0.01570   0.99987
 This molecule is an asymmetric top.
 Rotational symmetry number  1.
 Warning -- assumption of classical behavior for rotation
           may cause significant error
 Rotational temperatures (Kelvin)      0.10496     0.01112     0.01047
 Rotational constants (GHZ):           2.18705     0.23165     0.21819
 Zero-point vibrational energy     668653.4 (Joules/Mol)
                                  159.81200 (Kcal/Mol)
 Warning -- explicit consideration of  19 degrees of freedom as
           vibrations may cause significant error
 Vibrational temperatures:     45.70    47.25    67.83   107.37   150.62
          (Kelvin)            219.96   274.72   349.65   356.26   403.92
                              450.32   518.64   591.66   616.17   648.18
                              677.88   698.58   758.26   836.55   899.71
                              922.26   966.08   988.45  1014.98  1072.44
                             1183.18  1204.23  1205.58  1273.90  1302.90
                             1330.68  1357.30  1399.88  1428.61  1459.63
                             1478.74  1551.75  1584.61  1601.76  1629.92
                             1635.05  1659.46  1686.32  1704.93  1722.28
                             1754.37  1777.33  1854.15  1864.72  1880.79
                             1895.90  1926.76  1950.09  1967.61  2002.32
                             2017.07  2019.59  2050.87  2066.86  2074.36
                             2138.21  2139.32  2167.39  2185.08  2189.80
                             2210.60  2249.84  2329.79  2650.10  4266.04
                             4284.10  4364.72  4368.34  4377.93  4385.09
                             4429.84  4440.04  4456.17  4484.05  4530.11
                             4691.82  4740.61  5276.15  5298.97

 Zero-point correction=                           0.254677 (Hartree/Particle)
 Thermal correction to Energy=                    0.268372
 Thermal correction to Enthalpy=                  0.269316
 Thermal correction to Gibbs Free Energy=         0.212399
 Sum of electronic and zero-point Energies=           -704.610423
 Sum of electronic and thermal Energies=              -704.596728
 Sum of electronic and thermal Enthalpies=            -704.595783
 Sum of electronic and thermal Free Energies=         -704.652701

                     E (Thermal)             CV                S
                      KCal/Mol        Cal/Mol-Kelvin    Cal/Mol-Kelvin
 Total                  168.406             52.281            119.793
 Electronic               0.000              0.000              0.000
 Translational            0.889              2.981             41.917
 Rotational               0.889              2.981             32.342
 Vibrational            166.628             46.319             45.534
 Vibration     1          0.594              1.983              5.716
 Vibration     2          0.594              1.983              5.650
 Vibration     3          0.595              1.979              4.934
 Vibration     4          0.599              1.966              4.028
 Vibration     5          0.605              1.945              3.365
 Vibration     6          0.619              1.899              2.636
 Vibration     7          0.634              1.852              2.219
 Vibration     8          0.659              1.774              1.781
 Vibration     9          0.661              1.767              1.748
 Vibration    10          0.680              1.709              1.529
 Vibration    11          0.701              1.649              1.346
 Vibration    12          0.735              1.554              1.120
 Vibration    13          0.775              1.446              0.922
 Vibration    14          0.790              1.409              0.864
 Vibration    15          0.809              1.360              0.794
 Vibration    16          0.828              1.314              0.734
 Vibration    17          0.842              1.282              0.695
 Vibration    18          0.882              1.190              0.594
 Vibration    19          0.938              1.071              0.483

                           ! Non-Optimized Parameters !
 Normal termination of Gaussian 16 at Thu Dec 10 17:56:07 2020.

 ----------------------------------------------------------------------
 # B3LYP/6-311++G(d,p) empiricaldispersion=gd3bj scf=xqc pop=npa geom=c
 heck
 ----------------------------------------------------------------------

 --------------------------------------
 CID_83820616_JID_5971_Energie_neutraal
 --------------------------------------
 Structure from the checkpoint file:  "JID_5971.chk"
 Charge =  0 Multiplicity = 1

 SCF Done:  E(RB3LYP) =  -705.073908463     A.U. after   14 cycles
 Normal termination of Gaussian 16 at Thu Dec 10 17:59:32 2020.

 ----------------------------------------------------------------------
 # B3LYP/6-311++G(d,p) empiricaldispersion=gd3bj scf=xqc pop=npa geom=c
 heck
 ----------------------------------------------------------------------

 ------------------------------------
 CID_83820616_JID_5971_Energie_kation
 ------------------------------------
 Structure from the checkpoint file:  "JID_5971.chk"
 Charge =  1 Multiplicity = 2

 SCF Done:  E(UB3LYP) =  -704.805426673     A.U. after   20 cycles
 Normal termination of Gaussian 16 at Thu Dec 10 18:05:27 2020.
 Gaussian 16:  ES64L-G16RevA.03 25-Dec-2016

 ----------------------------------------------------------------------
 # B3LYP/6-311++G(d,p) empiricaldispersion=gd3bj scf=xqc pop=npa geom=c
 heck
 ----------------------------------------------------------------------

 -----------------------------------
 CID_83820616_JID_5971_Energie_anion
 -----------------------------------
 Structure from the checkpoint file:  "JID_5971.chk"
 Charge = -1 Multiplicity = 2

                         Standard orientation:
 ---------------------------------------------------------------------
 Center     Atomic      Atomic             Coordinates (Angstroms)
 Number     Number       Type             X           Y           Z
 ---------------------------------------------------------------------
      1          6           0       -0.994757   -0.851210   -0.304811
      2          6           0        0.430075   -1.009901    0.222197
      3          7           0        1.263214    0.124405   -0.192672
      4          6           0        0.741802    1.415088    0.267053
      5          6           0       -0.674670    1.630936   -0.261777
      6          6           0       -1.608209    0.482719    0.143911
      7          6           0       -3.014841    0.689074   -0.419568
      8          6           0       -4.040514   -0.271220    0.139710
      9          8           0       -3.883349   -1.023978    1.076581
     10          8           0       -5.216361   -0.185846   -0.531281
     11          6           0        2.639435   -0.017620   -0.049870
     12          7           0        3.473303    0.908674    0.383767
     13          6           0        4.736088    0.351671    0.267675
     14          6           0        4.666397   -0.920915   -0.223106
     15          7           0        3.308118   -1.158290   -0.419650
     16          1           0       -1.606323   -1.685901    0.050624
     17          1           0       -0.972169   -0.888431   -1.402779
     18          1           0        0.415106   -1.098728    1.323549
     19          1           0        0.860179   -1.937359   -0.167135
     20          1           0        1.420799    2.193099   -0.083601
     21          1           0        0.745490    1.462196    1.370078
     22          1           0       -0.640594    1.706506   -1.357100
     23          1           0       -1.057089    2.586619    0.118890
     24          1           0       -1.683884    0.465222    1.239887
     25          1           0       -3.374012    1.704013   -0.198754
     26          1           0       -3.021758    0.605362   -1.513682
     27          1           0       -5.821678   -0.813845   -0.093663
     28          1           0        5.616592    0.905898    0.562146
     29          1           0        5.410411   -1.674923   -0.428648
     30          1           0        2.909322   -1.966391   -0.870819
 ---------------------------------------------------------------------

 SCF Done:  E(UB3LYP) =  -705.065335573     A.U. after   32 cycles

 The electronic state is 2-A.
 Alpha  occ. eigenvalues --  -19.07930 -19.02855 -14.26142 -14.23779 -14.19087
 Alpha  occ. eigenvalues --  -10.22008 -10.16067 -10.11168 -10.10718 -10.09941
 Alpha  occ. eigenvalues --  -10.09920 -10.09197 -10.08753 -10.08366 -10.07609
 Alpha  occ. eigenvalues --   -1.02128  -0.93274  -0.92572  -0.84743  -0.77278
 Alpha  occ. eigenvalues --   -0.73957  -0.67282  -0.66963  -0.63072  -0.56575
 Alpha  occ. eigenvalues --   -0.55082  -0.51582  -0.50404  -0.48885  -0.47813
 Alpha  occ. eigenvalues --   -0.45833  -0.41103  -0.39903  -0.39249  -0.38345
 Alpha  occ. eigenvalues --   -0.37660  -0.36867  -0.35184  -0.34715  -0.33637
 Alpha  occ. eigenvalues --   -0.33172  -0.32080  -0.31747  -0.30882  -0.29659
 Alpha  occ. eigenvalues --   -0.28713  -0.26763  -0.25023  -0.24309  -0.23468
 Alpha  occ. eigenvalues --   -0.23181  -0.19725  -0.19061  -0.18330  -0.18019
 Alpha  occ. eigenvalues --   -0.10534   0.03884
 Alpha virt. eigenvalues --    0.05158   0.06762   0.07326   0.07892   0.08313
 Alpha virt. eigenvalues --    0.08997   0.09656   0.10227   0.10767   0.10958
 Alpha virt. eigenvalues --    0.11690   0.11889   0.12885   0.13072   0.13661

  Beta  occ. eigenvalues --  -19.07876 -19.02842 -14.26090 -14.23777 -14.19082
  Beta  occ. eigenvalues --  -10.22008 -10.16066 -10.11144 -10.10715 -10.09917
  Beta  occ. eigenvalues --  -10.09903 -10.09194 -10.08754 -10.08358 -10.07595
  Beta  occ. eigenvalues --   -1.02062  -0.93217  -0.92539  -0.84724  -0.77221
  Beta  occ. eigenvalues --   -0.73937  -0.67258  -0.66923  -0.63032  -0.56522
  Beta  occ. eigenvalues --   -0.55046  -0.51485  -0.50337  -0.48832  -0.47769
  Beta  occ. eigenvalues --   -0.45802  -0.41068  -0.39877  -0.39219  -0.38297
  Beta  occ. eigenvalues --   -0.37640  -0.36835  -0.35151  -0.34673  -0.33610
  Beta  occ. eigenvalues --   -0.33150  -0.32038  -0.31727  -0.30847  -0.29632
  Beta  occ. eigenvalues --   -0.28687  -0.26740  -0.24985  -0.24283  -0.23437
  Beta  occ. eigenvalues --   -0.23157  -0.19685  -0.19030  -0.18307  -0.18007
  Beta  occ. eigenvalues --   -0.10518
  Beta virt. eigenvalues --    0.06259   0.06814   0.07389   0.07789   0.08270
  Beta virt. eigenvalues --    0.08405   0.09292   0.09937   0.10624   0.10864
  Beta virt. eigenvalues --    0.11220   0.11598   0.11890   0.12919   0.13481

 Mulliken charges and spin densities:
               1          2
     1  C    0.050002  -0.398265
     2  C    0.224065  -0.778319
     3  N    0.123004   0.084454
     4  C   -0.250556  -0.142018
     5  C    0.386250  -0.894805
     6  C   -0.589150   1.169426
     7  C    0.686299  -1.245847
     8  C   -0.132254   0.097224
     9  O   -0.255656  -0.013974
    10  O   -0.163896   0.029686
    11  C    0.355132  -0.690897
    12  N   -0.162404  -0.004116
    13  C    0.284302  -0.311927
    14  C   -0.089291  -0.041078
    15  N   -0.218500   0.063763
    16  H    0.172027   0.014253
    17  H   -0.194529   0.359842
    18  H    0.153857  -0.004782
    19  H   -0.306054   0.441164
    20  H    0.231340  -0.015423
    21  H    0.076961   0.077152
    22  H    0.098760   0.071975
    23  H    0.124515   0.015276
    24  H    0.193876  -0.011617
    25  H   -0.284957   0.482429
    26  H    0.121931   0.081945
    27  H   -0.533132   0.827746
    28  H    0.104103   0.041266
    29  H   -0.739777   0.903832
    30  H   -0.466268   0.791635
 Sum of Mulliken charges =  -1.00000   1.00000

 Dipole moment (field-independent basis, Debye):
    X=              1.5995    Y=              5.2840    Z=              1.7142  Tot=              5.7808
 Quadrupole moment (field-independent basis, Debye-Ang):
   XX=           -209.8012   YY=           -130.5542   ZZ=           -116.8876
   XY=              4.2535   XZ=              4.0498   YZ=             -4.9974

 Summary of Natural Population Analysis:

                                       Natural Population
                Natural  -----------------------------------------------
    Atom  No    Charge         Core      Valence    Rydberg      Total
 -----------------------------------------------------------------------
      C    1   -0.19581      0.99960     2.18627    0.00994     3.19581
      C    2   -0.07847      0.99961     2.06734    0.01153     3.07847
      N    3   -0.26774      0.99964     2.75765    0.01045     3.76774
      C    4   -0.08132      0.99962     2.07207    0.00963     3.08132
      C    5   -0.18970      0.99961     2.18273    0.00737     3.18970
      C    6   -0.11387      0.99959     2.10330    0.01098     3.11387
      C    7   -0.23848      0.99956     2.22932    0.00960     3.23848
      C    8    0.41049      0.99972     1.56487    0.02493     2.58951
      O    9   -0.30732      0.99987     3.30138    0.00607     4.30732
      O   10   -0.34416      0.99988     3.33774    0.00655     4.34416
      C   11    0.28694      0.99960     1.69545    0.01802     2.71306
      N   12   -0.28485      0.99969     2.77662    0.00854     3.78485
      C   13   -0.03849      0.99958     2.02510    0.01382     3.03849
      C   14   -0.04667      0.99956     2.03333    0.01377     3.04667
      N   15   -0.28260      0.99966     2.77231    0.01063     3.78260
      H   16    0.11098      0.00000     0.38802    0.00100     0.38902
      H   17    0.09747      0.00000     0.40085    0.00168     0.40253
      H   18    0.08419      0.00000     0.41448    0.00133     0.41581
      H   19    0.10154      0.00000     0.39653    0.00192     0.39846
      H   20    0.11091      0.00000     0.38770    0.00139     0.38909
      H   21    0.08503      0.00000     0.41355    0.00142     0.41497
      H   22    0.09784      0.00000     0.40078    0.00138     0.40216
      H   23    0.09882      0.00000     0.40023    0.00094     0.40118
      H   24    0.10119      0.00000     0.39694    0.00187     0.39881
      H   25    0.11551      0.00000     0.38345    0.00103     0.38449
      H   26    0.11382      0.00000     0.38498    0.00119     0.38618
      H   27    0.24462      0.00000     0.23530    0.02007     0.25538
      H   28    0.09377      0.00000     0.40538    0.00085     0.40623
      H   29    0.10446      0.00000     0.39415    0.00139     0.39554
      H   30    0.21190      0.00000     0.27409    0.01401     0.28810
 =======================================================================
   * Total *   -0.00000     14.99477    40.78192    0.22331    56.00000

 Normal termination of Gaussian 16 at Thu Dec 10 18:14:43 2020.
