 Gaussian 16, Revision A.03,

 -----------------------------------------------------------
 # opt freq B3LYP/6-31G(d) empiricaldispersion=gd3bj scf=xqc
 -----------------------------------------------------------

 --------------------------------
 CID_144049703_JID_10556_neutraal
 --------------------------------
 Symbolic Z-matrix:
 Charge =  0 Multiplicity = 1

 SCF Done:  E(RB3LYP) =  -840.828531111     A.U. after   14 cycles
 SCF Done:  E(RB3LYP) =  -840.839263868     A.U. after   13 cycles
 SCF Done:  E(RB3LYP) =  -840.841640969     A.U. after   13 cycles
 SCF Done:  E(RB3LYP) =  -840.842619369     A.U. after   13 cycles
 SCF Done:  E(RB3LYP) =  -840.843044888     A.U. after   13 cycles
 SCF Done:  E(RB3LYP) =  -840.843217183     A.U. after   12 cycles
 SCF Done:  E(RB3LYP) =  -840.843315029     A.U. after   12 cycles
 SCF Done:  E(RB3LYP) =  -840.843351518     A.U. after   11 cycles
 SCF Done:  E(RB3LYP) =  -840.843370693     A.U. after   11 cycles
 SCF Done:  E(RB3LYP) =  -840.843390280     A.U. after   11 cycles
 SCF Done:  E(RB3LYP) =  -840.844009853     A.U. after    7 cycles
 SCF Done:  E(RB3LYP) =  -840.844009915     A.U. after    7 cycles
 SCF Done:  E(RB3LYP) =  -840.844010014     A.U. after    7 cycles
 SCF Done:  E(RB3LYP) =  -840.844010151     A.U. after    7 cycles
 SCF Done:  E(RB3LYP) =  -840.844010213     A.U. after    7 cycles
 Optimization completed.
    -- Stationary point found.
 Normal termination of Gaussian 16 at Sun Dec 13 13:40:55 2020.

 --------------------------------------------------------------------
 #N Geom=AllCheck Guess=TCheck SCRF=Check GenChk RB3LYP/6-31G(d) Freq
 --------------------------------------------------------------------

 Structure from the checkpoint file:  "JID_10556.chk"
 --------------------------------
 CID_144049703_JID_10556_neutraal
 --------------------------------
 Charge =  0 Multiplicity = 1

 SCF Done:  E(RB3LYP) =  -840.844010212     A.U. after    1 cycles

  Exact polarizability: 335.117 -32.008 112.469   8.615  24.666 183.455
 Approx polarizability: 452.727 -47.061 164.232  14.904  55.106 334.308

 ******    1 imaginary frequencies (negative Signs) ******

                      1                      2                      3
                      A                      A                      A
 Frequencies --     -5.9911                10.5561                13.4248
 Red. masses --      2.1161                 4.1351                 2.5001
 Frc consts  --      0.0000                 0.0003                 0.0003
 IR Inten    --      0.1725                 0.7212                 0.0080

                      4                      5                      6
                      A                      A                      A
 Frequencies --     20.0849                44.8594                53.1995
 Red. masses --      1.2646                 2.8662                 1.6378
 Frc consts  --      0.0003                 0.0034                 0.0027
 IR Inten    --      0.0190                 1.2614                 0.1292

                      7                      8                      9
                      A                      A                      A
 Frequencies --     53.8553                58.6423                60.1743
 Red. masses --      2.1316                 1.4278                 1.2206
 Frc consts  --      0.0036                 0.0029                 0.0026
 IR Inten    --      0.8193                 0.1649                 0.0047

                     10                     11                     12
                      A                      A                      A
 Frequencies --     74.9868                84.4004               121.2666
 Red. masses --      3.7440                 4.3313                 4.0966
 Frc consts  --      0.0124                 0.0182                 0.0355
 IR Inten    --      0.1655                 0.4956                 0.1932

                     13                     14                     15
                      A                      A                      A
 Frequencies --    165.0203               191.2631               232.7894
 Red. masses --      4.9092                 3.9305                 4.9175
 Frc consts  --      0.0788                 0.0847                 0.1570
 IR Inten    --      2.3980                 3.0845                 3.2678

                     16                     17                     18
                      A                      A                      A
 Frequencies --    241.0523               250.8579               311.1822
 Red. masses --      4.4906                 4.1424                 3.0760
 Frc consts  --      0.1537                 0.1536                 0.1755
 IR Inten    --      1.8631                 0.7471                 3.6435

                     19                     20                     21
                      A                      A                      A
 Frequencies --    315.5789               327.6259               348.1128
 Red. masses --      1.0080                 4.2766                 2.8321
 Frc consts  --      0.0591                 0.2705                 0.2022
 IR Inten    --      0.0030                 1.8574                 3.6297

                     22                     23                     24
                      A                      A                      A
 Frequencies --    383.8183               412.7815               422.9436
 Red. masses --      1.4646                 3.0047                 3.0615
 Frc consts  --      0.1271                 0.3016                 0.3227
 IR Inten    --    133.2819                 2.2691                79.4757

                     25                     26                     27
                      A                      A                      A
 Frequencies --    449.9791               497.3494               501.3657
 Red. masses --      2.8639                 1.3408                 4.8749
 Frc consts  --      0.3417                 0.1954                 0.7220
 IR Inten    --      4.6087               115.7157                17.8238

                     28                     29                     30
                      A                      A                      A
 Frequencies --    525.8317               549.3903               608.9182
 Red. masses --      3.0400                 4.9299                 5.3894
 Frc consts  --      0.4952                 0.8767                 1.1774
 IR Inten    --      2.4098                 6.2391                 4.4339

                     31                     32                     33
                      A                      A                      A
 Frequencies --    611.0848               632.3850               649.2893
 Red. masses --      4.2963                 3.8715                 4.7728
 Frc consts  --      0.9453                 0.9122                 1.1855
 IR Inten    --      0.3487                 9.7503                 7.2692

                     34                     35                     36
                      A                      A                      A
 Frequencies --    659.2913               702.1542               703.9655
 Red. masses --      6.4389                 4.9662                 4.2286
 Frc consts  --      1.6490                 1.4426                 1.2347
 IR Inten    --      0.1499                 2.5489                 2.5153

                     37                     38                     39
                      A                      A                      A
 Frequencies --    726.6963               741.9820               788.5304
 Red. masses --      1.8934                 4.0180                 2.0118
 Frc consts  --      0.5891                 1.3033                 0.7370
 IR Inten    --      0.3617                 2.0449                25.3443

                     40                     41                     42
                      A                      A                      A
 Frequencies --    790.0086               812.5083               831.4927
 Red. masses --      1.4530                 5.2059                 1.0576
 Frc consts  --      0.5343                 2.0249                 0.4308
 IR Inten    --     50.8754                 4.1759                 3.7717

                     43                     44                     45
                      A                      A                      A
 Frequencies --    834.0710               842.0596               849.6205
 Red. masses --      1.0688                 1.6248                 5.2560
 Frc consts  --      0.4381                 0.6788                 2.2354
 IR Inten    --      3.0683                13.5871                 3.0059

                     46                     47                     48
                      A                      A                      A
 Frequencies --    857.3784               955.7741               967.5622
 Red. masses --      1.3750                 1.3235                 7.9633
 Frc consts  --      0.5955                 0.7123                 4.3924
 IR Inten    --      3.8014                 0.3986                10.3692

                     49                     50                     51
                      A                      A                      A
 Frequencies --    976.6751               992.9014              1013.9296
 Red. masses --      1.3150                 2.5116                 3.2398
 Frc consts  --      0.7391                 1.4588                 1.9624
 IR Inten    --      0.6121                 0.6965                 0.5341

                     52                     53                     54
                      A                      A                      A
 Frequencies --   1019.6866              1020.2298              1044.0286
 Red. masses --      1.6741                 1.6054                 2.8903
 Frc consts  --      1.0256                 0.9845                 1.8562
 IR Inten    --      7.3171                 4.0825                 3.3650

                     55                     56                     57
                      A                      A                      A
 Frequencies --   1068.5956              1075.2172              1096.7606
 Red. masses --      1.5460                 1.5272                 1.6896
 Frc consts  --      1.0401                 1.0402                 1.1974
 IR Inten    --      3.0650                17.7351                 1.5426

                     58                     59                     60
                      A                      A                      A
 Frequencies --   1106.9795              1154.2513              1194.1054
 Red. masses --      1.8137                 1.3554                 3.2219
 Frc consts  --      1.3095                 1.0639                 2.7067
 IR Inten    --      6.2184                 7.5566                 3.0914

                     61                     62                     63
                      A                      A                      A
 Frequencies --   1208.3902              1222.3210              1233.3476
 Red. masses --      2.2775                 1.1530                 1.4719
 Frc consts  --      1.9594                 1.0149                 1.3192
 IR Inten    --      9.1891                 9.8536                 0.2866

                     64                     65                     66
                      A                      A                      A
 Frequencies --   1235.3977              1247.9691              1258.9612
 Red. masses --      1.4657                 3.1992                 2.0949
 Frc consts  --      1.3180                 2.9356                 1.9564
 IR Inten    --      0.0857                 2.1593                 5.3644

                     67                     68                     69
                      A                      A                      A
 Frequencies --   1279.1193              1328.0811              1334.7385
 Red. masses --      7.7869                 4.0084                 2.6826
 Frc consts  --      7.5065                 4.1655                 2.8158
 IR Inten    --     31.1297                11.2227                 0.1782

                     70                     71                     72
                      A                      A                      A
 Frequencies --   1356.5013              1385.5038              1424.8763
 Red. masses --      2.3754                 4.1347                 1.3417
 Frc consts  --      2.5753                 4.6763                 1.6050
 IR Inten    --      0.1596                24.1288                 3.3000

                     73                     74                     75
                      A                      A                      A
 Frequencies --   1433.2546              1440.8406              1444.9219
 Red. masses --      1.1973                 1.2634                 3.6155
 Frc consts  --      1.4491                 1.5453                 4.4475
 IR Inten    --      1.0406                 1.0426                17.3388

                     76                     77                     78
                      A                      A                      A
 Frequencies --   1453.9452              1465.8431              1472.4045
 Red. masses --      1.2578                 3.8787                 3.2120
 Frc consts  --      1.5665                 4.9103                 4.1028
 IR Inten    --      3.3340                63.2996                20.1523

                     79                     80                     81
                      A                      A                      A
 Frequencies --   1504.8102              1509.3001              1513.1022
 Red. masses --      1.7749                 1.6710                 1.0469
 Frc consts  --      2.3680                 2.2427                 1.4122
 IR Inten    --     40.8575                24.7605                 6.9000

                     82                     83                     84
                      A                      A                      A
 Frequencies --   1517.0420              1524.5783              1527.6677
 Red. masses --      1.0505                 1.2054                 1.0465
 Frc consts  --      1.4244                 1.6508                 1.4390
 IR Inten    --      4.4684                23.0844                 3.8546

                     85                     86                     87
                      A                      A                      A
 Frequencies --   1531.5606              1536.1321              1537.2489
 Red. masses --      1.0198                 1.0575                 1.0607
 Frc consts  --      1.4094                 1.4702                 1.4768
 IR Inten    --      0.4734                 3.4244                 7.2932

                     88                     89                     90
                      A                      A                      A
 Frequencies --   1579.9723              1588.3643              1604.4649
 Red. masses --      3.4773                 3.7400                 2.6511
 Frc consts  --      5.1143                 5.5593                 4.0210
 IR Inten    --     35.9079                21.7891                95.6400

                     91                     92                     93
                      A                      A                      A
 Frequencies --   1630.2390              1659.8477              1679.4853
 Red. masses --      5.5403                 2.4146                 5.7961
 Frc consts  --      8.6753                 3.9195                 9.6325
 IR Inten    --      9.0188               407.2651                10.6407

                     94                     95                     96
                      A                      A                      A
 Frequencies --   1694.3088              3039.6156              3044.6928
 Red. masses --      3.9096                 1.0409                 1.0356
 Frc consts  --      6.6126                 5.6664                 5.6561
 IR Inten    --    392.0444                40.4345                33.4659

                     97                     98                     99
                      A                      A                      A
 Frequencies --   3048.6944              3053.7201              3096.3584
 Red. masses --      1.0392                 1.0379                 1.1016
 Frc consts  --      5.6911                 5.7025                 6.2225
 IR Inten    --     28.3567                30.9808                 0.9703

                    100                    101                    102
                      A                      A                      A
 Frequencies --   3097.5302              3100.0178              3101.9627
 Red. masses --      1.0949                 1.1004                 1.1014
 Frc consts  --      6.1894                 6.2308                 6.2438
 IR Inten    --     24.5972                17.7084                18.8099

                    103                    104                    105
                      A                      A                      A
 Frequencies --   3121.3034              3125.1579              3138.2429
 Red. masses --      1.1028                 1.1028                 1.1010
 Frc consts  --      6.3301                 6.3459                 6.3884
 IR Inten    --     53.4676                18.9069                37.0611

                    106                    107                    108
                      A                      A                      A
 Frequencies --   3164.5720              3178.1592              3179.2269
 Red. masses --      1.0995                 1.0891                 1.0883
 Frc consts  --      6.4878                 6.4813                 6.4812
 IR Inten    --      7.5815                19.9914                26.7546

                    109                    110                    111
                      A                      A                      A
 Frequencies --   3207.1613              3219.3696              3223.4156
 Red. masses --      1.0925                 1.0915                 1.0919
 Frc consts  --      6.6211                 6.6651                 6.6847
 IR Inten    --     13.1252                 6.3263                 4.3238

                    112                    113                    114
                      A                      A                      A
 Frequencies --   3298.1739              3569.8925              3701.1462
 Red. masses --      1.0966                 1.0483                 1.1002
 Frc consts  --      7.0283                 7.8709                 8.8797
 IR Inten    --      0.1590                55.4807                57.4440

 - Thermochemistry -
 -------------------
 Temperature   298.150 Kelvin.  Pressure   1.00000 Atm.
 Atom     1 has atomic number  6 and mass  12.00000

 Molecular mass:   268.16880 amu.
 Principal axes and moments of inertia in atomic units:
                           1         2         3
     Eigenvalues --  2801.65102********************
           X            0.99997   0.00795  -0.00121
           Y           -0.00799   0.99934  -0.03548
           Z            0.00093   0.03548   0.99937
 This molecule is an asymmetric top.
 Rotational symmetry number  1.
 Warning -- assumption of classical behavior for rotation
           may cause significant error
 Rotational temperatures (Kelvin)      0.03092     0.00693     0.00679
 Rotational constants (GHZ):           0.64417     0.14448     0.14150
    1 imaginary frequencies ignored.
 Zero-point vibrational energy     879993.8 (Joules/Mol)
                                  210.32357 (Kcal/Mol)
 Warning -- explicit consideration of  30 degrees of freedom as
           vibrations may cause significant error
 Vibrational temperatures:     15.19    19.32    28.90    64.54    76.54
          (Kelvin)             77.49    84.37    86.58   107.89   121.43
                              174.48   237.43   275.18   334.93   346.82
                              360.93   447.72   454.05   471.38   500.86
                              552.23   593.90   608.52   647.42   715.57
                              721.35   756.55   790.45   876.10   879.21
                              909.86   934.18   948.57  1010.24  1012.85
                             1045.55  1067.55  1134.52  1136.65  1169.02
                             1196.33  1200.04  1211.54  1222.41  1233.58
                             1375.15  1392.11  1405.22  1428.56  1458.82
                             1467.10  1467.88  1502.12  1537.47  1547.00
                             1577.99  1592.70  1660.71  1718.05  1738.60
                             1758.65  1774.51  1777.46  1795.55  1811.36
                             1840.37  1910.81  1920.39  1951.70  1993.43
                             2050.08  2062.13  2073.05  2078.92  2091.90
                             2109.02  2118.46  2165.09  2171.55  2177.02
                             2182.69  2193.53  2197.97  2203.57  2210.15
                             2211.76  2273.23  2285.30  2308.47  2345.55
                             2388.15  2416.40  2437.73  4373.33  4380.63
                             4386.39  4393.62  4454.97  4456.66  4460.23
                             4463.03  4490.86  4496.41  4515.23  4553.11
                             4572.66  4574.20  4614.39  4631.95  4637.78
                             4745.34  5136.28  5325.12

 Zero-point correction=                           0.335172 (Hartree/Particle)
 Thermal correction to Energy=                    0.355768
 Thermal correction to Enthalpy=                  0.356712
 Thermal correction to Gibbs Free Energy=         0.280246
 Sum of electronic and zero-point Energies=           -840.508838
 Sum of electronic and thermal Energies=              -840.488242
 Sum of electronic and thermal Enthalpies=            -840.487298
 Sum of electronic and thermal Free Energies=         -840.563764

                     E (Thermal)             CV                S
                      KCal/Mol        Cal/Mol-Kelvin    Cal/Mol-Kelvin
 Total                  223.248             74.660            160.937
 Electronic               0.000              0.000              0.000
 Translational            0.889              2.981             42.658
 Rotational               0.889              2.981             34.456
 Vibrational            221.470             68.699             83.823
 Vibration     1          0.593              1.987              7.904
 Vibration     2          0.593              1.987              7.426
 Vibration     3          0.593              1.986              6.626
 Vibration     4          0.595              1.979              5.032
 Vibration     5          0.596              1.976              4.695
 Vibration     6          0.596              1.976              4.671
 Vibration     7          0.596              1.974              4.502
 Vibration     8          0.597              1.973              4.451
 Vibration     9          0.599              1.966              4.018
 Vibration    10          0.601              1.960              3.786
 Vibration    11          0.609              1.931              3.080
 Vibration    12          0.623              1.885              2.491
 Vibration    13          0.634              1.852              2.216
 Vibration    14          0.654              1.791              1.857
 Vibration    15          0.658              1.778              1.795
 Vibration    16          0.663              1.761              1.725
 Vibration    17          0.700              1.652              1.356
 Vibration    18          0.703              1.644              1.333
 Vibration    19          0.711              1.620              1.272
 Vibration    20          0.726              1.579              1.175
 Vibration    21          0.753              1.505              1.024
 Vibration    22          0.777              1.442              0.917
 Vibration    23          0.785              1.420              0.882
 Vibration    24          0.809              1.361              0.796
 Vibration    25          0.853              1.256              0.665
 Vibration    26          0.857              1.247              0.655
 Vibration    27          0.881              1.193              0.597
 Vibration    28          0.905              1.141              0.545
 Vibration    29          0.968              1.013              0.435
 Vibration    30          0.970              1.008              0.431

                           ! Non-Optimized Parameters !
 Normal termination of Gaussian 16 at Sun Dec 13 13:57:16 2020.

 ----------------------------------------------------------------------
 # B3LYP/6-311++G(d,p) empiricaldispersion=gd3bj scf=xqc pop=npa geom=c
 heck
 ----------------------------------------------------------------------

 ----------------------------------------
 CID_144049703_JID_10556_Energie_neutraal
 ----------------------------------------
 Structure from the checkpoint file:  "JID_10556.chk"
 Charge =  0 Multiplicity = 1

 SCF Done:  E(RB3LYP) =  -841.068131370     A.U. after   15 cycles
 Normal termination of Gaussian 16 at Sun Dec 13 14:04:13 2020.

 ----------------------------------------------------------------------
 # B3LYP/6-311++G(d,p) empiricaldispersion=gd3bj scf=xqc pop=npa geom=c
 heck
 ----------------------------------------------------------------------

 --------------------------------------
 CID_144049703_JID_10556_Energie_kation
 --------------------------------------
 Structure from the checkpoint file:  "JID_10556.chk"
 Charge =  1 Multiplicity = 2

 SCF Done:  E(UB3LYP) =  -840.799195606     A.U. after   26 cycles
 Normal termination of Gaussian 16 at Sun Dec 13 14:20:15 2020.
 Gaussian 16:  ES64L-G16RevA.03 25-Dec-2016

 ----------------------------------------------------------------------
 # B3LYP/6-311++G(d,p) empiricaldispersion=gd3bj scf=xqc pop=npa geom=c
 heck
 ----------------------------------------------------------------------

 -------------------------------------
 CID_144049703_JID_10556_Energie_anion
 -------------------------------------
 Structure from the checkpoint file:  "JID_10556.chk"
 Charge = -1 Multiplicity = 2

                         Standard orientation:
 ---------------------------------------------------------------------
 Center     Atomic      Atomic             Coordinates (Angstroms)
 Number     Number       Type             X           Y           Z
 ---------------------------------------------------------------------
      1          6           0        3.854746    2.247311   -0.569526
      2          6           0        3.624145    3.709120   -0.955551
      3          6           0        5.566809   -1.311570    0.329541
      4          6           0        4.069601   -1.162769    0.229718
      5          6           0        3.405652   -1.344597   -0.988886
      6          6           0        2.031432   -1.154245   -1.096118
      7          6           0        1.270418   -0.779016    0.020093
      8          6           0        1.931145   -0.607229    1.246590
      9          6           0        3.304454   -0.797884    1.345113
     10          6           0       -0.179629   -0.571794   -0.084102
     11          7           0       -0.865918   -0.086804    0.973237
     12          7           0       -2.145402   -0.027144    0.531444
     13          6           0       -3.193775    0.428227    1.276365
     14          6           0       -4.426888    0.442536    0.648566
     15          6           0       -4.533282   -0.013789   -0.691222
     16          7           0       -3.504229   -0.456243   -1.402822
     17          6           0       -2.301362   -0.458921   -0.791720
     18          6           0       -1.017254   -0.818004   -1.194189
     19          6           0       -5.880298   -0.007077   -1.365904
     20          7           0       -2.905841    0.775668    2.560372
     21          1           0        4.433791    1.717857   -1.334517
     22          1           0        2.910923    1.708112   -0.445634
     23          1           0        4.403861    2.164558    0.375410
     24          1           0        4.571242    4.247421   -1.079834
     25          1           0        3.072665    3.789007   -1.899601
     26          1           0        3.042951    4.236251   -0.189859
     27          1           0        5.950306   -2.022104   -0.410098
     28          1           0        6.067920   -0.350830    0.150392
     29          1           0        5.870766   -1.656688    1.323420
     30          1           0        3.975328   -1.631783   -1.869422
     31          1           0        1.547389   -1.292879   -2.057850
     32          1           0        1.350803   -0.326051    2.118503
     33          1           0        3.795901   -0.658208    2.305185
     34          1           0       -5.300998    0.788480    1.188262
     35          1           0       -0.751349   -1.211376   -2.162142
     36          1           0       -5.778764   -0.370516   -2.389940
     37          1           0       -6.591258   -0.647772   -0.829805
     38          1           0       -6.305925    1.003668   -1.386127
     39          1           0       -1.919973    0.888938    2.764677
     40          1           0       -3.551339    1.383786    3.040757
 ---------------------------------------------------------------------

 SCF Done:  E(UB3LYP) =  -841.067878597     A.U. after   33 cycles
 SCF Done:  E(UB3LYP) =  -841.067878597     a.u. after    1 cycles

 The electronic state is 2-A.
 Alpha  occ. eigenvalues --  -14.28686 -14.22710 -14.20449 -14.18541 -10.14966
 Alpha  occ. eigenvalues --  -10.12057 -10.11114 -10.07930 -10.07336 -10.07121
 Alpha  occ. eigenvalues --  -10.07089 -10.06295 -10.06012 -10.05900 -10.05868
 Alpha  occ. eigenvalues --  -10.05849 -10.05805 -10.05798 -10.05275 -10.04156
 Alpha  occ. eigenvalues --   -0.95335  -0.83315  -0.82650  -0.75073  -0.72596
 Alpha  occ. eigenvalues --   -0.68463  -0.67011  -0.65974  -0.64055  -0.63267
 Alpha  occ. eigenvalues --   -0.61534  -0.58738  -0.53281  -0.52290  -0.50735
 Alpha  occ. eigenvalues --   -0.49973  -0.48640  -0.46194  -0.44991  -0.41421
 Alpha  occ. eigenvalues --   -0.39735  -0.37639  -0.36794  -0.36672  -0.35071
 Alpha  occ. eigenvalues --   -0.34308  -0.34232  -0.33729  -0.33473  -0.32684
 Alpha  occ. eigenvalues --   -0.32538  -0.32004  -0.30804  -0.29600  -0.28736
 Alpha  occ. eigenvalues --   -0.28610  -0.27848  -0.27243  -0.26853  -0.25376
 Alpha  occ. eigenvalues --   -0.25184  -0.24466  -0.23723  -0.23401  -0.23041
 Alpha  occ. eigenvalues --   -0.19707  -0.17547  -0.15081  -0.14915  -0.14508
 Alpha  occ. eigenvalues --   -0.11043  -0.09684   0.03914
 Alpha virt. eigenvalues --    0.05934   0.06302   0.07375   0.07548   0.08439
 Alpha virt. eigenvalues --    0.08491   0.08931   0.09417   0.09736   0.09972
 Alpha virt. eigenvalues --    0.10412   0.10670   0.10902   0.11221   0.11955

  Beta  occ. eigenvalues --  -14.28732 -14.22644 -14.20355 -14.18420 -10.14773
  Beta  occ. eigenvalues --  -10.12039 -10.11108 -10.07804 -10.07352 -10.07118
  Beta  occ. eigenvalues --  -10.07084 -10.06097 -10.06031 -10.05936 -10.05844
  Beta  occ. eigenvalues --  -10.05777 -10.05777 -10.05724 -10.05196 -10.04147
  Beta  occ. eigenvalues --   -0.95253  -0.83132  -0.82488  -0.74867  -0.72417
  Beta  occ. eigenvalues --   -0.68352  -0.66770  -0.65966  -0.63915  -0.63136
  Beta  occ. eigenvalues --   -0.61450  -0.58626  -0.53074  -0.52273  -0.50675
  Beta  occ. eigenvalues --   -0.49761  -0.48554  -0.46042  -0.44896  -0.41291
  Beta  occ. eigenvalues --   -0.39625  -0.37550  -0.36674  -0.36397  -0.34953
  Beta  occ. eigenvalues --   -0.34303  -0.34226  -0.33644  -0.33416  -0.32608
  Beta  occ. eigenvalues --   -0.32322  -0.31949  -0.30771  -0.29529  -0.28683
  Beta  occ. eigenvalues --   -0.28546  -0.27783  -0.27169  -0.26348  -0.25187
  Beta  occ. eigenvalues --   -0.25151  -0.24147  -0.23604  -0.23054  -0.22965
  Beta  occ. eigenvalues --   -0.19572  -0.17007  -0.14916  -0.14552  -0.14134
  Beta  occ. eigenvalues --   -0.10365  -0.09163
  Beta virt. eigenvalues --    0.06125   0.06849   0.07174   0.07718   0.07983
  Beta virt. eigenvalues --    0.08396   0.08652   0.09000   0.09659   0.09754
  Beta virt. eigenvalues --    0.10238   0.10590   0.10689   0.10793   0.11256

 Mulliken charges and spin densities:
               1          2
     1  C   -0.313282   0.034438
     2  C   -0.320733  -0.249043
     3  C   -0.398680  -0.148193
     4  C    0.429969   0.088143
     5  C   -0.752138   0.016917
     6  C   -0.698917   0.080656
     7  C    0.870673  -0.020567
     8  C   -0.047154   0.120989
     9  C   -0.400951   0.021566
    10  C   -0.499737  -0.017697
    11  N    0.260485   0.067198
    12  N   -0.075287  -0.124234
    13  C    0.729460  -0.605000
    14  C   -0.301519   0.324290
    15  C    0.090298  -0.138003
    16  N   -0.099271   0.075166
    17  C   -0.212889   0.178410
    18  C   -0.349174   0.002853
    19  C    0.021474  -0.438656
    20  N   -0.461970   0.112372
    21  H    0.089247   0.033762
    22  H    0.163561   0.034875
    23  H    0.089419   0.033158
    24  H    0.067041   0.044592
    25  H    0.101275   0.026821
    26  H    0.078250   0.053379
    27  H    0.123777  -0.003089
    28  H    0.094848   0.085676
    29  H    0.123857  -0.003215
    30  H    0.146390   0.009158
    31  H    0.103510   0.001388
    32  H    0.186208  -0.005194
    33  H    0.120386   0.029280
    34  H   -0.260491   0.435208
    35  H    0.149841   0.000628
    36  H    0.144720   0.002732
    37  H    0.137696   0.005711
    38  H    0.095229   0.048541
    39  H    0.176666   0.109360
    40  H   -0.402088   0.675627
 Sum of Mulliken charges =  -1.00000   1.00000

 Dipole moment (field-independent basis, Debye):
    X=              3.8577    Y=             -1.4517    Z=             -2.3788  Tot=              4.7590
 Quadrupole moment (field-independent basis, Debye-Ang):
   XX=           -190.7120   YY=           -149.3672   ZZ=           -149.7191
   XY=              5.4536   XZ=              9.7342   YZ=             -5.8679

 Summary of Natural Population Analysis:

                                       Natural Population
                Natural  -----------------------------------------------
    Atom  No    Charge         Core      Valence    Rydberg      Total
 -----------------------------------------------------------------------
      C    1   -0.28883      0.99968     2.28405    0.00510     3.28883
      C    2   -0.28598      0.99969     2.28264    0.00365     3.28598
      C    3   -0.28948      0.99961     2.28547    0.00440     3.28948
      C    4    0.01198      0.99943     1.97857    0.01002     2.98802
      C    5   -0.11504      0.99954     2.10748    0.00802     3.11504
      C    6   -0.07800      0.99955     2.06899    0.00945     3.07800
      C    7   -0.02382      0.99942     2.01429    0.01011     3.02382
      C    8   -0.07459      0.99957     2.06403    0.01100     3.07459
      C    9   -0.11200      0.99947     2.10289    0.00964     3.11200
      C   10    0.10321      0.99957     1.88195    0.01528     2.89679
      N   11   -0.17491      0.99970     2.66407    0.01114     3.67491
      N   12   -0.11438      0.99957     2.60456    0.01026     3.61438
      C   13    0.24928      0.99954     1.73780    0.01338     2.75072
      C   14   -0.19047      0.99949     2.18146    0.00953     3.19047
      C   15    0.11928      0.99958     1.86560    0.01554     2.88072
      N   16   -0.25384      0.99964     2.74347    0.01073     3.75384
      C   17    0.18606      0.99955     1.80039    0.01399     2.81394
      C   18   -0.16712      0.99948     2.16029    0.00735     3.16712
      C   19   -0.29802      0.99963     2.29354    0.00485     3.29802
      N   20   -0.38551      0.99970     2.87680    0.00901     3.88551
      H   21    0.09386      0.00000     0.40483    0.00130     0.40614
      H   22    0.10919      0.00000     0.38931    0.00150     0.39081
      H   23    0.09391      0.00000     0.40476    0.00133     0.40609
      H   24    0.08918      0.00000     0.40970    0.00112     0.41082
      H   25    0.09407      0.00000     0.40484    0.00109     0.40593
      H   26    0.09495      0.00000     0.40396    0.00109     0.40505
      H   27    0.09725      0.00000     0.40185    0.00090     0.40275
      H   28    0.10121      0.00000     0.39677    0.00202     0.39879
      H   29    0.09780      0.00000     0.40128    0.00092     0.40220
      H   30    0.09257      0.00000     0.40654    0.00088     0.40743
      H   31    0.09582      0.00000     0.40303    0.00115     0.40418
      H   32    0.10650      0.00000     0.39253    0.00097     0.39350
      H   33    0.09285      0.00000     0.40636    0.00079     0.40715
      H   34    0.10526      0.00000     0.39382    0.00092     0.39474
      H   35    0.10677      0.00000     0.39252    0.00071     0.39323
      H   36    0.10717      0.00000     0.39166    0.00117     0.39283
      H   37    0.09987      0.00000     0.39902    0.00110     0.40013
      H   38    0.10094      0.00000     0.39791    0.00115     0.39906
      H   39    0.20604      0.00000     0.29170    0.00226     0.29396
      H   40    0.19699      0.00000     0.29458    0.00842     0.30301
 =======================================================================
   * Total *    0.00004     19.99140    51.78533    0.22323    71.99996

 Normal termination of Gaussian 16 at Sun Dec 13 14:40:46 2020.
