 Gaussian 16, Revision A.03,

 -----------------------------------------------------------
 # opt freq B3LYP/6-31G(d) empiricaldispersion=gd3bj scf=xqc
 -----------------------------------------------------------

 -------------------------------
 CID_131228752_JID_1834_neutraal
 -------------------------------
 Symbolic Z-matrix:
 Charge =  0 Multiplicity = 1

 SCF Done:  E(RB3LYP) =  -519.006595475     A.U. after   13 cycles
 SCF Done:  E(RB3LYP) =  -519.015398707     A.U. after   12 cycles
 SCF Done:  E(RB3LYP) =  -519.016680861     A.U. after   11 cycles
 SCF Done:  E(RB3LYP) =  -519.017186354     A.U. after   11 cycles
 SCF Done:  E(RB3LYP) =  -519.017627021     A.U. after   11 cycles
 SCF Done:  E(RB3LYP) =  -519.018413573     A.U. after   12 cycles
 SCF Done:  E(RB3LYP) =  -519.018963244     A.U. after   11 cycles
 SCF Done:  E(RB3LYP) =  -519.019019255     A.U. after   10 cycles
 SCF Done:  E(RB3LYP) =  -519.019018799     A.U. after   11 cycles
 SCF Done:  E(RB3LYP) =  -519.019053620     A.U. after   10 cycles
 SCF Done:  E(RB3LYP) =  -519.019055837     A.U. after    8 cycles
 SCF Done:  E(RB3LYP) =  -519.019055990     A.U. after    8 cycles
 SCF Done:  E(RB3LYP) =  -519.019056006     A.U. after    6 cycles
 Optimization completed.
    -- Stationary point found.
 Normal termination of Gaussian 16 at Tue Dec  8 21:30:49 2020.

 --------------------------------------------------------------------
 #N Geom=AllCheck Guess=TCheck SCRF=Check GenChk RB3LYP/6-31G(d) Freq
 --------------------------------------------------------------------

 Structure from the checkpoint file:  "JID_1834.chk"
 -------------------------------
 CID_131228752_JID_1834_neutraal
 -------------------------------
 Charge =  0 Multiplicity = 1

 SCF Done:  E(RB3LYP) =  -519.019056006     A.U. after    1 cycles

  Exact polarizability: 108.691   2.600 100.209   2.045  -1.841  81.078
 Approx polarizability: 157.646   6.052 127.397   2.705  -3.450 117.476

                      1                      2                      3
                      A                      A                      A
 Frequencies --     43.0267                44.7190                78.4895
 Red. masses --      3.5564                 3.6271                 3.0138
 Frc consts  --      0.0039                 0.0043                 0.0109
 IR Inten    --      0.4796                 0.6086                 1.8539

                      4                      5                      6
                      A                      A                      A
 Frequencies --    112.6938               120.3147               135.4003
 Red. masses --      2.2400                 2.3726                 2.1702
 Frc consts  --      0.0168                 0.0202                 0.0234
 IR Inten    --      0.4531                 6.1110                 0.9284

                      7                      8                      9
                      A                      A                      A
 Frequencies --    164.6429               188.8998               204.4193
 Red. masses --      2.0531                 1.6463                 1.7006
 Frc consts  --      0.0328                 0.0346                 0.0419
 IR Inten    --      2.7266                 0.4570                 0.1788

                     10                     11                     12
                      A                      A                      A
 Frequencies --    234.0576               278.2327               358.7893
 Red. masses --      2.1696                 2.2358                 2.5272
 Frc consts  --      0.0700                 0.1020                 0.1917
 IR Inten    --      0.2560                24.4892                 5.0437

                     13                     14                     15
                      A                      A                      A
 Frequencies --    373.9240               420.5578               450.3908
 Red. masses --      2.6699                 2.5564                 2.3806
 Frc consts  --      0.2199                 0.2664                 0.2845
 IR Inten    --      1.0721                 0.4248                 6.5341

                     16                     17                     18
                      A                      A                      A
 Frequencies --    472.7679               670.6209               679.5647
 Red. masses --      3.5448                 3.1910                 3.3673
 Frc consts  --      0.4668                 0.8455                 0.9162
 IR Inten    --      1.9735                31.5092                23.7474

                     19                     20                     21
                      A                      A                      A
 Frequencies --    730.5465               892.6322               909.9350
 Red. masses --      2.0273                 1.9329                 2.0963
 Frc consts  --      0.6375                 0.9074                 1.0226
 IR Inten    --     38.9463                 1.1257                15.4807

                     22                     23                     24
                      A                      A                      A
 Frequencies --    944.1945               944.9323               950.5605
 Red. masses --      3.0183                 4.0972                 1.9872
 Frc consts  --      1.5854                 2.1554                 1.0579
 IR Inten    --     72.5322                 7.0529                 4.0409

                     25                     26                     27
                      A                      A                      A
 Frequencies --    996.7731              1005.3462              1023.8352
 Red. masses --      2.7378                 1.8684                 3.4449
 Frc consts  --      1.6027                 1.1126                 2.1276
 IR Inten    --      3.3796                21.7595                12.7678

                     28                     29                     30
                      A                      A                      A
 Frequencies --   1098.6759              1104.2338              1118.0800
 Red. masses --      2.3207                 1.8169                 1.6186
 Frc consts  --      1.6505                 1.3053                 1.1921
 IR Inten    --      5.0459                 9.4851                15.1134

                     31                     32                     33
                      A                      A                      A
 Frequencies --   1121.9741              1139.0005              1142.3061
 Red. masses --      2.1323                 4.6892                 3.6924
 Frc consts  --      1.5815                 3.5842                 2.8388
 IR Inten    --      1.2478               215.0355                 5.1505

                     34                     35                     36
                      A                      A                      A
 Frequencies --   1192.4694              1193.3435              1198.7325
 Red. masses --      1.2660                 1.2701                 1.2878
 Frc consts  --      1.0606                 1.0657                 1.0903
 IR Inten    --      4.3640                 2.8147                 0.5217

                     37                     38                     39
                      A                      A                      A
 Frequencies --   1218.5767              1230.4529              1277.2450
 Red. masses --      1.5635                 1.5870                 1.7419
 Frc consts  --      1.3679                 1.4156                 1.6743
 IR Inten    --     60.1805                 1.2942                 0.5065

                     40                     41                     42
                      A                      A                      A
 Frequencies --   1282.5403              1328.4354              1329.7381
 Red. masses --      2.0898                 1.2521                 1.2240
 Frc consts  --      2.0254                 1.3019                 1.2752
 IR Inten    --     19.5540                12.7816                14.4016

                     43                     44                     45
                      A                      A                      A
 Frequencies --   1360.6989              1389.6089              1402.7697
 Red. masses --      1.4930                 1.2723                 1.3045
 Frc consts  --      1.6286                 1.4475                 1.5124
 IR Inten    --      1.7840                13.1022                12.7279

                     46                     47                     48
                      A                      A                      A
 Frequencies --   1416.3043              1495.5578              1499.9723
 Red. masses --      1.2642                 1.1341                 1.1512
 Frc consts  --      1.4941                 1.4946                 1.5261
 IR Inten    --     19.1510                 0.4395                 0.1535

                     49                     50                     51
                      A                      A                      A
 Frequencies --   1512.3610              1513.1511              1517.2818
 Red. masses --      1.0555                 1.0551                 1.0838
 Frc consts  --      1.4224                 1.4234                 1.4701
 IR Inten    --      1.7045                 3.7196                 5.5217

                     52                     53                     54
                      A                      A                      A
 Frequencies --   1518.2087              1519.0940              1541.1550
 Red. masses --      1.0824                 1.0933                 1.0901
 Frc consts  --      1.4700                 1.4865                 1.5256
 IR Inten    --      1.6280                 7.7633                 3.5676

                     55                     56                     57
                      A                      A                      A
 Frequencies --   1542.9033              1543.2783              1807.5703
 Red. masses --      1.0612                 1.0672                10.0933
 Frc consts  --      1.4884                 1.4976                19.4300
 IR Inten    --      7.8953                 8.3088                 9.2448

                     58                     59                     60
                      A                      A                      A
 Frequencies --   2989.3307              2992.2356              2996.3962
 Red. masses --      1.0433                 1.0449                 1.0638
 Frc consts  --      5.4932                 5.5119                 5.6272
 IR Inten    --     32.3543                39.6059                38.8254

                     61                     62                     63
                      A                      A                      A
 Frequencies --   3002.2662              3006.1999              3009.3771
 Red. masses --      1.0683                 1.0687                 1.0691
 Frc consts  --      5.6732                 5.6906                 5.7045
 IR Inten    --     30.0208               122.3512                35.2267

                     64                     65                     66
                      A                      A                      A
 Frequencies --   3043.7779              3050.3155              3062.5959
 Red. masses --      1.0978                 1.0968                 1.0958
 Frc consts  --      5.9925                 6.0127                 6.0559
 IR Inten    --     49.3768                45.8453                37.0951

                     67                     68                     69
                      A                      A                      A
 Frequencies --   3064.6891              3104.1266              3109.4460
 Red. masses --      1.0957                 1.0939                 1.0945
 Frc consts  --      6.0633                 6.2104                 6.2349
 IR Inten    --     41.1813                18.6237                17.8061

                     70                     71                     72
                      A                      A                      A
 Frequencies --   3137.9536              3139.3695              3515.5473
 Red. masses --      1.0972                 1.0978                 1.0762
 Frc consts  --      6.3654                 6.3745                 7.8368
 IR Inten    --     36.3167                34.9534                 2.6840

 - Thermochemistry -
 -------------------
 Temperature   298.150 Kelvin.  Pressure   1.00000 Atm.
 Atom     1 has atomic number  6 and mass  12.00000

 Molecular mass:   157.11028 amu.
 Principal axes and moments of inertia in atomic units:
                           1         2         3
     Eigenvalues --  1692.526771896.791703160.81116
           X            0.99957  -0.02897   0.00480
           Y            0.02893   0.99956   0.00648
           Z           -0.00499  -0.00634   0.99997
 This molecule is an asymmetric top.
 Rotational symmetry number  1.
 Warning -- assumption of classical behavior for rotation
           may cause significant error
 Rotational temperatures (Kelvin)      0.05117     0.04566     0.02740
 Rotational constants (GHZ):           1.06630     0.95147     0.57097
 Zero-point vibrational energy     599386.6 (Joules/Mol)
                                  143.25684 (Kcal/Mol)
 Warning -- explicit consideration of  16 degrees of freedom as
           vibrations may cause significant error
 Vibrational temperatures:     61.91    64.34   112.93   162.14   173.11
          (Kelvin)            194.81   236.88   271.78   294.11   336.76
                              400.31   516.22   537.99   605.09   648.01
                              680.21   964.87   977.74  1051.09  1284.30
                             1309.19  1358.49  1359.55  1367.64  1434.13
                             1446.47  1473.07  1580.75  1588.75  1608.67
                             1614.27  1638.77  1643.52  1715.70  1716.96
                             1724.71  1753.26  1770.35  1837.67  1845.29
                             1911.32  1913.20  1957.74  1999.34  2018.27
                             2037.75  2151.77  2158.13  2175.95  2177.09
                             2183.03  2184.36  2185.64  2217.38  2219.89
                             2220.43  2600.69  4300.98  4305.16  4311.15
                             4319.59  4325.25  4329.82  4379.32  4388.72
                             4406.39  4409.40  4466.15  4473.80  4514.82
                             4516.85  5058.09

 Zero-point correction=                           0.228294 (Hartree/Particle)
 Thermal correction to Energy=                    0.240907
 Thermal correction to Enthalpy=                  0.241852
 Thermal correction to Gibbs Free Energy=         0.188383
 Sum of electronic and zero-point Energies=           -518.790762
 Sum of electronic and thermal Energies=              -518.778149
 Sum of electronic and thermal Enthalpies=            -518.777204
 Sum of electronic and thermal Free Energies=         -518.830673

                     E (Thermal)             CV                S
                      KCal/Mol        Cal/Mol-Kelvin    Cal/Mol-Kelvin
 Total                  151.172             44.205            112.535
 Electronic               0.000              0.000              0.000
 Translational            0.889              2.981             41.065
 Rotational               0.889              2.981             30.696
 Vibrational            149.394             38.243             40.774
 Vibration     1          0.595              1.980              5.115
 Vibration     2          0.595              1.980              5.038
 Vibration     3          0.600              1.964              3.928
 Vibration     4          0.607              1.939              3.222
 Vibration     5          0.609              1.932              3.095
 Vibration     6          0.613              1.918              2.868
 Vibration     7          0.623              1.886              2.496
 Vibration     8          0.633              1.855              2.239
 Vibration     9          0.640              1.834              2.093
 Vibration    10          0.654              1.789              1.848
 Vibration    11          0.679              1.714              1.545
 Vibration    12          0.734              1.557              1.127
 Vibration    13          0.745              1.526              1.064
 Vibration    14          0.783              1.426              0.890
 Vibration    15          0.809              1.360              0.795
 Vibration    16          0.830              1.310              0.730

 Optimization completed.
    -- Stationary point found.
 Normal termination of Gaussian 16 at Tue Dec  8 21:37:10 2020.

 ----------------------------------------------------------------------
 # B3LYP/6-311++G(d,p) empiricaldispersion=gd3bj scf=xqc pop=npa geom=c
 heck
 ----------------------------------------------------------------------

 ---------------------------------------
 CID_131228752_JID_1834_Energie_neutraal
 ---------------------------------------
 Structure from the checkpoint file:  "JID_1834.chk"
 Charge =  0 Multiplicity = 1

 SCF Done:  E(RB3LYP) =  -519.173989870     A.U. after   14 cycles
 Normal termination of Gaussian 16 at Tue Dec  8 21:42:47 2020.

 ----------------------------------------------------------------------
 # B3LYP/6-311++G(d,p) empiricaldispersion=gd3bj scf=xqc pop=npa geom=c
 heck
 ----------------------------------------------------------------------

 -------------------------------------
 CID_131228752_JID_1834_Energie_kation
 -------------------------------------
 Structure from the checkpoint file:  "JID_1834.chk"
 Charge =  1 Multiplicity = 2

 SCF Done:  E(UB3LYP) =  -518.863590030     A.U. after   25 cycles
 Normal termination of Gaussian 16 at Tue Dec  8 21:50:12 2020.
 Gaussian 16:  ES64L-G16RevA.03 25-Dec-2016

 ----------------------------------------------------------------------
 # B3LYP/6-311++G(d,p) empiricaldispersion=gd3bj scf=xqc pop=npa geom=c
 heck
 ----------------------------------------------------------------------

 ------------------------------------
 CID_131228752_JID_1834_Energie_anion
 ------------------------------------
 Structure from the checkpoint file:  "JID_1834.chk"
 Charge = -1 Multiplicity = 2

                         Standard orientation:
 ---------------------------------------------------------------------
 Center     Atomic      Atomic             Coordinates (Angstroms)
 Number     Number       Type             X           Y           Z
 ---------------------------------------------------------------------
      1          6           0        1.423978   -2.681531   -0.508010
      2          8           0        2.088725   -1.606613    0.123089
      3          6           0        1.207432   -0.771771    0.870558
      4          6           0        0.286485    0.031096   -0.015611
      5          6           0       -1.029716   -0.169352   -0.040177
      6          6           0       -1.999332   -1.087642    0.685244
      7          7           0       -3.124612   -0.256102    0.168677
      8          6           0       -2.207646    0.469244   -0.757503
      9          6           0        0.956754    1.074330   -0.876489
     10          8           0        1.564956    2.104973   -0.104232
     11          6           0        0.620901    2.943720    0.532006
     12          1           0        2.187698   -3.270513   -1.022101
     13          1           0        0.680484   -2.337203   -1.241809
     14          1           0        0.910545   -3.323557    0.226888
     15          1           0        0.631028   -1.374858    1.589375
     16          1           0        1.861577   -0.094496    1.427874
     17          1           0       -1.974921   -2.122963    0.309298
     18          1           0       -1.939719   -1.120507    1.780317
     19          1           0       -3.845741   -0.793048   -0.306520
     20          1           0       -2.293360    1.561795   -0.700020
     21          1           0       -2.286987    0.174177   -1.815721
     22          1           0        1.777466    0.615106   -1.436475
     23          1           0        0.241990    1.506246   -1.594822
     24          1           0       -0.030142    3.444134   -0.203560
     25          1           0       -0.017316    2.391363    1.236485
     26          1           0        1.187096    3.701600    1.079092
 ---------------------------------------------------------------------

 SCF Done:  E(UB3LYP) =  -519.161786015     A.U. after   31 cycles

 The electronic state is 2-A.
 Alpha  occ. eigenvalues --  -19.02848 -19.02276 -14.18578 -10.11590 -10.11500
 Alpha  occ. eigenvalues --  -10.11426 -10.10329 -10.08772 -10.08770 -10.07675
 Alpha  occ. eigenvalues --  -10.06403  -0.93984  -0.93250  -0.82076  -0.69785
 Alpha  occ. eigenvalues --   -0.62147  -0.61482  -0.57487  -0.56289  -0.53622
 Alpha  occ. eigenvalues --   -0.49158  -0.41835  -0.41152  -0.39195  -0.38577
 Alpha  occ. eigenvalues --   -0.37376  -0.36950  -0.35723  -0.35640  -0.32409
 Alpha  occ. eigenvalues --   -0.30644  -0.29118  -0.28283  -0.27831  -0.27212
 Alpha  occ. eigenvalues --   -0.25858  -0.23444  -0.21651  -0.21282  -0.17016
 Alpha  occ. eigenvalues --   -0.15939  -0.15566  -0.11866   0.04713
 Alpha virt. eigenvalues --    0.06950   0.07766   0.08308   0.09059   0.09838
 Alpha virt. eigenvalues --    0.10088   0.10250   0.10986   0.11551   0.12418
 Alpha virt. eigenvalues --    0.13099   0.13515   0.13850   0.14681   0.15217

  Beta  occ. eigenvalues --  -19.02836 -19.02270 -14.18539 -10.11584 -10.11484
  Beta  occ. eigenvalues --  -10.11422 -10.10290 -10.08737 -10.08736 -10.07655
  Beta  occ. eigenvalues --  -10.06383  -0.93957  -0.93238  -0.82017  -0.69738
  Beta  occ. eigenvalues --   -0.62116  -0.61424  -0.57401  -0.56200  -0.53572
  Beta  occ. eigenvalues --   -0.49097  -0.41715  -0.41110  -0.39157  -0.38548
  Beta  occ. eigenvalues --   -0.37330  -0.36913  -0.35687  -0.35606  -0.32378
  Beta  occ. eigenvalues --   -0.30600  -0.29051  -0.28250  -0.27788  -0.27183
  Beta  occ. eigenvalues --   -0.25792  -0.23402  -0.21609  -0.21249  -0.16995
  Beta  occ. eigenvalues --   -0.15837  -0.15520  -0.11779
  Beta virt. eigenvalues --    0.06932   0.07825   0.08665   0.08786   0.09259
  Beta virt. eigenvalues --    0.10081   0.10472   0.10782   0.11527   0.11866
  Beta virt. eigenvalues --    0.12908   0.13184   0.13864   0.14166   0.15104

 Mulliken charges and spin densities:
               1          2
     1  C    0.527631  -0.875908
     2  O   -0.121837   0.037844
     3  C   -0.528052  -0.080944
     4  C    0.236346   0.471067
     5  C   -1.487358   1.556299
     6  C    1.501291  -2.017229
     7  N   -0.542721   0.421828
     8  C    1.689869  -2.108404
     9  C   -0.441466  -0.353557
    10  O   -0.107560   0.016601
    11  C    0.074238  -0.417797
    12  H   -0.049459   0.186541
    13  H   -0.103242   0.259840
    14  H   -0.258328   0.393167
    15  H    0.122472   0.003007
    16  H    0.068149   0.130351
    17  H   -0.651629   0.842750
    18  H   -0.034218   0.236483
    19  H   -0.280913   0.524165
    20  H    0.204771  -0.012272
    21  H   -0.941617   1.136430
    22  H    0.085652   0.113392
    23  H    0.103818   0.050720
    24  H   -0.049858   0.180857
    25  H   -0.002978   0.149732
    26  H   -0.013003   0.155038
 Sum of Mulliken charges =  -1.00000   1.00000

 Dipole moment (field-independent basis, Debye):
    X=              5.3807    Y=              3.9412    Z=              2.6038  Tot=              7.1599
 Quadrupole moment (field-independent basis, Debye-Ang):
   XX=           -129.1117   YY=           -114.0518   ZZ=            -98.5170
   XY=             -8.0712   XZ=             -6.9431   YZ=             -3.0153

 Summary of Natural Population Analysis:

                                       Natural Population
                Natural  -----------------------------------------------
    Atom  No    Charge         Core      Valence    Rydberg      Total
 -----------------------------------------------------------------------
      C    1   -0.10130      0.99961     2.09167    0.01002     3.10130
      O    2   -0.29916      0.99989     3.28971    0.00956     4.29916
      C    3   -0.01808      0.99952     2.00523    0.01333     3.01808
      C    4   -0.05907      0.99938     2.04898    0.01071     3.05907
      C    5    0.01069      0.99944     1.97634    0.01354     2.98931
      C    6   -0.09673      0.99961     2.08647    0.01065     3.09673
      N    7   -0.34170      0.99977     2.82889    0.01303     3.84170
      C    8   -0.09687      0.99961     2.08641    0.01085     3.09687
      C    9   -0.01884      0.99953     2.00545    0.01387     3.01884
      O   10   -0.29788      0.99989     3.28897    0.00902     4.29788
      C   11   -0.10041      0.99962     2.09235    0.00845     3.10041
      H   12    0.08697      0.00000     0.41198    0.00105     0.41303
      H   13    0.08564      0.00000     0.41249    0.00188     0.41436
      H   14    0.07859      0.00000     0.41976    0.00165     0.42141
      H   15    0.08256      0.00000     0.41607    0.00137     0.41744
      H   16    0.09575      0.00000     0.40265    0.00160     0.40425
      H   17    0.10056      0.00000     0.39371    0.00572     0.39944
      H   18    0.09120      0.00000     0.40726    0.00154     0.40880
      H   19    0.17901      0.00000     0.31453    0.00646     0.32099
      H   20    0.09133      0.00000     0.40694    0.00174     0.40867
      H   21    0.09979      0.00000     0.39414    0.00607     0.40021
      H   22    0.09760      0.00000     0.40065    0.00175     0.40240
      H   23    0.08306      0.00000     0.41565    0.00129     0.41694
      H   24    0.07685      0.00000     0.42148    0.00167     0.42315
      H   25    0.08385      0.00000     0.41469    0.00146     0.41615
      H   26    0.08660      0.00000     0.41231    0.00110     0.41340
 =======================================================================
   * Total *   -0.00000     10.99587    31.84478    0.15936    43.00000

 Normal termination of Gaussian 16 at Tue Dec  8 21:58:14 2020.
