 Gaussian 16, Revision A.03,

 -----------------------------------------------------------
 # opt freq B3LYP/6-31G(d) empiricaldispersion=gd3bj scf=xqc
 -----------------------------------------------------------

 --------------------------------
 CID_134938903_JID_10259_neutraal
 --------------------------------
 Symbolic Z-matrix:
 Charge =  0 Multiplicity = 1

 SCF Done:  E(RB3LYP) =  -824.987017730     A.U. after   16 cycles
 SCF Done:  E(RB3LYP) =  -824.994604492     A.U. after   14 cycles
 SCF Done:  E(RB3LYP) =  -824.995408064     A.U. after   13 cycles
 SCF Done:  E(RB3LYP) =  -824.994327296     A.U. after   13 cycles
 SCF Done:  E(RB3LYP) =  -824.995867701     A.U. after   12 cycles
 SCF Done:  E(RB3LYP) =  -824.996053963     A.U. after   11 cycles
 SCF Done:  E(RB3LYP) =  -824.996186125     A.U. after   11 cycles
 SCF Done:  E(RB3LYP) =  -824.996276777     A.U. after   11 cycles
 SCF Done:  E(RB3LYP) =  -824.996317156     A.U. after   10 cycles
 SCF Done:  E(RB3LYP) =  -824.996330699     A.U. after   10 cycles
 SCF Done:  E(RB3LYP) =  -824.996331578     A.U. after    8 cycles
 SCF Done:  E(RB3LYP) =  -824.996331764     A.U. after    7 cycles
 SCF Done:  E(RB3LYP) =  -824.996331807     A.U. after    7 cycles
 Optimization completed.
    -- Stationary point found.
 Normal termination of Gaussian 16 at Sun Dec 13 20:44:42 2020.

 --------------------------------------------------------------------
 #N Geom=AllCheck Guess=TCheck SCRF=Check GenChk RB3LYP/6-31G(d) Freq
 --------------------------------------------------------------------

 Structure from the checkpoint file:  "JID_10259.chk"
 --------------------------------
 CID_134938903_JID_10259_neutraal
 --------------------------------
 Charge =  0 Multiplicity = 1

 SCF Done:  E(RB3LYP) =  -824.996331807     A.U. after    1 cycles

  Exact polarizability: 275.853   0.573 195.343  23.290 -12.565 131.027
 Approx polarizability: 404.297  15.723 342.812  58.823 -22.887 230.865

                      1                      2                      3
                      A                      A                      A
 Frequencies --     34.9897                45.7121                54.3557
 Red. masses --      5.2422                 5.2332                 3.8614
 Frc consts  --      0.0038                 0.0064                 0.0067
 IR Inten    --      1.2094                 0.1965                 0.1739

                      4                      5                      6
                      A                      A                      A
 Frequencies --     98.4463               120.2651               123.1528
 Red. masses --      3.6731                 1.7919                 1.8895
 Frc consts  --      0.0210                 0.0153                 0.0169
 IR Inten    --      0.5487                 0.2121                 0.4015

                      7                      8                      9
                      A                      A                      A
 Frequencies --    141.6382               155.7003               180.9261
 Red. masses --      3.2897                 5.9309                 5.1510
 Frc consts  --      0.0389                 0.0847                 0.0993
 IR Inten    --      2.4719                 3.5771                 2.6752

                     10                     11                     12
                      A                      A                      A
 Frequencies --    187.6757               219.9127               269.6129
 Red. masses --      4.5743                 3.0398                 3.8821
 Frc consts  --      0.0949                 0.0866                 0.1663
 IR Inten    --      0.2503                 7.6109                 1.9688

                     13                     14                     15
                      A                      A                      A
 Frequencies --    287.1881               310.5724               327.6839
 Red. masses --      3.6586                 3.2954                 3.4971
 Frc consts  --      0.1778                 0.1873                 0.2212
 IR Inten    --      0.4974                 0.0203                 1.7614

                     16                     17                     18
                      A                      A                      A
 Frequencies --    371.4117               419.3144               420.0959
 Red. masses --      4.0702                 3.0258                 7.1921
 Frc consts  --      0.3308                 0.3135                 0.7478
 IR Inten    --      1.6845                 0.0557                 1.9256

                     19                     20                     21
                      A                      A                      A
 Frequencies --    433.1524               448.4570               528.4128
 Red. masses --      4.3161                 3.4799                 4.2646
 Frc consts  --      0.4771                 0.4123                 0.7016
 IR Inten    --      1.0690                 1.6477                 0.8483

                     22                     23                     24
                      A                      A                      A
 Frequencies --    536.9632               563.7023               578.1528
 Red. masses --      5.5376                 4.5001                 4.7930
 Frc consts  --      0.9407                 0.8425                 0.9439
 IR Inten    --      5.2856                 6.3581                11.5523

                     25                     26                     27
                      A                      A                      A
 Frequencies --    591.7547               631.9763               646.4454
 Red. masses --      4.1774                 5.7188                 5.1643
 Frc consts  --      0.8619                 1.3457                 1.2715
 IR Inten    --      1.0981                 2.2367                 6.2490

                     28                     29                     30
                      A                      A                      A
 Frequencies --    678.0296               705.3386               716.8626
 Red. masses --      3.4487                 2.4491                 1.8954
 Frc consts  --      0.9341                 0.7179                 0.5739
 IR Inten    --      1.9345                 4.2227                26.5778

                     31                     32                     33
                      A                      A                      A
 Frequencies --    742.8137               762.7743               768.2373
 Red. masses --      1.9980                 1.4833                 3.2874
 Frc consts  --      0.6496                 0.5085                 1.1431
 IR Inten    --      1.9134                41.4619                34.7993

                     34                     35                     36
                      A                      A                      A
 Frequencies --    778.4521               799.2744               806.9900
 Red. masses --      4.5883                 1.8063                 3.6515
 Frc consts  --      1.6382                 0.6799                 1.4011
 IR Inten    --      0.6948                26.9781                 3.3829

                     37                     38                     39
                      A                      A                      A
 Frequencies --    841.5391               863.8453               869.3646
 Red. masses --      3.9812                 1.2472                 1.4346
 Frc consts  --      1.6612                 0.5484                 0.6388
 IR Inten    --      8.4558                 0.5799                 0.5338

                     40                     41                     42
                      A                      A                      A
 Frequencies --    934.5687               936.3079               939.5904
 Red. masses --      1.5726                 1.6173                 1.3250
 Frc consts  --      0.8093                 0.8354                 0.6892
 IR Inten    --     35.4072                 3.9851                 1.8258

                     43                     44                     45
                      A                      A                      A
 Frequencies --    946.6091               974.5195               989.2316
 Red. masses --      1.9866                 1.3479                 1.2572
 Frc consts  --      1.0488                 0.7542                 0.7248
 IR Inten    --     13.4489                 0.4145                 0.4804

                     46                     47                     48
                      A                      A                      A
 Frequencies --   1000.2188              1019.7572              1021.4462
 Red. masses --      1.2534                 1.7006                 6.0438
 Frc consts  --      0.7388                 1.0420                 3.7153
 IR Inten    --      0.1405                 0.9908                 1.0787

                     49                     50                     51
                      A                      A                      A
 Frequencies --   1046.4777              1059.3864              1063.6103
 Red. masses --      2.0387                 2.3969                 5.6818
 Frc consts  --      1.3154                 1.5850                 3.7870
 IR Inten    --      8.0526                 5.4755                31.1434

                     52                     53                     54
                      A                      A                      A
 Frequencies --   1110.2639              1124.8005              1146.2780
 Red. masses --      1.7486                 1.6990                 1.9064
 Frc consts  --      1.2700                 1.2665                 1.4759
 IR Inten    --      6.9877                 5.7940                 4.4355

                     55                     56                     57
                      A                      A                      A
 Frequencies --   1157.7216              1162.1170              1181.5870
 Red. masses --      1.3638                 1.3882                 1.4194
 Frc consts  --      1.0770                 1.1046                 1.1676
 IR Inten    --     15.9110                 3.8648                 2.3515

                     58                     59                     60
                      A                      A                      A
 Frequencies --   1195.5913              1212.6951              1218.8447
 Red. masses --      1.0959                 2.2737                 1.1648
 Frc consts  --      0.9230                 1.9701                 1.0195
 IR Inten    --      0.0075                 1.5139                 3.7204

                     61                     62                     63
                      A                      A                      A
 Frequencies --   1288.4085              1309.0542              1348.2406
 Red. masses --      1.9742                 3.4151                 3.2159
 Frc consts  --      1.9309                 3.4481                 3.4442
 IR Inten    --     19.1974                20.2519                 9.4565

                     64                     65                     66
                      A                      A                      A
 Frequencies --   1367.3949              1370.9327              1401.1094
 Red. masses --      2.5856                 1.8025                 4.0292
 Frc consts  --      2.8484                 1.9960                 4.6603
 IR Inten    --     12.7304                 0.6647                 5.1550

                     67                     68                     69
                      A                      A                      A
 Frequencies --   1411.8393              1428.1409              1444.4182
 Red. masses --      3.2121                 2.4837                 1.6730
 Frc consts  --      3.7723                 2.9846                 2.0565
 IR Inten    --      8.1791               144.5714                 4.6653

                     70                     71                     72
                      A                      A                      A
 Frequencies --   1463.9866              1487.0738              1497.4022
 Red. masses --      1.5326                 1.7226                 2.1702
 Frc consts  --      1.9353                 2.2444                 2.8670
 IR Inten    --     58.9271                18.6913                 8.3145

                     73                     74                     75
                      A                      A                      A
 Frequencies --   1508.4824              1518.5881              1526.0357
 Red. masses --      1.8525                 1.1087                 1.6192
 Frc consts  --      2.4836                 1.5064                 2.2216
 IR Inten    --     42.2483                21.9253                28.4450

                     76                     77                     78
                      A                      A                      A
 Frequencies --   1541.7764              1546.1640              1574.3777
 Red. masses --      1.6671                 2.1615                 6.2142
 Frc consts  --      2.3348                 3.0445                 9.0751
 IR Inten    --      4.9188                11.6386                37.3993

                     79                     80                     81
                      A                      A                      A
 Frequencies --   1634.4572              1636.4986              1663.4669
 Red. masses --      6.3278                 5.1406                 5.5231
 Frc consts  --      9.9597                 8.1113                 9.0046
 IR Inten    --      5.2827                 2.9346                 2.3556

                     82                     83                     84
                      A                      A                      A
 Frequencies --   1670.7496              1684.9729              1758.8959
 Red. masses --      6.6678                 5.0572                 8.8286
 Frc consts  --     10.9661                 8.4595                16.0924
 IR Inten    --      7.2411                11.5919               310.2348

                     85                     86                     87
                      A                      A                      A
 Frequencies --   2940.4782              3063.9181              3128.6923
 Red. masses --      1.0830                 1.0380                 1.1029
 Frc consts  --      5.5171                 5.7410                 6.3611
 IR Inten    --    103.6680                40.4468                16.8297

                     88                     89                     90
                      A                      A                      A
 Frequencies --   3179.8769              3181.2223              3186.2095
 Red. masses --      1.0599                 1.1006                 1.0846
 Frc consts  --      6.3147                 6.5626                 6.4874
 IR Inten    --      2.3957                 6.0477                 2.0008

                     91                     92                     93
                      A                      A                      A
 Frequencies --   3187.6010              3192.9942              3200.4281
 Red. masses --      1.0859                 1.0873                 1.0902
 Frc consts  --      6.5009                 6.5310                 6.5794
 IR Inten    --      2.0216                 1.2151                21.6396

                     94                     95                     96
                      A                      A                      A
 Frequencies --   3201.6958              3207.6309              3211.7378
 Red. masses --      1.0907                 1.0942                 1.0957
 Frc consts  --      6.5877                 6.6330                 6.6591
 IR Inten    --     13.4051                28.1565                27.2009

                     97                     98                     99
                      A                      A                      A
 Frequencies --   3215.5333              3242.9589              3267.2177
 Red. masses --      1.0981                 1.0932                 1.1170
 Frc consts  --      6.6896                 6.7737                 7.0252
 IR Inten    --     17.6605                 3.4679                 8.8516

 - Thermochemistry -
 -------------------
 Temperature   298.150 Kelvin.  Pressure   1.00000 Atm.
 Atom     1 has atomic number  6 and mass  12.00000

 Molecular mass:   261.11536 amu.
 Principal axes and moments of inertia in atomic units:
                           1         2         3
     Eigenvalues --  2829.020947866.315879281.52466
           X            0.99997  -0.00674   0.00270
           Y            0.00678   0.99990  -0.01227
           Z           -0.00262   0.01229   0.99992
 This molecule is an asymmetric top.
 Rotational symmetry number  1.
 Warning -- assumption of classical behavior for rotation
           may cause significant error
 Rotational temperatures (Kelvin)      0.03062     0.01101     0.00933
 Rotational constants (GHZ):           0.63794     0.22943     0.19444
 Zero-point vibrational energy     742842.0 (Joules/Mol)
                                  177.54349 (Kcal/Mol)
 Warning -- explicit consideration of  25 degrees of freedom as
           vibrations may cause significant error
 Vibrational temperatures:     50.34    65.77    78.21   141.64   173.03
          (Kelvin)            177.19   203.79   224.02   260.31   270.02
                              316.41   387.91   413.20   446.84   471.46
                              534.38   603.30   604.42   623.21   645.23
                              760.27   772.57   811.04   831.83   851.40
                              909.27   930.09   975.53  1014.82  1031.41
                             1068.74  1097.46  1105.32  1120.02  1149.98
                             1161.08  1210.79  1242.88  1250.82  1344.64
                             1347.14  1351.86  1361.96  1402.12  1423.28
                             1439.09  1467.20  1469.63  1505.65  1524.22
                             1530.30  1597.42  1618.34  1649.24  1665.70
                             1672.03  1700.04  1720.19  1744.80  1753.65
                             1853.73  1883.44  1939.82  1967.38  1972.47
                             2015.88  2031.32  2054.78  2078.20  2106.35
                             2139.57  2154.43  2170.37  2184.91  2195.62
                             2218.27  2224.59  2265.18  2351.62  2354.56
                             2393.36  2403.84  2424.30  2530.66  4230.69
                             4408.29  4501.49  4575.13  4577.07  4584.24
                             4586.25  4594.01  4604.70  4606.53  4615.07
                             4620.97  4626.44  4665.89  4700.80

 Zero-point correction=                           0.282934 (Hartree/Particle)
 Thermal correction to Energy=                    0.299579
 Thermal correction to Enthalpy=                  0.300524
 Thermal correction to Gibbs Free Energy=         0.238131
 Sum of electronic and zero-point Energies=           -824.713398
 Sum of electronic and thermal Energies=              -824.696752
 Sum of electronic and thermal Enthalpies=            -824.695808
 Sum of electronic and thermal Free Energies=         -824.758201

                     E (Thermal)             CV                S
                      KCal/Mol        Cal/Mol-Kelvin    Cal/Mol-Kelvin
 Total                  187.989             65.329            131.317
 Electronic               0.000              0.000              0.000
 Translational            0.889              2.981             42.579
 Rotational               0.889              2.981             33.690
 Vibrational            186.211             59.368             55.048
 Vibration     1          0.594              1.982              5.524
 Vibration     2          0.595              1.979              4.995
 Vibration     3          0.596              1.976              4.652
 Vibration     4          0.604              1.950              3.485
 Vibration     5          0.609              1.932              3.096
 Vibration     6          0.610              1.930              3.050
 Vibration     7          0.615              1.912              2.782
 Vibration     8          0.620              1.896              2.601
 Vibration     9          0.630              1.866              2.319
 Vibration    10          0.632              1.857              2.251
 Vibration    11          0.647              1.811              1.960
 Vibration    12          0.674              1.729              1.599
 Vibration    13          0.684              1.698              1.490
 Vibration    14          0.699              1.654              1.359
 Vibration    15          0.711              1.620              1.271
 Vibration    16          0.743              1.531              1.074
 Vibration    17          0.782              1.428              0.894
 Vibration    18          0.783              1.427              0.892
 Vibration    19          0.794              1.398              0.848
 Vibration    20          0.807              1.364              0.800
 Vibration    21          0.883              1.187              0.591
 Vibration    22          0.892              1.168              0.572
 Vibration    23          0.919              1.110              0.516
 Vibration    24          0.935              1.079              0.489
 Vibration    25          0.949              1.049              0.464

 Optimization completed.
    -- Stationary point found.
 Normal termination of Gaussian 16 at Sun Dec 13 21:03:34 2020.

 ----------------------------------------------------------------------
 # B3LYP/6-311++G(d,p) empiricaldispersion=gd3bj scf=xqc pop=npa geom=c
 heck
 ----------------------------------------------------------------------

 ----------------------------------------
 CID_134938903_JID_10259_Energie_neutraal
 ----------------------------------------
 Structure from the checkpoint file:  "JID_10259.chk"
 Charge =  0 Multiplicity = 1

 SCF Done:  E(RB3LYP) =  -825.206980420     A.U. after   18 cycles
 Normal termination of Gaussian 16 at Sun Dec 13 21:11:44 2020.

 ----------------------------------------------------------------------
 # B3LYP/6-311++G(d,p) empiricaldispersion=gd3bj scf=xqc pop=npa geom=c
 heck
 ----------------------------------------------------------------------

 --------------------------------------
 CID_134938903_JID_10259_Energie_kation
 --------------------------------------
 Structure from the checkpoint file:  "JID_10259.chk"
 Charge =  1 Multiplicity = 2

 SCF Done:  E(UB3LYP) =  -824.925060606     A.U. after   33 cycles
 SCF Done:  E(UB3LYP) =  -824.926810115     a.u. after    5 cycles
 Normal termination of Gaussian 16 at Sun Dec 13 22:53:30 2020.
 Gaussian 16:  ES64L-G16RevA.03 25-Dec-2016

 ----------------------------------------------------------------------
 # B3LYP/6-311++G(d,p) empiricaldispersion=gd3bj scf=xqc pop=npa geom=c
 heck
 ----------------------------------------------------------------------

 -------------------------------------
 CID_134938903_JID_10259_Energie_anion
 -------------------------------------
 Structure from the checkpoint file:  "JID_10259.chk"
 Charge = -1 Multiplicity = 2

                         Standard orientation:
 ---------------------------------------------------------------------
 Center     Atomic      Atomic             Coordinates (Angstroms)
 Number     Number       Type             X           Y           Z
 ---------------------------------------------------------------------
      1          6           0       -0.366926   -1.860373   -1.268350
      2          7           0        0.471865   -0.819744   -0.701916
      3          6           0        1.800646   -1.006855   -0.331910
      4          6           0        2.579950   -2.165906   -0.358524
      5          6           0        3.897670   -2.054479    0.075184
      6          6           0        4.420046   -0.825556    0.523281
      7          6           0        3.639829    0.324902    0.547656
      8          6           0        2.310398    0.238022    0.111250
      9          6           0        1.231456    1.190921    0.001068
     10          6           0        0.126427    0.501594   -0.502495
     11          6           0       -1.232990    1.006489   -0.764528
     12          6           0       -1.405366    2.093648   -1.537929
     13          6           0       -2.365777    0.305797   -0.105207
     14          6           0       -3.628428    0.230877   -0.713222
     15          6           0       -4.685448   -0.417234   -0.078576
     16          6           0       -4.497018   -1.010434    1.171247
     17          6           0       -3.242866   -0.951021    1.781060
     18          6           0       -2.185357   -0.301875    1.147517
     19          6           0        1.256659    2.575201    0.435636
     20          8           0        2.255648    3.150165    0.850550
     21          1           0        0.229747   -2.468993   -1.953189
     22          1           0       -0.787778   -2.501427   -0.486117
     23          1           0       -1.186396   -1.406170   -1.824484
     24          1           0        2.178452   -3.117819   -0.691733
     25          1           0        4.533340   -2.935221    0.071765
     26          1           0        5.453022   -0.779364    0.855768
     27          1           0        4.028491    1.276430    0.890135
     28          1           0       -2.384661    2.541593   -1.675147
     29          1           0       -0.567270    2.564301   -2.039915
     30          1           0       -3.771456    0.663283   -1.699047
     31          1           0       -5.654843   -0.469897   -0.566037
     32          1           0       -5.319966   -1.521119    1.662768
     33          1           0       -3.087471   -1.408211    2.754083
     34          1           0       -1.213248   -0.249401    1.628781
     35          1           0        0.284369    3.106601    0.382424
 ---------------------------------------------------------------------

 SCF Done:  E(UB3LYP) =  -825.226015570     A.U. after   26 cycles

 The electronic state is 2-A.
 Alpha  occ. eigenvalues --  -18.96046 -14.24385 -10.10350 -10.10250 -10.09100
 Alpha  occ. eigenvalues --  -10.08504 -10.06447 -10.06411 -10.06303 -10.06158
 Alpha  occ. eigenvalues --  -10.05886 -10.05706 -10.05633 -10.05502 -10.05453
 Alpha  occ. eigenvalues --  -10.05418 -10.05081 -10.04410 -10.03376 -10.01656
 Alpha  occ. eigenvalues --   -0.89051  -0.87423  -0.74560  -0.73470  -0.69532
 Alpha  occ. eigenvalues --   -0.67318  -0.63592  -0.63366  -0.61937  -0.59404
 Alpha  occ. eigenvalues --   -0.58606  -0.52231  -0.50288  -0.49375  -0.48916
 Alpha  occ. eigenvalues --   -0.46609  -0.44033  -0.42606  -0.40174  -0.38920
 Alpha  occ. eigenvalues --   -0.37167  -0.36019  -0.35663  -0.33951  -0.33831
 Alpha  occ. eigenvalues --   -0.33076  -0.32511  -0.31800  -0.31083  -0.30036
 Alpha  occ. eigenvalues --   -0.29716  -0.28508  -0.28409  -0.28076  -0.25648
 Alpha  occ. eigenvalues --   -0.25486  -0.24774  -0.24672  -0.23118  -0.23060
 Alpha  occ. eigenvalues --   -0.22045  -0.21539  -0.17710  -0.16089  -0.14576
 Alpha  occ. eigenvalues --   -0.12772  -0.11433  -0.10606  -0.09475   0.03112
 Alpha virt. eigenvalues --    0.07131   0.07594   0.07728   0.08794   0.08879
 Alpha virt. eigenvalues --    0.09379   0.09748   0.09859   0.10384   0.10976
 Alpha virt. eigenvalues --    0.11554   0.11927   0.12058   0.12503   0.12796

  Beta  occ. eigenvalues --  -18.95917 -14.24321 -10.10266 -10.10251 -10.09123
  Beta  occ. eigenvalues --  -10.08262 -10.06472 -10.06360 -10.06315 -10.06135
  Beta  occ. eigenvalues --  -10.05774 -10.05634 -10.05567 -10.05517 -10.05391
  Beta  occ. eigenvalues --  -10.05379 -10.05019 -10.04366 -10.03349 -10.01168
  Beta  occ. eigenvalues --   -0.88813  -0.87264  -0.74377  -0.73402  -0.69271
  Beta  occ. eigenvalues --   -0.67022  -0.63496  -0.63263  -0.61697  -0.59135
  Beta  occ. eigenvalues --   -0.58350  -0.51756  -0.50145  -0.49069  -0.48790
  Beta  occ. eigenvalues --   -0.46404  -0.43871  -0.42388  -0.39977  -0.38822
  Beta  occ. eigenvalues --   -0.37024  -0.35828  -0.35534  -0.33814  -0.33761
  Beta  occ. eigenvalues --   -0.32981  -0.32451  -0.31619  -0.31042  -0.29947
  Beta  occ. eigenvalues --   -0.29563  -0.28324  -0.28183  -0.27931  -0.25329
  Beta  occ. eigenvalues --   -0.25243  -0.24643  -0.24143  -0.23038  -0.22991
  Beta  occ. eigenvalues --   -0.21686  -0.21279  -0.16588  -0.15738  -0.14297
  Beta  occ. eigenvalues --   -0.12084  -0.11213  -0.09832  -0.08387
  Beta virt. eigenvalues --    0.07082   0.07577   0.08125   0.08503   0.08821
  Beta virt. eigenvalues --    0.09132   0.09598   0.09847   0.10099   0.10383
  Beta virt. eigenvalues --    0.11001   0.11556   0.12001   0.12275   0.12484

 Mulliken charges and spin densities:
               1          2
     1  C   -0.424930  -0.017259
     2  N    0.279885   0.022477
     3  C    0.176386  -0.024098
     4  C   -0.562694   0.042981
     5  C   -0.331290   0.015536
     6  C   -0.556879  -0.000330
     7  C   -0.598737   0.048269
     8  C    1.627047  -0.029575
     9  C    0.063035   0.002337
    10  C   -0.907978   0.113882
    11  C   -0.050020  -0.039904
    12  C   -0.479929   0.464223
    13  C    1.109106   0.104810
    14  C   -0.332522   0.033593
    15  C   -0.514291  -0.017458
    16  C   -0.314561   0.103739
    17  C   -0.438274  -0.004218
    18  C   -0.325554   0.056182
    19  C   -0.137457   0.045486
    20  O   -0.339091   0.043020
    21  H    0.132620   0.000973
    22  H    0.171947   0.021359
    23  H    0.193069   0.008961
    24  H    0.108970  -0.003451
    25  H    0.129000  -0.001272
    26  H    0.123678   0.000027
    27  H    0.193113  -0.003493
    28  H    0.072860  -0.022045
    29  H    0.115684  -0.005525
    30  H    0.143662   0.031113
    31  H    0.129442   0.006041
    32  H    0.113154  -0.005433
    33  H    0.138321   0.000952
    34  H    0.188841  -0.001139
    35  H    0.104389   0.009240
 Sum of Mulliken charges =  -1.00000   1.00000

 Dipole moment (field-independent basis, Debye):
    X=             -1.8148    Y=             -6.0322    Z=             -0.9790  Tot=              6.3749
 Quadrupole moment (field-independent basis, Debye-Ang):
   XX=           -166.4505   YY=           -147.1265   ZZ=           -131.0868
   XY=             -7.3285   XZ=             -1.9322   YZ=             -1.3841

 Summary of Natural Population Analysis:

                                       Natural Population
                Natural  -----------------------------------------------
    Atom  No    Charge         Core      Valence    Rydberg      Total
 -----------------------------------------------------------------------
      C    1   -0.17569      0.99965     2.16996    0.00607     3.17569
      N    2   -0.19947      0.99958     2.69231    0.00758     3.69947
      C    3    0.08012      0.99948     1.91015    0.01025     2.91988
      C    4   -0.11898      0.99953     2.11138    0.00807     3.11898
      C    5   -0.11134      0.99959     2.10177    0.00998     3.11134
      C    6   -0.12139      0.99958     2.11240    0.00941     3.12139
      C    7   -0.08395      0.99953     2.07518    0.00924     3.08395
      C    8   -0.04839      0.99951     2.03411    0.01477     3.04839
      C    9   -0.05429      0.99941     2.04416    0.01072     3.05429
      C   10    0.16252      0.99952     1.82094    0.01703     2.83748
      C   11   -0.06642      0.99947     2.05549    0.01145     3.06642
      C   12   -0.05812      0.99954     2.05116    0.00741     3.05812
      C   13   -0.00477      0.99948     1.99443    0.01086     3.00477
      C   14   -0.09013      0.99952     2.08051    0.01010     3.09013
      C   15   -0.11098      0.99957     2.10290    0.00851     3.11098
      C   16   -0.09237      0.99957     2.08359    0.00921     3.09237
      C   17   -0.10786      0.99957     2.09964    0.00865     3.10786
      C   18   -0.09507      0.99952     2.08581    0.00974     3.09507
      C   19    0.19290      0.99971     1.78265    0.02475     2.80710
      O   20   -0.29956      0.99989     3.29202    0.00765     4.29956
      H   21    0.09334      0.00000     0.40561    0.00106     0.40666
      H   22    0.09738      0.00000     0.40156    0.00106     0.40262
      H   23    0.11101      0.00000     0.38809    0.00090     0.38899
      H   24    0.09772      0.00000     0.40127    0.00102     0.40228
      H   25    0.09200      0.00000     0.40698    0.00101     0.40800
      H   26    0.09307      0.00000     0.40593    0.00100     0.40693
      H   27    0.11237      0.00000     0.38652    0.00111     0.38763
      H   28    0.08322      0.00000     0.41595    0.00083     0.41678
      H   29    0.08763      0.00000     0.41150    0.00087     0.41237
      H   30    0.09977      0.00000     0.39910    0.00113     0.40023
      H   31    0.09343      0.00000     0.40567    0.00091     0.40657
      H   32    0.09117      0.00000     0.40783    0.00100     0.40883
      H   33    0.09445      0.00000     0.40465    0.00090     0.40555
      H   34    0.10392      0.00000     0.39497    0.00111     0.39608
      H   35    0.05533      0.00000     0.44276    0.00191     0.44467
 =======================================================================
   * Total *    0.00257     19.99124    48.77892    0.22727    68.99743

 Normal termination of Gaussian 16 at Sun Dec 13 23:08:24 2020.
