 Gaussian 16, Revision A.03,

 -----------------------------------------------------------
 # opt freq B3LYP/6-31G(d) empiricaldispersion=gd3bj scf=xqc
 -----------------------------------------------------------

 -------------------------------
 CID_152962747_JID_1289_neutraal
 -------------------------------
 Symbolic Z-matrix:
 Charge =  0 Multiplicity = 1

 SCF Done:  E(RB3LYP) =  -446.078124380     A.U. after   13 cycles
 SCF Done:  E(RB3LYP) =  -446.083766611     A.U. after   12 cycles
 SCF Done:  E(RB3LYP) =  -446.084764846     A.U. after   11 cycles
 SCF Done:  E(RB3LYP) =  -446.084938909     A.U. after   10 cycles
 SCF Done:  E(RB3LYP) =  -446.085002860     A.U. after   10 cycles
 SCF Done:  E(RB3LYP) =  -446.085018773     A.U. after   10 cycles
 SCF Done:  E(RB3LYP) =  -446.085040191     A.U. after    9 cycles
 SCF Done:  E(RB3LYP) =  -446.085057100     A.U. after    9 cycles
 SCF Done:  E(RB3LYP) =  -446.085058941     A.U. after    8 cycles
 SCF Done:  E(RB3LYP) =  -446.085060919     A.U. after    7 cycles
 SCF Done:  E(RB3LYP) =  -446.085158551     A.U. after   10 cycles
 SCF Done:  E(RB3LYP) =  -446.085156790     A.U. after    9 cycles
 SCF Done:  E(RB3LYP) =  -446.085158866     A.U. after    9 cycles
 SCF Done:  E(RB3LYP) =  -446.085158598     A.U. after    9 cycles
 SCF Done:  E(RB3LYP) =  -446.085158935     A.U. after    9 cycles
 SCF Done:  E(RB3LYP) =  -446.085158940     A.U. after    6 cycles
 Optimization completed on the basis of negligible forces.
    -- Stationary point found.
 Normal termination of Gaussian 16 at Tue Dec  8 19:42:18 2020.

 --------------------------------------------------------------------
 #N Geom=AllCheck Guess=TCheck SCRF=Check GenChk RB3LYP/6-31G(d) Freq
 --------------------------------------------------------------------

 Structure from the checkpoint file:  "JID_1289.chk"
 -------------------------------
 CID_152962747_JID_1289_neutraal
 -------------------------------
 Charge =  0 Multiplicity = 1

 SCF Done:  E(RB3LYP) =  -446.085158940     A.U. after    1 cycles

  Exact polarizability: 134.178   6.245 101.254  -0.612  -5.885  88.632
 Approx polarizability: 159.700  14.093 160.716  -2.513 -14.433 130.891

                      1                      2                      3
                      A                      A                      A
 Frequencies --     24.6164                72.6489                79.2119
 Red. masses --      2.4505                 3.0228                 2.7736
 Frc consts  --      0.0009                 0.0094                 0.0103
 IR Inten    --      0.0303                 0.1149                 0.7110

                      4                      5                      6
                      A                      A                      A
 Frequencies --    139.9141               170.1890               225.1647
 Red. masses --      3.0966                 1.7994                 2.0953
 Frc consts  --      0.0357                 0.0307                 0.0626
 IR Inten    --      1.3088                 0.1105                 1.8337

                      7                      8                      9
                      A                      A                      A
 Frequencies --    271.9269               311.9080               367.7970
 Red. masses --      2.1640                 3.3152                 2.6256
 Frc consts  --      0.0943                 0.1900                 0.2093
 IR Inten    --      0.9721                 0.0657                 2.7794

                     10                     11                     12
                      A                      A                      A
 Frequencies --    464.5256               514.7892               532.5754
 Red. masses --      2.2120                 1.4754                 1.8523
 Frc consts  --      0.2812                 0.2304                 0.3095
 IR Inten    --      0.9315                64.7319                75.8105

                     13                     14                     15
                      A                      A                      A
 Frequencies --    582.7153               633.1390               679.2564
 Red. masses --      1.9989                 2.4484                 3.2441
 Frc consts  --      0.3999                 0.5783                 0.8819
 IR Inten    --      2.9476                 5.5312                 4.2230

                     16                     17                     18
                      A                      A                      A
 Frequencies --    724.1735               784.4890               817.6973
 Red. masses --      2.3387                 1.4254                 1.8027
 Frc consts  --      0.7226                 0.5169                 0.7102
 IR Inten    --      3.4469                27.8220                 0.5176

                     19                     20                     21
                      A                      A                      A
 Frequencies --    841.4783               855.4228               878.9015
 Red. masses --      1.7810                 2.3889                 2.0283
 Frc consts  --      0.7430                 1.0299                 0.9231
 IR Inten    --      0.2933                 5.0209                 1.8962

                     22                     23                     24
                      A                      A                      A
 Frequencies --    900.1387               912.5732               917.1584
 Red. masses --      3.1282                 1.6557                 2.6305
 Frc consts  --      1.4933                 0.8124                 1.3037
 IR Inten    --      0.8104                 1.7202                 2.6042

                     25                     26                     27
                      A                      A                      A
 Frequencies --    925.7241               939.9112               956.3613
 Red. masses --      2.0842                 1.9366                 1.8483
 Frc consts  --      1.0523                 1.0080                 0.9960
 IR Inten    --      0.3526                 4.1449                 4.2629

                     28                     29                     30
                      A                      A                      A
 Frequencies --    986.8679              1020.9076              1045.1098
 Red. masses --      1.9208                 1.6294                 1.7546
 Frc consts  --      1.1022                 1.0006                 1.1292
 IR Inten    --      1.6113                 0.9691                 6.8765

                     31                     32                     33
                      A                      A                      A
 Frequencies --   1053.6486              1061.1763              1082.5416
 Red. masses --      1.8762                 1.7428                 1.6831
 Frc consts  --      1.2272                 1.1563                 1.1621
 IR Inten    --      0.7479                 2.4336                 1.3845

                     34                     35                     36
                      A                      A                      A
 Frequencies --   1117.0167              1159.4355              1193.1385
 Red. masses --      2.0080                 1.1630                 1.4519
 Frc consts  --      1.4762                 0.9212                 1.2178
 IR Inten    --      5.2525                 8.6351                 2.7256

                     37                     38                     39
                      A                      A                      A
 Frequencies --   1205.8385              1226.6993              1243.8093
 Red. masses --      1.5568                 1.5975                 1.3050
 Frc consts  --      1.3337                 1.4164                 1.1895
 IR Inten    --      4.7134                23.4026                 1.3445

                     40                     41                     42
                      A                      A                      A
 Frequencies --   1246.9911              1254.5028              1290.4005
 Red. masses --      1.3124                 1.3403                 1.6729
 Frc consts  --      1.2024                 1.2428                 1.6412
 IR Inten    --      3.1984                 1.0903                25.6817

                     43                     44                     45
                      A                      A                      A
 Frequencies --   1309.4843              1318.5849              1323.6572
 Red. masses --      1.6134                 1.2675                 1.3137
 Frc consts  --      1.6300                 1.2985                 1.3561
 IR Inten    --     23.0814                12.9426                 1.3499

                     46                     47                     48
                      A                      A                      A
 Frequencies --   1338.6780              1348.6017              1352.3613
 Red. masses --      1.4000                 1.6574                 1.3305
 Frc consts  --      1.4781                 1.7760                 1.4336
 IR Inten    --     27.2472                 1.2439                 3.0561

                     49                     50                     51
                      A                      A                      A
 Frequencies --   1358.1317              1368.1764              1376.4990
 Red. masses --      1.3742                 1.4854                 1.5129
 Frc consts  --      1.4934                 1.6382                 1.6889
 IR Inten    --      2.5945                 0.1732                 2.8832

                     52                     53                     54
                      A                      A                      A
 Frequencies --   1403.8165              1513.5786              1516.6562
 Red. masses --      1.5866                 1.0871                 1.0890
 Frc consts  --      1.8421                 1.4674                 1.4759
 IR Inten    --      2.4334                 0.7656                 0.8856

                     55                     56                     57
                      A                      A                      A
 Frequencies --   1519.3241              1523.8576              1525.0998
 Red. masses --      1.1224                 1.0887                 1.0917
 Frc consts  --      1.5265                 1.4896                 1.4960
 IR Inten    --     18.9236                 0.8652                 4.2922

                     58                     59                     60
                      A                      A                      A
 Frequencies --   1535.2249              1542.3596              1545.8753
 Red. masses --      1.3944                 1.1218                 1.1385
 Frc consts  --      1.9363                 1.5723                 1.6030
 IR Inten    --    102.1484                 1.8130                 4.8830

                     61                     62                     63
                      A                      A                      A
 Frequencies --   1718.9208              2991.2417              3022.0993
 Red. masses --      6.1328                 1.0731                 1.0595
 Frc consts  --     10.6763                 5.6571                 5.7013
 IR Inten    --    102.3303                86.9092                49.9476

                     64                     65                     66
                      A                      A                      A
 Frequencies --   3033.2937              3043.1689              3045.6163
 Red. masses --      1.0720                 1.0683                 1.0926
 Frc consts  --      5.8115                 5.8291                 5.9710
 IR Inten    --     15.9729                25.6374                14.1917

                     67                     68                     69
                      A                      A                      A
 Frequencies --   3051.1593              3052.7523              3066.0041
 Red. masses --      1.0938                 1.0642                 1.0661
 Frc consts  --      5.9994                 5.8434                 5.9044
 IR Inten    --     42.2609                40.8678                24.6431

                     70                     71                     72
                      A                      A                      A
 Frequencies --   3069.9013              3075.6212              3099.4630
 Red. masses --      1.0675                 1.0872                 1.0943
 Frc consts  --      5.9275                 6.0592                 6.1941
 IR Inten    --     69.9081                26.2674                29.6386

                     73                     74                     75
                      A                      A                      A
 Frequencies --   3104.0383              3110.9922              3116.4231
 Red. masses --      1.0975                 1.1046                 1.1032
 Frc consts  --      6.2304                 6.2987                 6.3128
 IR Inten    --     41.7715                53.6964                52.7911

                     76                     77                     78
                      A                      A                      A
 Frequencies --   3124.2652              3218.3364              3549.3803
 Red. masses --      1.0960                 1.0924                 1.0750
 Frc consts  --      6.3031                 6.6662                 7.9792
 IR Inten    --     22.7425                21.6475                 1.1150

 - Thermochemistry -
 -------------------
 Temperature   298.150 Kelvin.  Pressure   1.00000 Atm.
 Atom     1 has atomic number  6 and mass  12.00000

 Molecular mass:   151.13610 amu.
 Principal axes and moments of inertia in atomic units:
                           1         2         3
     Eigenvalues --   629.800503336.913403448.30225
           X            1.00000   0.00029   0.00144
           Y           -0.00021   0.99847  -0.05538
           Z           -0.00146   0.05538   0.99846
 This molecule is an asymmetric top.
 Rotational symmetry number  1.
 Warning -- assumption of classical behavior for rotation
           may cause significant error
 Rotational temperatures (Kelvin)      0.13753     0.02596     0.02512
 Rotational constants (GHZ):           2.86558     0.54084     0.52337
 Zero-point vibrational energy     675442.3 (Joules/Mol)
                                  161.43459 (Kcal/Mol)
 Warning -- explicit consideration of  13 degrees of freedom as
           vibrations may cause significant error
 Vibrational temperatures:     35.42   104.53   113.97   201.31   244.86
          (Kelvin)            323.96   391.24   448.77   529.18   668.35
                              740.67   766.26   838.40   910.95   977.30
                             1041.92  1128.70  1176.48  1210.70  1230.76
                             1264.54  1295.10  1312.99  1319.59  1331.91
                             1352.32  1375.99  1419.88  1468.86  1503.68
                             1515.97  1526.80  1557.54  1607.14  1668.17
                             1716.66  1734.93  1764.95  1789.56  1794.14
                             1804.95  1856.60  1884.06  1897.15  1904.45
                             1926.06  1940.34  1945.75  1954.05  1968.50
                             1980.48  2019.78  2177.70  2182.13  2185.97
                             2192.49  2194.28  2208.85  2219.11  2224.17
                             2473.14  4303.73  4348.13  4364.23  4378.44
                             4381.96  4389.94  4392.23  4411.30  4416.90
                             4425.13  4459.44  4466.02  4476.02  4483.84
                             4495.12  4630.47  5106.77

 Zero-point correction=                           0.257262 (Hartree/Particle)
 Thermal correction to Energy=                    0.267851
 Thermal correction to Enthalpy=                  0.268795
 Thermal correction to Gibbs Free Energy=         0.219875
 Sum of electronic and zero-point Energies=           -445.827897
 Sum of electronic and thermal Energies=              -445.817308
 Sum of electronic and thermal Enthalpies=            -445.816364
 Sum of electronic and thermal Free Energies=         -445.865284

                     E (Thermal)             CV                S
                      KCal/Mol        Cal/Mol-Kelvin    Cal/Mol-Kelvin
 Total                  168.079             41.197            102.961
 Electronic               0.000              0.000              0.000
 Translational            0.889              2.981             40.949
 Rotational               0.889              2.981             30.361
 Vibrational            166.302             35.236             31.651
 Vibration     1          0.593              1.985              6.222
 Vibration     2          0.599              1.967              4.080
 Vibration     3          0.600              1.963              3.910
 Vibration     4          0.615              1.913              2.805
 Vibration     5          0.625              1.879              2.433
 Vibration     6          0.650              1.803              1.917
 Vibration     7          0.675              1.725              1.584
 Vibration     8          0.700              1.651              1.352
 Vibration     9          0.740              1.538              1.089
 Vibration    10          0.822              1.329              0.753
 Vibration    11          0.870              1.217              0.622
 Vibration    12          0.888              1.178              0.581
 Vibration    13          0.940              1.069              0.480

 Optimization completed on the basis of negligible forces.
    -- Stationary point found.
 Normal termination of Gaussian 16 at Tue Dec  8 19:48:08 2020.

 ----------------------------------------------------------------------
 # B3LYP/6-311++G(d,p) empiricaldispersion=gd3bj scf=xqc pop=npa geom=c
 heck
 ----------------------------------------------------------------------

 ---------------------------------------
 CID_152962747_JID_1289_Energie_neutraal
 ---------------------------------------
 Structure from the checkpoint file:  "JID_1289.chk"
 Charge =  0 Multiplicity = 1

 SCF Done:  E(RB3LYP) =  -446.208000590     A.U. after   14 cycles
 Normal termination of Gaussian 16 at Tue Dec  8 19:50:52 2020.

 ----------------------------------------------------------------------
 # B3LYP/6-311++G(d,p) empiricaldispersion=gd3bj scf=xqc pop=npa geom=c
 heck
 ----------------------------------------------------------------------

 -------------------------------------
 CID_152962747_JID_1289_Energie_kation
 -------------------------------------
 Structure from the checkpoint file:  "JID_1289.chk"
 Charge =  1 Multiplicity = 2

 SCF Done:  E(UB3LYP) =  -445.944197415     A.U. after   17 cycles
 Normal termination of Gaussian 16 at Tue Dec  8 19:54:19 2020.
 Gaussian 16:  ES64L-G16RevA.03 25-Dec-2016

 ----------------------------------------------------------------------
 # B3LYP/6-311++G(d,p) empiricaldispersion=gd3bj scf=xqc pop=npa geom=c
 heck
 ----------------------------------------------------------------------

 ------------------------------------
 CID_152962747_JID_1289_Energie_anion
 ------------------------------------
 Structure from the checkpoint file:  "JID_1289.chk"
 Charge = -1 Multiplicity = 2

                         Standard orientation:
 ---------------------------------------------------------------------
 Center     Atomic      Atomic             Coordinates (Angstroms)
 Number     Number       Type             X           Y           Z
 ---------------------------------------------------------------------
      1          6           0       -3.487200   -0.221310    0.181641
      2          6           0       -2.602368    0.534463    1.187569
      3          6           0       -1.544037    1.183630    0.286590
      4          6           0       -1.187403    0.066119   -0.726409
      5          6           0       -2.497674   -0.758384   -0.883007
      6          7           0       -0.105518   -0.806126   -0.275373
      7          6           0        1.181122   -0.309786   -0.146572
      8          6           0        1.704189    0.846114   -0.603010
      9          6           0        3.198274    0.899552   -0.386834
     10          6           0        3.436410   -0.225030    0.652760
     11          6           0        2.245977   -1.191465    0.473115
     12          1           0       -4.189983    0.483118   -0.280240
     13          1           0       -4.084367   -1.015562    0.641298
     14          1           0       -3.158798    1.254100    1.796704
     15          1           0       -2.121897   -0.172397    1.878400
     16          1           0       -0.658978    1.546747    0.815956
     17          1           0       -1.988913    2.035265   -0.245829
     18          1           0       -0.860887    0.488926   -1.682038
     19          1           0       -2.276186   -1.820478   -0.728812
     20          1           0       -2.903978   -0.672657   -1.895043
     21          1           0       -0.374359   -1.441690    0.467849
     22          1           0        1.154841    1.622874   -1.123031
     23          1           0        3.550289    1.873823   -0.023462
     24          1           0        3.752231    0.700385   -1.318830
     25          1           0        4.405901   -0.719616    0.537657
     26          1           0        3.402680    0.204261    1.660377
     27          1           0        2.485961   -2.021201   -0.207751
     28          1           0        1.921329   -1.646433    1.419345
 ---------------------------------------------------------------------

 SCF Done:  E(UB3LYP) =  -446.191075923     A.U. after   31 cycles

 The electronic state is 2-A.
 Alpha  occ. eigenvalues --  -14.20813 -10.09352 -10.08977 -10.06417 -10.06352
 Alpha  occ. eigenvalues --  -10.06292 -10.05659 -10.05397 -10.05272 -10.05078
 Alpha  occ. eigenvalues --  -10.03713  -0.82432  -0.73297  -0.70617  -0.60935
 Alpha  occ. eigenvalues --   -0.60358  -0.59598  -0.56977  -0.48207  -0.46860
 Alpha  occ. eigenvalues --   -0.45820  -0.42787  -0.40069  -0.37611  -0.37006
 Alpha  occ. eigenvalues --   -0.36368  -0.32974  -0.31348  -0.29706  -0.29291
 Alpha  occ. eigenvalues --   -0.26377  -0.26152  -0.24551  -0.23977  -0.23769
 Alpha  occ. eigenvalues --   -0.23283  -0.22849  -0.22641  -0.22335  -0.21477
 Alpha  occ. eigenvalues --   -0.17815  -0.08902   0.04830
 Alpha virt. eigenvalues --    0.06969   0.07525   0.08312   0.09032   0.09126
 Alpha virt. eigenvalues --    0.09400   0.10648   0.10871   0.11160   0.11410
 Alpha virt. eigenvalues --    0.11979   0.12425   0.12848   0.14004   0.14175

  Beta  occ. eigenvalues --  -14.20793 -10.09348 -10.08977 -10.06391 -10.06336
  Beta  occ. eigenvalues --  -10.06282 -10.05639 -10.05369 -10.05241 -10.05061
  Beta  occ. eigenvalues --  -10.03704  -0.82400  -0.73272  -0.70582  -0.60896
  Beta  occ. eigenvalues --   -0.60311  -0.59555  -0.56928  -0.48155  -0.46790
  Beta  occ. eigenvalues --   -0.45752  -0.42737  -0.40024  -0.37562  -0.36960
  Beta  occ. eigenvalues --   -0.36341  -0.32927  -0.31311  -0.29676  -0.29260
  Beta  occ. eigenvalues --   -0.26345  -0.26117  -0.24518  -0.23943  -0.23745
  Beta  occ. eigenvalues --   -0.23235  -0.22811  -0.22602  -0.22297  -0.21423
  Beta  occ. eigenvalues --   -0.17790  -0.08884
  Beta virt. eigenvalues --    0.06986   0.07699   0.08384   0.08791   0.09484
  Beta virt. eigenvalues --    0.09624   0.09763   0.11051   0.11263   0.11584
  Beta virt. eigenvalues --    0.11759   0.12283   0.12734   0.13232   0.14247

 Mulliken charges and spin densities:
               1          2
     1  C   -0.249410  -0.041314
     2  C    0.889863  -1.352852
     3  C    0.135886  -0.374563
     4  C   -2.257332   2.659106
     5  C    1.479936  -2.175467
     6  N    0.036372  -0.003864
     7  C    0.658827  -0.760870
     8  C   -0.326786   0.745339
     9  C    0.321734  -1.163402
    10  C   -0.570126   0.419313
    11  C    1.039108  -1.726699
    12  H   -0.032513   0.169221
    13  H   -0.436890   0.584609
    14  H   -0.264373   0.422895
    15  H   -0.253309   0.402599
    16  H    0.217479  -0.053699
    17  H   -0.330033   0.472066
    18  H   -0.085731   0.307240
    19  H   -0.291737   0.447730
    20  H   -0.190046   0.331121
    21  H    0.170996   0.061938
    22  H   -0.056053   0.220438
    23  H   -0.004158   0.132025
    24  H   -0.026255   0.138482
    25  H    0.021520   0.111688
    26  H   -0.054781   0.183084
    27  H   -0.177313   0.337718
    28  H   -0.364876   0.506118
 Sum of Mulliken charges =  -1.00000   1.00000

 Dipole moment (field-independent basis, Debye):
    X=              3.3953    Y=              1.4424    Z=             -1.6709  Tot=              4.0498
 Quadrupole moment (field-independent basis, Debye-Ang):
   XX=           -137.2820   YY=           -106.8045   ZZ=           -104.3848
   XY=              0.7851   XZ=              1.9377   YZ=              2.1391

 Summary of Natural Population Analysis:

                                       Natural Population
                Natural  -----------------------------------------------
    Atom  No    Charge         Core      Valence    Rydberg      Total
 -----------------------------------------------------------------------
      C    1   -0.19236      0.99964     2.18491    0.00780     3.19236
      C    2   -0.19310      0.99964     2.18511    0.00835     3.19310
      C    3   -0.19970      0.99962     2.19171    0.00838     3.19970
      C    4   -0.00876      0.99960     1.99686    0.01230     3.00876
      C    5   -0.19365      0.99963     2.18537    0.00866     3.19365
      N    6   -0.31863      0.99966     2.80650    0.01247     3.81863
      C    7    0.09893      0.99946     1.88826    0.01334     2.90107
      C    8   -0.15929      0.99947     2.15185    0.00797     3.15929
      C    9   -0.19370      0.99964     2.18697    0.00709     3.19370
      C   10   -0.18362      0.99965     2.17703    0.00695     3.18362
      C   11   -0.20217      0.99960     2.19280    0.00976     3.20217
      H   12    0.09372      0.00000     0.40465    0.00163     0.40628
      H   13    0.10059      0.00000     0.39779    0.00162     0.39941
      H   14    0.10042      0.00000     0.39826    0.00132     0.39958
      H   15    0.09435      0.00000     0.40359    0.00205     0.40565
      H   16    0.10718      0.00000     0.39133    0.00149     0.39282
      H   17    0.09527      0.00000     0.40331    0.00143     0.40473
      H   18    0.09581      0.00000     0.40229    0.00189     0.40419
      H   19    0.10101      0.00000     0.39727    0.00172     0.39899
      H   20    0.10165      0.00000     0.39726    0.00108     0.39835
      H   21    0.18518      0.00000     0.31042    0.00440     0.31482
      H   22    0.09911      0.00000     0.39982    0.00107     0.40089
      H   23    0.09305      0.00000     0.40523    0.00172     0.40695
      H   24    0.08849      0.00000     0.40976    0.00175     0.41151
      H   25    0.09423      0.00000     0.40443    0.00134     0.40577
      H   26    0.09522      0.00000     0.40331    0.00147     0.40478
      H   27    0.09907      0.00000     0.39948    0.00144     0.40093
      H   28    0.10170      0.00000     0.39629    0.00201     0.39830
 =======================================================================
   * Total *   -0.00000     10.99562    30.87187    0.13251    42.00000

 Normal termination of Gaussian 16 at Tue Dec  8 20:00:53 2020.
