 Gaussian 16, Revision A.03,

 -----------------------------------------------------------
 # opt freq B3LYP/6-31G(d) empiricaldispersion=gd3bj scf=xqc
 -----------------------------------------------------------

 ------------------------------
 CID_142752875_JID_185_neutraal
 ------------------------------
 Symbolic Z-matrix:
 Charge =  0 Multiplicity = 1

 SCF Done:  E(RB3LYP) =  -838.578489522     A.U. after   14 cycles
 SCF Done:  E(RB3LYP) =  -838.584426247     A.U. after   12 cycles
 SCF Done:  E(RB3LYP) =  -838.584225109     A.U. after   13 cycles
 SCF Done:  E(RB3LYP) =  -838.584130915     A.U. after   14 cycles
 SCF Done:  E(RB3LYP) =  -838.583504219     A.U. after   13 cycles
 SCF Done:  E(RB3LYP) =  -838.584751177     A.U. after    9 cycles
 SCF Done:  E(RB3LYP) =  -838.585300751     A.U. after   13 cycles
 SCF Done:  E(RB3LYP) =  -838.585317481     A.U. after   10 cycles
 SCF Done:  E(RB3LYP) =  -838.585323177     A.U. after   10 cycles
 SCF Done:  E(RB3LYP) =  -838.585325482     A.U. after   10 cycles
 SCF Done:  E(RB3LYP) =  -838.585326389     A.U. after    9 cycles
 SCF Done:  E(RB3LYP) =  -838.585326232     A.U. after    9 cycles
 SCF Done:  E(RB3LYP) =  -838.585326050     A.U. after    9 cycles
 SCF Done:  E(RB3LYP) =  -838.585326543     A.U. after   10 cycles
 SCF Done:  E(RB3LYP) =  -838.585326040     A.U. after   11 cycles
 Optimization completed.
    -- Stationary point found.
 Normal termination of Gaussian 16 at Tue Dec  8 10:21:28 2020.

 --------------------------------------------------------------------
 #N Geom=AllCheck Guess=TCheck SCRF=Check GenChk RB3LYP/6-31G(d) Freq
 --------------------------------------------------------------------

 Structure from the checkpoint file:  "JID_185.chk"
 ------------------------------
 CID_142752875_JID_185_neutraal
 ------------------------------
 Charge =  0 Multiplicity = 1

 SCF Done:  E(RB3LYP) =  -838.585326040     A.U. after    1 cycles

  Exact polarizability: 104.271   0.581  78.821  -2.844   1.030  82.064
 Approx polarizability: 145.584   1.093 114.928  -3.318   6.589 141.723

                      1                      2                      3
                      A                      A                      A
 Frequencies --     40.8571                70.9008               192.9966
 Red. masses --      5.1967                 6.0035                 4.4815
 Frc consts  --      0.0051                 0.0178                 0.0984
 IR Inten    --      9.7803                 6.7952                 0.5695

                      4                      5                      6
                      A                      A                      A
 Frequencies --    201.6769               241.7395               260.2289
 Red. masses --      2.7570                 2.9028                 3.4595
 Frc consts  --      0.0661                 0.0999                 0.1380
 IR Inten    --      0.7722                 3.2671                 1.0617

                      7                      8                      9
                      A                      A                      A
 Frequencies --    284.1058               334.8947               390.0614
 Red. masses --      2.2846                 2.8633                 1.8123
 Frc consts  --      0.1086                 0.1892                 0.1625
 IR Inten    --      1.3915                 1.0948                39.4118

                     10                     11                     12
                      A                      A                      A
 Frequencies --    398.0502               409.0599               439.4931
 Red. masses --      2.4827                 2.8624                 3.7952
 Frc consts  --      0.2318                 0.2822                 0.4319
 IR Inten    --     18.2369                 6.9090                 7.2768

                     13                     14                     15
                      A                      A                      A
 Frequencies --    482.4177               527.1047               571.6501
 Red. masses --      2.0335                 5.0929                 2.4156
 Frc consts  --      0.2788                 0.8337                 0.4651
 IR Inten    --     95.9162                16.3905                16.9415

                     16                     17                     18
                      A                      A                      A
 Frequencies --    634.4312               699.5708               834.9814
 Red. masses --      3.7086                 2.3260                 2.1611
 Frc consts  --      0.8795                 0.6707                 0.8877
 IR Inten    --     19.8602                19.4953                18.5170

                     19                     20                     21
                      A                      A                      A
 Frequencies --    842.2035               913.6316               923.5841
 Red. masses --      2.2738                 1.5720                 2.0157
 Frc consts  --      0.9503                 0.7731                 1.0131
 IR Inten    --      1.6580                 0.3718                14.4172

                     22                     23                     24
                      A                      A                      A
 Frequencies --    947.1494               969.0193              1026.7499
 Red. masses --      1.8356                 3.4324                 2.2342
 Frc consts  --      0.9702                 1.8989                 1.3877
 IR Inten    --     41.6948               175.4509                 6.9105

                     25                     26                     27
                      A                      A                      A
 Frequencies --   1040.7528              1064.2583              1081.0134
 Red. masses --      1.9704                 2.4391                 1.4126
 Frc consts  --      1.2575                 1.6277                 0.9726
 IR Inten    --      1.7798                16.6406                18.6546

                     28                     29                     30
                      A                      A                      A
 Frequencies --   1115.2389              1136.7742              1157.7111
 Red. masses --      2.0270                 1.9695                 1.3955
 Frc consts  --      1.4854                 1.4995                 1.1020
 IR Inten    --     19.2755                26.9385                28.5688

                     31                     32                     33
                      A                      A                      A
 Frequencies --   1204.7219              1225.2364              1230.0267
 Red. masses --      1.9952                 1.6001                 2.0215
 Frc consts  --      1.7061                 1.4153                 1.8020
 IR Inten    --     96.7694                16.2283                46.3807

                     34                     35                     36
                      A                      A                      A
 Frequencies --   1289.3829              1296.7849              1324.8240
 Red. masses --      1.4114                 1.3289                 1.3201
 Frc consts  --      1.3825                 1.3167                 1.3651
 IR Inten    --     16.6862                 2.7862                 0.4783

                     37                     38                     39
                      A                      A                      A
 Frequencies --   1347.9516              1365.4091              1404.0502
 Red. masses --      1.2850                 1.2872                 1.3301
 Frc consts  --      1.3756                 1.4139                 1.5449
 IR Inten    --      0.2353                 8.5364                 0.0675

                     40                     41                     42
                      A                      A                      A
 Frequencies --   1413.8958              1440.0602              1478.8800
 Red. masses --      1.4782                 1.2016                 1.0906
 Frc consts  --      1.7410                 1.4682                 1.4054
 IR Inten    --      3.0616                 3.2317                 5.2582

                     43                     44                     45
                      A                      A                      A
 Frequencies --   1490.3371              1504.5615              1520.2040
 Red. masses --      1.0872                 1.0829                 1.0855
 Frc consts  --      1.4227                 1.4443                 1.4781
 IR Inten    --      9.3299                 4.3584                10.7605

                     46                     47                     48
                      A                      A                      A
 Frequencies --   1838.1004              2890.4749              3056.0498
 Red. masses --     10.0303                 1.0832                 1.0606
 Frc consts  --     19.9664                 5.3323                 5.8361
 IR Inten    --    194.7135                94.1114                19.7911

                     49                     50                     51
                      A                      A                      A
 Frequencies --   3060.0970              3062.7947              3079.7046
 Red. masses --      1.0630                 1.0849                 1.0606
 Frc consts  --      5.8647                 5.9960                 5.9265
 IR Inten    --     19.0479                11.0292                 4.1016

                     52                     53                     54
                      A                      A                      A
 Frequencies --   3090.4751              3101.2193              3114.6435
 Red. masses --      1.0619                 1.1018                 1.0986
 Frc consts  --      5.9754                 6.2435                 6.2792
 IR Inten    --      3.0206                12.0767                10.8921

                     55                     56                     57
                      A                      A                      A
 Frequencies --   3137.3878              3154.6569              3489.4763
 Red. masses --      1.1073                 1.1066                 1.0744
 Frc consts  --      6.4215                 6.4884                 7.7076
 IR Inten    --      5.8534                 2.2359                 8.7462

 - Thermochemistry -
 -------------------
 Temperature   298.150 Kelvin.  Pressure   1.00000 Atm.
 Atom     1 has atomic number  6 and mass  12.00000

 Molecular mass:   161.05105 amu.
 Principal axes and moments of inertia in atomic units:
                           1         2         3
     Eigenvalues --   660.399342721.782122877.13724
           X            1.00000   0.00224   0.00104
           Y           -0.00220   0.99931  -0.03698
           Z           -0.00112   0.03698   0.99932
 This molecule is an asymmetric top.
 Rotational symmetry number  1.
 Warning -- assumption of classical behavior for rotation
           may cause significant error
 Rotational temperatures (Kelvin)      0.13115     0.03182     0.03010
 Rotational constants (GHZ):           2.73280     0.66307     0.62727
 Zero-point vibrational energy     453646.2 (Joules/Mol)
                                  108.42403 (Kcal/Mol)
 Warning -- explicit consideration of  15 degrees of freedom as
           vibrations may cause significant error
 Vibrational temperatures:     58.78   102.01   277.68   290.17   347.81
          (Kelvin)            374.41   408.76   481.84   561.21   572.71
                              588.55   632.33   694.09   758.39   822.48
                              912.80  1006.53  1201.35  1211.74  1314.51
                             1328.83  1362.74  1394.20  1477.26  1497.41
                             1531.23  1555.34  1604.58  1635.56  1665.69
                             1733.33  1762.84  1769.73  1855.13  1865.78
                             1906.13  1939.40  1964.52  2020.12  2034.28
                             2071.93  2127.78  2144.26  2164.73  2187.23
                             2644.62  4158.75  4396.97  4402.80  4406.68
                             4431.01  4446.50  4461.96  4481.28  4514.00
                             4538.85  5020.58

 Zero-point correction=                           0.172785 (Hartree/Particle)
 Thermal correction to Energy=                    0.182907
 Thermal correction to Enthalpy=                  0.183851
 Thermal correction to Gibbs Free Energy=         0.136866
 Sum of electronic and zero-point Energies=           -838.412541
 Sum of electronic and thermal Energies=              -838.402419
 Sum of electronic and thermal Enthalpies=            -838.401475
 Sum of electronic and thermal Free Energies=         -838.448460

                     E (Thermal)             CV                S
                      KCal/Mol        Cal/Mol-Kelvin    Cal/Mol-Kelvin
 Total                  114.776             38.497             98.889
 Electronic               0.000              0.000              0.000
 Translational            0.889              2.981             41.139
 Rotational               0.889              2.981             30.026
 Vibrational            112.998             32.536             27.724
 Vibration     1          0.594              1.981              5.217
 Vibration     2          0.598              1.968              4.128
 Vibration     3          0.635              1.850              2.199
 Vibration     4          0.639              1.838              2.118
 Vibration     5          0.658              1.776              1.790
 Vibration     6          0.668              1.745              1.660
 Vibration     7          0.683              1.703              1.509
 Vibration     8          0.716              1.606              1.236
 Vibration     9          0.758              1.491              1.000
 Vibration    10          0.764              1.474              0.970
 Vibration    11          0.773              1.451              0.930
 Vibration    12          0.800              1.384              0.828
 Vibration    13          0.839              1.289              0.704
 Vibration    14          0.882              1.190              0.594
 Vibration    15          0.928              1.093              0.501

 Optimization completed.
    -- Stationary point found.
 Normal termination of Gaussian 16 at Tue Dec  8 10:25:10 2020.

 ----------------------------------------------------------------------
 # B3LYP/6-311++G(d,p) empiricaldispersion=gd3bj scf=xqc pop=npa geom=c
 heck
 ----------------------------------------------------------------------

 --------------------------------------
 CID_142752875_JID_185_Energie_neutraal
 --------------------------------------
 Structure from the checkpoint file:  "JID_185.chk"
 Charge =  0 Multiplicity = 1

 SCF Done:  E(RB3LYP) =  -838.748153645     A.U. after   14 cycles
 Normal termination of Gaussian 16 at Tue Dec  8 10:26:43 2020.

 ----------------------------------------------------------------------
 # B3LYP/6-311++G(d,p) empiricaldispersion=gd3bj scf=xqc pop=npa geom=c
 heck
 ----------------------------------------------------------------------

 ------------------------------------
 CID_142752875_JID_185_Energie_kation
 ------------------------------------
 Structure from the checkpoint file:  "JID_185.chk"
 Charge =  1 Multiplicity = 2

 SCF Done:  E(UB3LYP) =  -838.412925917     A.U. after   24 cycles
 Normal termination of Gaussian 16 at Tue Dec  8 10:30:22 2020.
 Gaussian 16:  ES64L-G16RevA.03 25-Dec-2016

 ----------------------------------------------------------------------
 # B3LYP/6-311++G(d,p) empiricaldispersion=gd3bj scf=xqc pop=npa geom=c
 heck
 ----------------------------------------------------------------------

 -----------------------------------
 CID_142752875_JID_185_Energie_anion
 -----------------------------------
 Structure from the checkpoint file:  "JID_185.chk"
 Charge = -1 Multiplicity = 2

                         Standard orientation:
 ---------------------------------------------------------------------
 Center     Atomic      Atomic             Coordinates (Angstroms)
 Number     Number       Type             X           Y           Z
 ---------------------------------------------------------------------
      1          6           0        0.768283   -1.272560    0.216483
      2          6           0       -0.620032   -1.418834   -0.405753
      3         16           0       -1.688885    0.005567    0.033327
      4          7           0       -1.726760    0.269588    1.562164
      5          8           0       -2.902816   -0.119588   -0.809043
      6          6           0       -0.635799    1.352079   -0.551193
      7          6           0        0.767993    1.290159    0.053859
      8          6           0        1.515997   -0.017286   -0.284639
      9          6           0        2.890788    0.022317    0.352338
     10          8           0        3.934890   -0.034424   -0.255895
     11          1           0        1.355310   -2.167616   -0.021691
     12          1           0        0.663822   -1.227968    1.306956
     13          1           0       -0.589727   -1.464534   -1.499009
     14          1           0       -1.146993   -2.305819   -0.039857
     15          1           0       -2.331686   -0.413064    2.023660
     16          1           0       -1.162725    2.268419   -0.273386
     17          1           0       -0.625843    1.263359   -1.641997
     18          1           0        0.681612    1.403208    1.139623
     19          1           0        1.340690    2.145401   -0.324686
     20          1           0        1.666173   -0.088806   -1.368980
     21          1           0        2.878869    0.108076    1.463924
 ---------------------------------------------------------------------

 SCF Done:  E(UB3LYP) =  -838.739751837     A.U. after   33 cycles
 SCF Done:  E(UB3LYP) =  -838.739751837     a.u. after    1 cycles

 The electronic state is 2-A.
 Alpha  occ. eigenvalues --  -88.91502 -18.99692 -18.98471 -14.17522 -10.11531
 Alpha  occ. eigenvalues --  -10.10389 -10.09582 -10.07905 -10.07902 -10.07421
 Alpha  occ. eigenvalues --   -7.98245  -5.94493  -5.94362  -5.94321  -0.95528
 Alpha  occ. eigenvalues --   -0.91835  -0.79682  -0.72980  -0.67312  -0.64554
 Alpha  occ. eigenvalues --   -0.54263  -0.53216  -0.47326  -0.45957  -0.40198
 Alpha  occ. eigenvalues --   -0.38482  -0.36492  -0.35660  -0.34433  -0.33605
 Alpha  occ. eigenvalues --   -0.32043  -0.31234  -0.29803  -0.27362  -0.27113
 Alpha  occ. eigenvalues --   -0.26956  -0.23912  -0.23072  -0.22375  -0.18956
 Alpha  occ. eigenvalues --   -0.16964  -0.14472  -0.12978   0.04970
 Alpha virt. eigenvalues --    0.07043   0.07681   0.08546   0.09645   0.10338
 Alpha virt. eigenvalues --    0.10975   0.11758   0.11888   0.13239   0.13986
 Alpha virt. eigenvalues --    0.14404   0.14648   0.15743   0.16563   0.17223

  Beta  occ. eigenvalues --  -88.91501 -18.99682 -18.98172 -14.17495 -10.11250
  Beta  occ. eigenvalues --  -10.10358 -10.09513 -10.07888 -10.07839 -10.07434
  Beta  occ. eigenvalues --   -7.98243  -5.94491  -5.94361  -5.94320  -0.95512
  Beta  occ. eigenvalues --   -0.91266  -0.79634  -0.72883  -0.67232  -0.64398
  Beta  occ. eigenvalues --   -0.54126  -0.53017  -0.47128  -0.45572  -0.40131
  Beta  occ. eigenvalues --   -0.38430  -0.36443  -0.35536  -0.34231  -0.33430
  Beta  occ. eigenvalues --   -0.31873  -0.31115  -0.29670  -0.27246  -0.26812
  Beta  occ. eigenvalues --   -0.26116  -0.23840  -0.22484  -0.22234  -0.18910
  Beta  occ. eigenvalues --   -0.16934  -0.14419  -0.12738
  Beta virt. eigenvalues --    0.07683   0.08645   0.09137   0.09880   0.09929
  Beta virt. eigenvalues --    0.10834   0.11521   0.12107   0.12454   0.13188
  Beta virt. eigenvalues --    0.14290   0.14526   0.14902   0.15870   0.16555

 Mulliken charges and spin densities:
               1          2
     1  C    0.215168  -0.461844
     2  C   -0.473340  -0.307962
     3  S    1.800804  -1.345007
     4  N   -0.535415   0.119449
     5  O   -0.240565   0.069803
     6  C   -0.781328   0.126879
     7  C    0.112084  -0.451066
     8  C    0.250119  -0.013321
     9  C   -0.014310  -0.064773
    10  O   -0.305019   0.093232
    11  H   -0.142545   0.337296
    12  H    0.089042   0.072638
    13  H   -0.182388   0.425383
    14  H   -0.627671   0.887085
    15  H    0.043924   0.215444
    16  H    0.060207   0.166857
    17  H   -0.099328   0.333396
    18  H   -0.009964   0.208070
    19  H   -0.140722   0.330622
    20  H   -0.092968   0.291789
    21  H    0.074216  -0.033970
 Sum of Mulliken charges =  -1.00000   1.00000

 Dipole moment (field-independent basis, Debye):
    X=             -0.5746    Y=              2.0042    Z=              1.4387  Tot=              2.5331
 Quadrupole moment (field-independent basis, Debye-Ang):
   XX=           -130.9700   YY=           -100.9163   ZZ=            -92.8061
   XY=             -4.3639   XZ=              3.2512   YZ=             -2.8901

 Summary of Natural Population Analysis:

                                       Natural Population
                Natural  -----------------------------------------------
    Atom  No    Charge         Core      Valence    Rydberg      Total
 -----------------------------------------------------------------------
      C    1   -0.19944      0.99960     2.18864    0.01121     3.19944
      C    2   -0.28435      0.99959     2.27145    0.01331     3.28435
      S    3    0.94098      4.99916     1.97417    0.08570     7.05902
      N    4   -0.57511      0.99979     3.06663    0.00868     4.07511
      O    5   -0.47625      0.99992     3.47105    0.00529     4.47625
      C    6   -0.27473      0.99959     2.26344    0.01171     3.27473
      C    7   -0.19592      0.99960     2.18572    0.01060     3.19592
      C    8   -0.15905      0.99957     2.14706    0.01242     3.15905
      C    9    0.26532      0.99970     1.71471    0.02028     2.73468
      O   10   -0.25651      0.99988     3.24968    0.00696     4.25651
      H   11    0.10864      0.00000     0.39004    0.00132     0.39136
      H   12    0.10612      0.00000     0.39215    0.00173     0.39388
      H   13    0.11387      0.00000     0.38395    0.00218     0.38613
      H   14    0.11948      0.00000     0.37558    0.00494     0.38052
      H   15    0.17992      0.00000     0.31749    0.00259     0.32008
      H   16    0.11782      0.00000     0.38091    0.00127     0.38218
      H   17    0.11272      0.00000     0.38573    0.00156     0.38728
      H   18    0.11025      0.00000     0.38824    0.00151     0.38975
      H   19    0.10799      0.00000     0.39065    0.00136     0.39201
      H   20    0.10270      0.00000     0.39528    0.00203     0.39730
      H   21    0.03555      0.00000     0.46217    0.00228     0.46445
 =======================================================================
   * Total *   -0.00000     13.99639    28.79472    0.20890    43.00000

 Normal termination of Gaussian 16 at Tue Dec  8 10:38:37 2020.
