 Gaussian 16, Revision A.03,

 -----------------------------------------------------------
 # opt freq B3LYP/6-31G(d) empiricaldispersion=gd3bj scf=xqc
 -----------------------------------------------------------

 -------------------------------
 CID_116794207_JID_4540_neutraal
 -------------------------------
 Symbolic Z-matrix:
 Charge =  0 Multiplicity = 1

 SCF Done:  E(RB3LYP) =  -971.193341533     A.U. after   15 cycles
 SCF Done:  E(RB3LYP) =  -971.195091528     A.U. after   13 cycles
 SCF Done:  E(RB3LYP) =  -971.192077920     A.U. after   14 cycles
 SCF Done:  E(RB3LYP) =  -971.196364721     A.U. after   13 cycles
 SCF Done:  E(RB3LYP) =  -971.198112171     A.U. after   15 cycles
 SCF Done:  E(RB3LYP) =  -971.198949740     A.U. after   12 cycles
 SCF Done:  E(RB3LYP) =  -971.199242453     A.U. after   12 cycles
 SCF Done:  E(RB3LYP) =  -971.199379136     A.U. after   11 cycles
 SCF Done:  E(RB3LYP) =  -971.199552764     A.U. after   12 cycles
 SCF Done:  E(RB3LYP) =  -971.199674323     A.U. after   12 cycles
 SCF Done:  E(RB3LYP) =  -971.200587278     A.U. after   11 cycles
 SCF Done:  E(RB3LYP) =  -971.200588543     A.U. after    8 cycles
 SCF Done:  E(RB3LYP) =  -971.200588654     A.U. after    7 cycles
 SCF Done:  E(RB3LYP) =  -971.200588688     A.U. after    6 cycles
 SCF Done:  E(RB3LYP) =  -971.200588695     A.U. after    6 cycles
 Optimization completed.
    -- Stationary point found.
 Normal termination of Gaussian 16 at Thu Dec 10 10:23:07 2020.

 --------------------------------------------------------------------
 #N Geom=AllCheck Guess=TCheck SCRF=Check GenChk RB3LYP/6-31G(d) Freq
 --------------------------------------------------------------------

 Structure from the checkpoint file:  "JID_4540.chk"
 -------------------------------
 CID_116794207_JID_4540_neutraal
 -------------------------------
 Charge =  0 Multiplicity = 1

 SCF Done:  E(RB3LYP) =  -971.200588695     A.U. after    1 cycles

  Exact polarizability: 116.303   3.403 147.753 -14.920   6.221 110.612
 Approx polarizability: 164.244   5.447 240.879 -32.996  20.744 201.354

                      1                      2                      3
                      A                      A                      A
 Frequencies --     25.7962                46.3949                63.6530
 Red. masses --      4.2248                 3.3274                 1.6781
 Frc consts  --      0.0017                 0.0042                 0.0040
 IR Inten    --      0.4376                 2.5777                 0.1581

                      4                      5                      6
                      A                      A                      A
 Frequencies --     67.1058                82.6960               114.3783
 Red. masses --      2.8630                 4.5696                 4.2965
 Frc consts  --      0.0076                 0.0184                 0.0331
 IR Inten    --      0.1620                 0.2823                 0.6434

                      7                      8                      9
                      A                      A                      A
 Frequencies --    162.6487               212.2669               252.3848
 Red. masses --      3.2119                 3.8498                 4.0614
 Frc consts  --      0.0501                 0.1022                 0.1524
 IR Inten    --      2.0529                 0.2073                 0.1192

                     10                     11                     12
                      A                      A                      A
 Frequencies --    314.3020               322.2629               397.7594
 Red. masses --      2.7123                 4.2120                 3.8873
 Frc consts  --      0.1579                 0.2577                 0.3624
 IR Inten    --      0.3799                 4.0401                 7.0036

                     13                     14                     15
                      A                      A                      A
 Frequencies --    410.6388               493.4419               516.2603
 Red. masses --      3.3064                 3.9655                 4.7944
 Frc consts  --      0.3285                 0.5689                 0.7529
 IR Inten    --      1.2627                 0.7807                 7.5412

                     16                     17                     18
                      A                      A                      A
 Frequencies --    564.6185               600.8567               620.7400
 Red. masses --      3.5451                 3.6540                 3.9628
 Frc consts  --      0.6659                 0.7773                 0.8996
 IR Inten    --      1.4413                 7.4022                 8.3163

                     19                     20                     21
                      A                      A                      A
 Frequencies --    639.5337               671.7105               680.6688
 Red. masses --      6.2869                 3.2531                 4.1485
 Frc consts  --      1.5150                 0.8648                 1.1324
 IR Inten    --      4.9879                12.2871                 1.9161

                     22                     23                     24
                      A                      A                      A
 Frequencies --    709.3497               751.4905               763.1809
 Red. masses --      1.2153                 7.1820                 2.9424
 Frc consts  --      0.3603                 2.3897                 1.0097
 IR Inten    --     64.0646                 0.4955                 3.0836

                     25                     26                     27
                      A                      A                      A
 Frequencies --    774.9751               832.7936               838.9078
 Red. masses --      1.5347                 1.3020                 1.3602
 Frc consts  --      0.5431                 0.5320                 0.5640
 IR Inten    --     16.6932                13.6019                17.5054

                     28                     29                     30
                      A                      A                      A
 Frequencies --    862.0499               888.5527               903.7581
 Red. masses --      3.6568                 2.4595                 1.3070
 Frc consts  --      1.6011                 1.1441                 0.6290
 IR Inten    --     11.2297                 2.7975                 0.4544

                     31                     32                     33
                      A                      A                      A
 Frequencies --    939.3688              1001.3945              1039.5712
 Red. masses --      2.5382                 3.3423                 5.0207
 Frc consts  --      1.3196                 1.9747                 3.1969
 IR Inten    --      1.6257                47.7565                 0.2585

                     34                     35                     36
                      A                      A                      A
 Frequencies --   1059.1054              1081.3905              1084.1159
 Red. masses --      1.8405                 1.8057                 1.6244
 Frc consts  --      1.2164                 1.2441                 1.1249
 IR Inten    --      9.4897                41.2889                 1.0691

                     37                     38                     39
                      A                      A                      A
 Frequencies --   1102.0361              1115.3283              1155.9935
 Red. masses --      2.3547                 1.2158                 1.3135
 Frc consts  --      1.6849                 0.8911                 1.0342
 IR Inten    --     49.8116                 2.5371                10.5825

                     40                     41                     42
                      A                      A                      A
 Frequencies --   1174.4078              1205.0501              1216.7722
 Red. masses --      3.0818                 1.9429                 1.4906
 Frc consts  --      2.5043                 1.6623                 1.3003
 IR Inten    --     13.2885                30.9930                 7.8854

                     43                     44                     45
                      A                      A                      A
 Frequencies --   1240.3881              1296.9979              1305.5101
 Red. masses --      1.4332                 1.3149                 1.2545
 Frc consts  --      1.2992                 1.3032                 1.2598
 IR Inten    --      6.2472                 6.5066                 0.3502

                     46                     47                     48
                      A                      A                      A
 Frequencies --   1370.5435              1386.0314              1396.7818
 Red. masses --      3.5001                 1.3933                 1.9935
 Frc consts  --      3.8737                 1.5771                 2.2916
 IR Inten    --     30.3373                 3.8093               105.9028

                     49                     50                     51
                      A                      A                      A
 Frequencies --   1409.3846              1428.8502              1446.8338
 Red. masses --      2.2098                 3.0939                 2.9368
 Frc consts  --      2.5862                 3.7216                 3.6221
 IR Inten    --     30.7991                14.0547                42.9914

                     52                     53                     54
                      A                      A                      A
 Frequencies --   1461.9933              1488.0678              1497.1385
 Red. masses --      1.9006                 1.9147                 3.6798
 Frc consts  --      2.3935                 2.4981                 4.8595
 IR Inten    --     13.8620                27.6285                 3.6691

                     55                     56                     57
                      A                      A                      A
 Frequencies --   1502.9550              1514.8642              1526.3358
 Red. masses --      1.2455                 1.0757                 1.1336
 Frc consts  --      1.6576                 1.4544                 1.5560
 IR Inten    --      3.8195                 6.6797                 2.1856

                     58                     59                     60
                      A                      A                      A
 Frequencies --   1540.6446              1597.9943              1631.3412
 Red. masses --      1.1409                 5.2455                 5.2548
 Frc consts  --      1.5955                 7.8920                 8.2394
 IR Inten    --     10.7325                 1.4707                83.5459

                     61                     62                     63
                      A                      A                      A
 Frequencies --   3043.5884              3052.9397              3054.7990
 Red. masses --      1.0583                 1.0605                 1.0399
 Frc consts  --      5.7759                 5.8238                 5.7175
 IR Inten    --     27.3431                65.9791                40.9646

                     64                     65                     66
                      A                      A                      A
 Frequencies --   3091.4471              3105.7176              3121.3003
 Red. masses --      1.1060                 1.1053                 1.0999
 Frc consts  --      6.2278                 6.2815                 6.3133
 IR Inten    --     20.5677                30.2527                20.8199

                     67                     68                     69
                      A                      A                      A
 Frequencies --   3177.2545              3205.7714              3225.3712
 Red. masses --      1.1020                 1.0898                 1.0940
 Frc consts  --      6.5543                 6.5990                 6.7054
 IR Inten    --      4.8869                 7.5888                 8.4714

                     70                     71                     72
                      A                      A                      A
 Frequencies --   3270.5097              3271.5444              3292.9373
 Red. masses --      1.0966                 1.0968                 1.0980
 Frc consts  --      6.9108                 6.9165                 7.0148
 IR Inten    --      4.5127                 1.0712                 4.3070

 - Thermochemistry -
 -------------------
 Temperature   298.150 Kelvin.  Pressure   1.00000 Atm.
 Atom     1 has atomic number  6 and mass  12.00000

 Molecular mass:   208.06703 amu.
 Principal axes and moments of inertia in atomic units:
                           1         2         3
     Eigenvalues --  2016.700683572.690824635.53256
           X            0.99935   0.03501  -0.00804
           Y           -0.03499   0.99938   0.00248
           Z            0.00813  -0.00220   0.99996
 This molecule is an asymmetric top.
 Rotational symmetry number  1.
 Warning -- assumption of classical behavior for rotation
           may cause significant error
 Rotational temperatures (Kelvin)      0.04295     0.02424     0.01868
 Rotational constants (GHZ):           0.89490     0.50515     0.38933
 Zero-point vibrational energy     548580.8 (Joules/Mol)
                                  131.11396 (Kcal/Mol)
 Warning -- explicit consideration of  18 degrees of freedom as
           vibrations may cause significant error
 Vibrational temperatures:     37.11    66.75    91.58    96.55   118.98
          (Kelvin)            164.56   234.02   305.40   363.13   452.21
                              463.66   572.29   590.82   709.95   742.78
                              812.36   864.50   893.11   920.15   966.44
                              979.33  1020.60  1081.23  1098.05  1115.02
                             1198.20  1207.00  1240.30  1278.43  1300.31
                             1351.54  1440.78  1495.71  1523.82  1555.88
                             1559.80  1585.58  1604.71  1663.22  1689.71
                             1733.80  1750.66  1784.64  1866.09  1878.34
                             1971.91  1994.19  2009.66  2027.79  2055.80
                             2081.67  2103.48  2141.00  2154.05  2162.42
                             2179.55  2196.06  2216.64  2299.16  2347.14
                             4379.04  4392.50  4395.17  4447.90  4468.43
                             4490.85  4571.36  4612.39  4640.59  4705.53
                             4707.02  4737.80

 Zero-point correction=                           0.208943 (Hartree/Particle)
 Thermal correction to Energy=                    0.222079
 Thermal correction to Enthalpy=                  0.223023
 Thermal correction to Gibbs Free Energy=         0.167006
 Sum of electronic and zero-point Energies=           -970.991645
 Sum of electronic and thermal Energies=              -970.978510
 Sum of electronic and thermal Enthalpies=            -970.977566
 Sum of electronic and thermal Free Energies=         -971.033583

                     E (Thermal)             CV                S
                      KCal/Mol        Cal/Mol-Kelvin    Cal/Mol-Kelvin
 Total                  139.356             48.625            117.897
 Electronic               0.000              0.000              0.000
 Translational            0.889              2.981             41.902
 Rotational               0.889              2.981             31.880
 Vibrational            137.579             42.663             44.115
 Vibration     1          0.593              1.985              6.129
 Vibration     2          0.595              1.979              4.965
 Vibration     3          0.597              1.972              4.341
 Vibration     4          0.598              1.970              4.237
 Vibration     5          0.600              1.961              3.826
 Vibration     6          0.607              1.938              3.193
 Vibration     7          0.623              1.888              2.519
 Vibration     8          0.643              1.822              2.024
 Vibration     9          0.664              1.759              1.714
 Vibration    10          0.702              1.646              1.340
 Vibration    11          0.707              1.631              1.299
 Vibration    12          0.764              1.475              0.971
 Vibration    13          0.775              1.447              0.924
 Vibration    14          0.849              1.265              0.675
 Vibration    15          0.871              1.214              0.619
 Vibration    16          0.920              1.108              0.515
 Vibration    17          0.959              1.030              0.448
 Vibration    18          0.981              0.988              0.415

 Optimization completed.
    -- Stationary point found.
 Normal termination of Gaussian 16 at Thu Dec 10 10:30:25 2020.

 ----------------------------------------------------------------------
 # B3LYP/6-311++G(d,p) empiricaldispersion=gd3bj scf=xqc pop=npa geom=c
 heck
 ----------------------------------------------------------------------

 ---------------------------------------
 CID_116794207_JID_4540_Energie_neutraal
 ---------------------------------------
 Structure from the checkpoint file:  "JID_4540.chk"
 Charge =  0 Multiplicity = 1

 SCF Done:  E(RB3LYP) =  -971.382667812     A.U. after   15 cycles
 Normal termination of Gaussian 16 at Thu Dec 10 10:33:31 2020.

 ----------------------------------------------------------------------
 # B3LYP/6-311++G(d,p) empiricaldispersion=gd3bj scf=xqc pop=npa geom=c
 heck
 ----------------------------------------------------------------------

 -------------------------------------
 CID_116794207_JID_4540_Energie_kation
 -------------------------------------
 Structure from the checkpoint file:  "JID_4540.chk"
 Charge =  1 Multiplicity = 2

 SCF Done:  E(UB3LYP) =  -971.099701051     A.U. after   26 cycles
 Normal termination of Gaussian 16 at Thu Dec 10 10:40:12 2020.
 Gaussian 16:  ES64L-G16RevA.03 25-Dec-2016

 ----------------------------------------------------------------------
 # B3LYP/6-311++G(d,p) empiricaldispersion=gd3bj scf=xqc pop=npa geom=c
 heck
 ----------------------------------------------------------------------

 ------------------------------------
 CID_116794207_JID_4540_Energie_anion
 ------------------------------------
 Structure from the checkpoint file:  "JID_4540.chk"
 Charge = -1 Multiplicity = 2

                         Standard orientation:
 ---------------------------------------------------------------------
 Center     Atomic      Atomic             Coordinates (Angstroms)
 Number     Number       Type             X           Y           Z
 ---------------------------------------------------------------------
      1          6           0       -2.765885   -2.168972   -0.646142
      2          7           0       -2.427992   -0.809342   -0.284863
      3          6           0       -1.238073   -0.174734   -0.495323
      4          6           0       -1.350711    1.054371    0.137209
      5          6           0       -2.641958    1.060592    0.709349
      6          7           0       -3.286299   -0.081333    0.458666
      7          8           0       -0.458797    2.081006    0.255760
      8          6           0        0.468296    2.284212   -0.808076
      9          6           0        1.886579    1.830935   -0.429667
     10          6           0        2.012844    0.351826   -0.220493
     11          6           0        2.257832   -0.617731   -1.161144
     12          6           0        2.197117   -1.945443   -0.637327
     13          6           0        1.909629   -1.969438    0.700727
     14         16           0        1.709541   -0.369779    1.336216
     15          1           0       -2.324257   -2.889038    0.052897
     16          1           0       -3.852317   -2.258727   -0.616844
     17          1           0       -2.406414   -2.384708   -1.656386
     18          1           0       -0.425632   -0.639421   -1.031639
     19          1           0       -3.112262    1.848122    1.281460
     20          1           0        0.124663    1.767116   -1.711582
     21          1           0        0.480001    3.362302   -1.007806
     22          1           0        2.562475    2.137531   -1.238517
     23          1           0        2.194298    2.378736    0.467865
     24          1           0        2.473244   -0.385759   -2.199491
     25          1           0        2.370575   -2.838215   -1.228133
     26          1           0        1.819366   -2.828503    1.351338
 ---------------------------------------------------------------------

 SCF Done:  E(UB3LYP) =  -971.371362318     A.U. after   33 cycles
 SCF Done:  E(UB3LYP) =  -971.371362318     a.u. after    1 cycles

 The electronic state is 2-A.
 Alpha  occ. eigenvalues --  -88.77006 -19.05189 -14.29199 -14.23250 -10.13039
 Alpha  occ. eigenvalues --  -10.12486 -10.11501 -10.10019 -10.09902 -10.09253
 Alpha  occ. eigenvalues --  -10.08863 -10.08610 -10.07367 -10.06934  -7.85646
 Alpha  occ. eigenvalues --   -5.81921  -5.81558  -5.81261  -0.96983  -0.94954
 Alpha  occ. eigenvalues --   -0.78039  -0.74579  -0.69915  -0.67760  -0.63168
 Alpha  occ. eigenvalues --   -0.62179  -0.59471  -0.54585  -0.49587  -0.47879
 Alpha  occ. eigenvalues --   -0.46076  -0.44423  -0.43431  -0.40494  -0.39586
 Alpha  occ. eigenvalues --   -0.38278  -0.36775  -0.35154  -0.34424  -0.32683
 Alpha  occ. eigenvalues --   -0.32238  -0.30907  -0.30100  -0.29591  -0.27605
 Alpha  occ. eigenvalues --   -0.27101  -0.26668  -0.24461  -0.23982  -0.22524
 Alpha  occ. eigenvalues --   -0.19783  -0.15932  -0.15141  -0.13454  -0.12014
 Alpha  occ. eigenvalues --    0.04236
 Alpha virt. eigenvalues --    0.06053   0.07370   0.07539   0.08085   0.09028
 Alpha virt. eigenvalues --    0.09207   0.09483   0.09626   0.10601   0.11426
 Alpha virt. eigenvalues --    0.11499   0.11940   0.12600   0.13008   0.13724

  Beta  occ. eigenvalues --  -88.76995 -19.05189 -14.29197 -14.23247 -10.13011
  Beta  occ. eigenvalues --  -10.12487 -10.11467 -10.10011 -10.09839 -10.09195
  Beta  occ. eigenvalues --  -10.08862 -10.08594 -10.07355 -10.06903  -7.85635
  Beta  occ. eigenvalues --   -5.81915  -5.81554  -5.81228  -0.96981  -0.94950
  Beta  occ. eigenvalues --   -0.77958  -0.74566  -0.69871  -0.67716  -0.63094
  Beta  occ. eigenvalues --   -0.62105  -0.59414  -0.54531  -0.49572  -0.47845
  Beta  occ. eigenvalues --   -0.45990  -0.44391  -0.43327  -0.40419  -0.39560
  Beta  occ. eigenvalues --   -0.38255  -0.36733  -0.35094  -0.34394  -0.32642
  Beta  occ. eigenvalues --   -0.32208  -0.30872  -0.30052  -0.29549  -0.27543
  Beta  occ. eigenvalues --   -0.26981  -0.26586  -0.24427  -0.23916  -0.22500
  Beta  occ. eigenvalues --   -0.19770  -0.15887  -0.15022  -0.13185  -0.11965
  Beta virt. eigenvalues --    0.06709   0.07065   0.08013   0.08245   0.08553
  Beta virt. eigenvalues --    0.09358   0.09568   0.09756   0.10112   0.10936
  Beta virt. eigenvalues --    0.11740   0.11991   0.12239   0.12819   0.13365

 Mulliken charges and spin densities:
               1          2
     1  C    0.810652  -1.121842
     2  N    0.195969   0.097791
     3  C   -0.398784   0.079400
     4  C   -0.447399   0.386316
     5  C   -0.075870  -0.151946
     6  N   -0.252816  -0.010140
     7  O   -0.105752   0.017167
     8  C    0.339585  -0.533217
     9  C    2.147519  -2.722829
    10  C   -0.830548   1.388289
    11  C   -1.335501   0.749398
    12  C    1.526541  -1.690456
    13  C   -0.399902  -0.050521
    14  S    0.164346   0.103257
    15  H   -0.218538   0.394146
    16  H    0.012034   0.141113
    17  H   -0.414416   0.570184
    18  H    0.694693  -0.475294
    19  H    0.098576   0.042217
    20  H   -0.104635   0.246853
    21  H   -0.327825   0.513943
    22  H   -0.379549   0.561259
    23  H   -0.043753   0.230266
    24  H   -0.779002   0.953537
    25  H   -0.605878   0.773154
    26  H   -0.269743   0.507956
 Sum of Mulliken charges =  -1.00000   1.00000

 Dipole moment (field-independent basis, Debye):
    X=             -2.3853    Y=              1.6838    Z=              3.5819  Tot=              4.6212
 Quadrupole moment (field-independent basis, Debye-Ang):
   XX=           -148.5613   YY=           -145.7850   ZZ=           -126.4804
   XY=             -5.1363   XZ=             10.6161   YZ=              0.2565

 Summary of Natural Population Analysis:

                                       Natural Population
                Natural  -----------------------------------------------
    Atom  No    Charge         Core      Valence    Rydberg      Total
 -----------------------------------------------------------------------
      C    1   -0.17286      0.99964     2.16506    0.00816     3.17286
      N    2   -0.10435      0.99968     2.59222    0.01245     3.60435
      C    3   -0.04623      0.99950     2.03613    0.01061     3.04623
      C    4    0.10891      0.99935     1.87945    0.01230     2.89109
      C    5   -0.03643      0.99959     2.02243    0.01441     3.03643
      N    6   -0.15376      0.99974     2.64259    0.01143     3.65376
      O    7   -0.28190      0.99985     3.27290    0.00915     4.28190
      C    8   -0.00185      0.99956     1.98932    0.01297     3.00185
      C    9   -0.21859      0.99956     2.20695    0.01208     3.21859
      C   10   -0.09621      0.99950     2.08145    0.01526     3.09621
      C   11   -0.13352      0.99944     2.12152    0.01256     3.13352
      C   12   -0.12905      0.99953     2.11798    0.01154     3.12905
      C   13   -0.19210      0.99954     2.18028    0.01227     3.19210
      S   14    0.21474      4.99938     2.76632    0.01955     7.78526
      H   15    0.09953      0.00000     0.39887    0.00160     0.40047
      H   16    0.10542      0.00000     0.39305    0.00153     0.39458
      H   17    0.10066      0.00000     0.39806    0.00128     0.39934
      H   18    0.11548      0.00000     0.38215    0.00237     0.38452
      H   19    0.09789      0.00000     0.40122    0.00089     0.40211
      H   20    0.08661      0.00000     0.41143    0.00196     0.41339
      H   21    0.09008      0.00000     0.40808    0.00184     0.40992
      H   22    0.11375      0.00000     0.38331    0.00294     0.38625
      H   23    0.10583      0.00000     0.39298    0.00120     0.39417
      H   24    0.11000      0.00000     0.38767    0.00232     0.39000
      H   25    0.10854      0.00000     0.38968    0.00178     0.39146
      H   26    0.10943      0.00000     0.38954    0.00103     0.39057
 =======================================================================
   * Total *   -0.00000     17.99386    36.81066    0.19547    55.00000

 Normal termination of Gaussian 16 at Thu Dec 10 10:48:51 2020.
