 Gaussian 16, Revision A.03,

 -----------------------------------------------------------
 # opt freq B3LYP/6-31G(d) empiricaldispersion=gd3bj scf=xqc
 -----------------------------------------------------------

 ------------------------------
 CID_150694328_JID_298_neutraal
 ------------------------------
 Symbolic Z-matrix:
 Charge =  0 Multiplicity = 1

 SCF Done:  E(RB3LYP) =  -510.582925952     A.U. after   15 cycles
 SCF Done:  E(RB3LYP) =  -510.585799381     A.U. after   15 cycles
 SCF Done:  E(RB3LYP) =  -510.587389496     A.U. after   14 cycles
 SCF Done:  E(RB3LYP) =  -510.587776725     A.U. after   14 cycles
 SCF Done:  E(RB3LYP) =  -510.588114619     A.U. after   13 cycles
 SCF Done:  E(RB3LYP) =  -510.587715589     A.U. after   13 cycles
 SCF Done:  E(RB3LYP) =  -510.588276131     A.U. after   13 cycles
 SCF Done:  E(RB3LYP) =  -510.588308617     A.U. after   12 cycles
 SCF Done:  E(RB3LYP) =  -510.588317773     A.U. after   10 cycles
 SCF Done:  E(RB3LYP) =  -510.588318665     A.U. after    9 cycles
 SCF Done:  E(RB3LYP) =  -510.588318910     A.U. after    8 cycles
 Optimization completed.
    -- Stationary point found.
 Normal termination of Gaussian 16 at Tue Dec  8 10:21:58 2020.

 --------------------------------------------------------------------
 #N Geom=AllCheck Guess=TCheck SCRF=Check GenChk RB3LYP/6-31G(d) Freq
 --------------------------------------------------------------------

 Structure from the checkpoint file:  "JID_298.chk"
 ------------------------------
 CID_150694328_JID_298_neutraal
 ------------------------------
 Charge =  0 Multiplicity = 1

 SCF Done:  E(RB3LYP) =  -510.588318910     A.U. after    1 cycles

  Exact polarizability: 100.543  -9.205  68.977  -5.891   3.332  60.265
 Approx polarizability: 156.014 -34.566 110.558 -23.415  13.448  95.629

                      1                      2                      3
                      A                      A                      A
 Frequencies --     38.6993                65.5996                85.3939
 Red. masses --      4.7219                 4.8105                 5.0335
 Frc consts  --      0.0042                 0.0122                 0.0216
 IR Inten    --      1.2530                 1.6520                 3.6334

                      4                      5                      6
                      A                      A                      A
 Frequencies --    128.5742               150.7586               170.3530
 Red. masses --      3.2519                 3.5219                 1.6917
 Frc consts  --      0.0317                 0.0472                 0.0289
 IR Inten    --      1.7063                 2.0674                 1.5532

                      7                      8                      9
                      A                      A                      A
 Frequencies --    215.5814               235.4205               271.9456
 Red. masses --      2.2313                 1.6486                 1.6802
 Frc consts  --      0.0611                 0.0538                 0.0732
 IR Inten    --      1.7190                 1.9358                 4.0457

                     10                     11                     12
                      A                      A                      A
 Frequencies --    331.6893               398.4211               414.5779
 Red. masses --      6.5439                 2.3753                 3.5749
 Frc consts  --      0.4242                 0.2222                 0.3620
 IR Inten    --      9.0447                 4.0124                 9.8678

                     13                     14                     15
                      A                      A                      A
 Frequencies --    521.3681               531.6580               573.0661
 Red. masses --      5.2920                 4.9072                11.7712
 Frc consts  --      0.8475                 0.8172                 2.2776
 IR Inten    --      5.9883                12.3776                22.7682

                     16                     17                     18
                      A                      A                      A
 Frequencies --    604.3175               703.1626               787.7590
 Red. masses --      3.5260                 5.1244                 2.8690
 Frc consts  --      0.7587                 1.4928                 1.0490
 IR Inten    --     10.2189                 6.9409                 3.5886

                     19                     20                     21
                      A                      A                      A
 Frequencies --    887.8863               947.5245               991.3773
 Red. masses --      3.4119                 2.6094                 2.8348
 Frc consts  --      1.5847                 1.3803                 1.6415
 IR Inten    --      6.8059                13.0348                19.4185

                     22                     23                     24
                      A                      A                      A
 Frequencies --   1027.5988              1097.8832              1108.3665
 Red. masses --      2.3225                 2.1377                 2.3487
 Frc consts  --      1.4449                 1.5181                 1.7000
 IR Inten    --     14.2713                73.4941                 4.5172

                     25                     26                     27
                      A                      A                      A
 Frequencies --   1146.3861              1179.6706              1194.4005
 Red. masses --      2.5666                 2.4126                 1.3342
 Frc consts  --      1.9874                 1.9781                 1.1214
 IR Inten    --     61.4888                33.6516                 0.1896

                     28                     29                     30
                      A                      A                      A
 Frequencies --   1231.7325              1307.8912              1317.5835
 Red. masses --      1.8323                 1.2923                 2.4767
 Frc consts  --      1.6379                 1.3024                 2.5333
 IR Inten    --     58.1803                 5.1512                94.2192

                     31                     32                     33
                      A                      A                      A
 Frequencies --   1339.7951              1378.3871              1389.2613
 Red. masses --      1.8767                 1.2895                 1.5681
 Frc consts  --      1.9848                 1.4434                 1.7832
 IR Inten    --     22.8116                26.0947                24.1480

                     34                     35                     36
                      A                      A                      A
 Frequencies --   1427.4164              1483.6827              1508.2602
 Red. masses --      1.2188                 1.0731                 1.1343
 Frc consts  --      1.4631                 1.3918                 1.5203
 IR Inten    --     12.6111                 7.0092                 3.5466

                     37                     38                     39
                      A                      A                      A
 Frequencies --   1518.6771              1525.4905              1529.5849
 Red. masses --      1.0524                 1.0547                 1.0421
 Frc consts  --      1.4301                 1.4461                 1.4365
 IR Inten    --      5.5624                 2.9343                 7.1263

                     40                     41                     42
                      A                      A                      A
 Frequencies --   1536.6790              1824.7033              2265.1627
 Red. masses --      1.0613                12.0550                13.8712
 Frc consts  --      1.4766                23.6484                41.9336
 IR Inten    --      4.3175                82.4161               465.1226

                     43                     44                     45
                      A                      A                      A
 Frequencies --   3006.1616              3032.9482              3058.9886
 Red. masses --      1.0376                 1.0595                 1.1040
 Frc consts  --      5.5245                 5.7421                 6.0868
 IR Inten    --     41.1614                24.1609                60.4277

                     46                     47                     48
                      A                      A                      A
 Frequencies --   3062.7043              3086.3568              3126.1122
 Red. masses --      1.0354                 1.1033                 1.0890
 Frc consts  --      5.7222                 6.1919                 6.2701
 IR Inten    --      9.1929                13.8637                 3.6961

                     49                     50                     51
                      A                      A                      A
 Frequencies --   3143.1687              3151.8134              3153.0099
 Red. masses --      1.0972                 1.1037                 1.0984
 Frc consts  --      6.3864                 6.4600                 6.4334
 IR Inten    --     22.2795                11.8244                21.7855

 - Thermochemistry -
 -------------------
 Temperature   298.150 Kelvin.  Pressure   1.00000 Atm.
 Atom     1 has atomic number  6 and mass  12.00000

 Molecular mass:   143.06948 amu.
 Principal axes and moments of inertia in atomic units:
                           1         2         3
     Eigenvalues --   664.365782323.479542503.70611
           X            0.99972   0.01224  -0.02042
           Y           -0.01347   0.99802  -0.06140
           Z            0.01963   0.06166   0.99790
 This molecule is an asymmetric top.
 Rotational symmetry number  1.
 Warning -- assumption of classical behavior for rotation
           may cause significant error
 Rotational temperatures (Kelvin)      0.13037     0.03728     0.03459
 Rotational constants (GHZ):           2.71649     0.77674     0.72083
 Zero-point vibrational energy     396053.7 (Joules/Mol)
                                   94.65911 (Kcal/Mol)
 Warning -- explicit consideration of  16 degrees of freedom as
           vibrations may cause significant error
 Vibrational temperatures:     55.68    94.38   122.86   184.99   216.91
          (Kelvin)            245.10   310.17   338.72   391.27   477.23
                              573.24   596.49   750.13   764.94   824.51
                              869.48  1011.69  1133.41  1277.47  1363.28
                             1426.37  1478.49  1579.61  1594.69  1649.39
                             1697.28  1718.48  1772.19  1881.76  1895.71
                             1927.67  1983.19  1998.84  2053.73  2134.69
                             2170.05  2185.04  2194.84  2200.73  2210.94
                             2625.34  3259.06  4325.20  4363.74  4401.20
                             4406.55  4440.58  4497.78  4522.32  4534.76
                             4536.48

 Zero-point correction=                           0.150849 (Hartree/Particle)
 Thermal correction to Energy=                    0.161839
 Thermal correction to Enthalpy=                  0.162783
 Thermal correction to Gibbs Free Energy=         0.113326
 Sum of electronic and zero-point Energies=           -510.437470
 Sum of electronic and thermal Energies=              -510.426480
 Sum of electronic and thermal Enthalpies=            -510.425536
 Sum of electronic and thermal Free Energies=         -510.474993

                     E (Thermal)             CV                S
                      KCal/Mol        Cal/Mol-Kelvin    Cal/Mol-Kelvin
 Total                  101.555             37.706            104.091
 Electronic               0.000              0.000              0.000
 Translational            0.889              2.981             40.786
 Rotational               0.889              2.981             29.737
 Vibrational             99.778             31.745             33.568
 Vibration     1          0.594              1.981              5.325
 Vibration     2          0.597              1.971              4.281
 Vibration     3          0.601              1.959              3.763
 Vibration     4          0.611              1.925              2.967
 Vibration     5          0.618              1.902              2.663
 Vibration     6          0.625              1.879              2.432
 Vibration     7          0.645              1.817              1.996
 Vibration     8          0.655              1.787              1.837
 Vibration     9          0.675              1.725              1.584
 Vibration    10          0.714              1.612              1.252
 Vibration    11          0.765              1.474              0.968
 Vibration    12          0.778              1.439              0.911
 Vibration    13          0.876              1.203              0.607
 Vibration    14          0.887              1.180              0.584
 Vibration    15          0.929              1.090              0.498
 Vibration    16          0.963              1.023              0.442

 Optimization completed.
    -- Stationary point found.
 Normal termination of Gaussian 16 at Tue Dec  8 10:25:10 2020.

 ----------------------------------------------------------------------
 # B3LYP/6-311++G(d,p) empiricaldispersion=gd3bj scf=xqc pop=npa geom=c
 heck
 ----------------------------------------------------------------------

 --------------------------------------
 CID_150694328_JID_298_Energie_neutraal
 --------------------------------------
 Structure from the checkpoint file:  "JID_298.chk"
 Charge =  0 Multiplicity = 1

 SCF Done:  E(RB3LYP) =  -510.739000494     A.U. after   15 cycles
 Normal termination of Gaussian 16 at Tue Dec  8 10:26:18 2020.

 ----------------------------------------------------------------------
 # B3LYP/6-311++G(d,p) empiricaldispersion=gd3bj scf=xqc pop=npa geom=c
 heck
 ----------------------------------------------------------------------

 ------------------------------------
 CID_150694328_JID_298_Energie_kation
 ------------------------------------
 Structure from the checkpoint file:  "JID_298.chk"
 Charge =  1 Multiplicity = 2

 SCF Done:  E(UB3LYP) =  -510.410750008     A.U. after   23 cycles
 Normal termination of Gaussian 16 at Tue Dec  8 10:29:18 2020.
 Gaussian 16:  ES64L-G16RevA.03 25-Dec-2016

 ----------------------------------------------------------------------
 # B3LYP/6-311++G(d,p) empiricaldispersion=gd3bj scf=xqc pop=npa geom=c
 heck
 ----------------------------------------------------------------------

 -----------------------------------
 CID_150694328_JID_298_Energie_anion
 -----------------------------------
 Structure from the checkpoint file:  "JID_298.chk"
 Charge = -1 Multiplicity = 2

                         Standard orientation:
 ---------------------------------------------------------------------
 Center     Atomic      Atomic             Coordinates (Angstroms)
 Number     Number       Type             X           Y           Z
 ---------------------------------------------------------------------
      1          6           0        0.501293    1.617593   -0.962775
      2          6           0        0.325237    0.664933    0.234110
      3          6           0       -0.241302   -0.674769   -0.254469
      4          8           0        0.437269   -1.677759   -0.315888
      5          6           0       -1.681463   -0.672642   -0.777649
      6          8           0       -2.488161    0.362825   -0.261260
      7          6           0       -3.002843    0.067466    1.027891
      8          7           0        1.554722    0.485665    1.014711
      9          7           0        2.514947   -0.029080    0.422627
     10          7           0        3.492698   -0.455724    0.019750
     11          1           0        1.173538    1.183200   -1.710878
     12          1           0        0.929882    2.561875   -0.616240
     13          1           0       -0.466170    1.823542   -1.429241
     14          1           0       -0.384912    1.116080    0.929408
     15          1           0       -1.631967   -0.522974   -1.863696
     16          1           0       -2.110917   -1.668848   -0.599250
     17          1           0       -3.633206   -0.833239    1.005328
     18          1           0       -2.203114   -0.085983    1.768393
     19          1           0       -3.608096    0.924307    1.331088
 ---------------------------------------------------------------------

 SCF Done:  E(UB3LYP) =  -510.733449307     A.U. after   30 cycles

 The electronic state is 2-A.
 Alpha  occ. eigenvalues --  -19.02240 -18.97220 -14.33788 -14.23699 -14.22188
 Alpha  occ. eigenvalues --  -10.10820 -10.10761 -10.10449 -10.09632 -10.05478
 Alpha  occ. eigenvalues --   -1.00049  -0.93645  -0.91019  -0.84175  -0.67204
 Alpha  occ. eigenvalues --   -0.62582  -0.55581  -0.54348  -0.46073  -0.39699
 Alpha  occ. eigenvalues --   -0.39105  -0.37763  -0.37212  -0.35720  -0.35205
 Alpha  occ. eigenvalues --   -0.32106  -0.31072  -0.30068  -0.29674  -0.29009
 Alpha  occ. eigenvalues --   -0.27168  -0.25594  -0.23452  -0.21716  -0.17655
 Alpha  occ. eigenvalues --   -0.17482  -0.13181  -0.10751   0.05062
 Alpha virt. eigenvalues --    0.07388   0.08625   0.09149   0.09406   0.11052
 Alpha virt. eigenvalues --    0.11755   0.12039   0.13238   0.13667   0.14252
 Alpha virt. eigenvalues --    0.14506   0.16105   0.16527   0.17615   0.18630

  Beta  occ. eigenvalues --  -19.02220 -18.96924 -14.33644 -14.23511 -14.22223
  Beta  occ. eigenvalues --  -10.10839 -10.10442 -10.10410 -10.09626 -10.05428
  Beta  occ. eigenvalues --   -0.99768  -0.93569  -0.90477  -0.84033  -0.66971
  Beta  occ. eigenvalues --   -0.62483  -0.55355  -0.54228  -0.45673  -0.39303
  Beta  occ. eigenvalues --   -0.38935  -0.37567  -0.37104  -0.35608  -0.34759
  Beta  occ. eigenvalues --   -0.31703  -0.30741  -0.29801  -0.29479  -0.28693
  Beta  occ. eigenvalues --   -0.27038  -0.25407  -0.22718  -0.21035  -0.17538
  Beta  occ. eigenvalues --   -0.17167  -0.13080  -0.10540
  Beta virt. eigenvalues --    0.07974   0.08965   0.09428   0.10200   0.10632
  Beta virt. eigenvalues --    0.11791   0.12425   0.12681   0.13363   0.13857
  Beta virt. eigenvalues --    0.14384   0.14832   0.16260   0.16653   0.17591

 Mulliken charges and spin densities:
               1          2
     1  C    0.327396  -0.881253
     2  C   -0.392029   0.283176
     3  C    0.161050   0.078427
     4  O   -0.321840   0.103118
     5  C   -0.395905  -0.112181
     6  O   -0.172561   0.053481
     7  C    0.805761  -1.103730
     8  N   -0.735297   0.394130
     9  N    0.714915  -0.158309
    10  N   -0.039425  -0.083462
    11  H    0.124378   0.022380
    12  H   -0.277231   0.434062
    13  H    0.147049   0.006580
    14  H   -0.309251   0.563239
    15  H    0.196848  -0.025482
    16  H    0.034874   0.127850
    17  H   -0.347416   0.473278
    18  H   -0.084891   0.229609
    19  H   -0.436425   0.595087
 Sum of Mulliken charges =  -1.00000   1.00000

 Dipole moment (field-independent basis, Debye):
    X=              0.1735    Y=             -0.1727    Z=             -3.4481  Tot=              3.4568
 Quadrupole moment (field-independent basis, Debye-Ang):
   XX=           -112.0351   YY=            -90.9744   ZZ=            -77.3266
   XY=              4.2708   XZ=              7.5209   YZ=             -3.9607

 Summary of Natural Population Analysis:

                                       Natural Population
                Natural  -----------------------------------------------
    Atom  No    Charge         Core      Valence    Rydberg      Total
 -----------------------------------------------------------------------
      C    1   -0.28839      0.99964     2.28241    0.00634     3.28839
      C    2   -0.06180      0.99953     2.04760    0.01467     3.06180
      C    3    0.30823      0.99965     1.66957    0.02255     2.69177
      O    4   -0.26288      0.99987     3.25658    0.00643     4.26288
      C    5   -0.05565      0.99954     2.04235    0.01376     3.05565
      O    6   -0.29939      0.99989     3.28979    0.00971     4.29939
      C    7   -0.09944      0.99961     2.09009    0.00973     3.09944
      N    8   -0.19153      0.99970     2.67756    0.01427     3.69153
      N    9    0.13128      0.99970     2.35242    0.01661     3.36872
      N   10   -0.03995      0.99982     2.52645    0.01368     3.53995
      H   11    0.09673      0.00000     0.40239    0.00088     0.40327
      H   12    0.10518      0.00000     0.39282    0.00200     0.39482
      H   13    0.10445      0.00000     0.39446    0.00108     0.39555
      H   14    0.11227      0.00000     0.38453    0.00320     0.38773
      H   15    0.09718      0.00000     0.40177    0.00105     0.40282
      H   16    0.09124      0.00000     0.40701    0.00176     0.40876
      H   17    0.07942      0.00000     0.41872    0.00185     0.42058
      H   18    0.08092      0.00000     0.41721    0.00187     0.41908
      H   19    0.09214      0.00000     0.40632    0.00155     0.40786
 =======================================================================
   * Total *    0.00000      9.99696    27.86006    0.14298    38.00000

 Normal termination of Gaussian 16 at Tue Dec  8 10:35:37 2020.
