 Gaussian 16, Revision A.03,

 -----------------------------------------------------------
 # opt freq B3LYP/6-31G(d) empiricaldispersion=gd3bj scf=xqc
 -----------------------------------------------------------

 -------------------------------
 CID_106033774_JID_4958_neutraal
 -------------------------------
 Symbolic Z-matrix:
 Charge =  0 Multiplicity = 1

 SCF Done:  E(RB3LYP) =  -954.995041324     A.U. after   14 cycles
 SCF Done:  E(RB3LYP) =  -955.002298657     A.U. after   12 cycles
 SCF Done:  E(RB3LYP) =  -955.002923655     A.U. after   12 cycles
 SCF Done:  E(RB3LYP) =  -955.003086331     A.U. after   12 cycles
 SCF Done:  E(RB3LYP) =  -955.003398071     A.U. after   11 cycles
 SCF Done:  E(RB3LYP) =  -955.003483474     A.U. after   10 cycles
 SCF Done:  E(RB3LYP) =  -955.003500027     A.U. after   10 cycles
 SCF Done:  E(RB3LYP) =  -955.003507999     A.U. after    9 cycles
 SCF Done:  E(RB3LYP) =  -955.003510881     A.U. after    9 cycles
 SCF Done:  E(RB3LYP) =  -955.003511495     A.U. after    8 cycles
 SCF Done:  E(RB3LYP) =  -955.003511705     A.U. after    7 cycles
 SCF Done:  E(RB3LYP) =  -955.003511745     A.U. after    7 cycles
 Optimization completed.
    -- Stationary point found.
 Normal termination of Gaussian 16 at Thu Dec 10 11:00:46 2020.

 --------------------------------------------------------------------
 #N Geom=AllCheck Guess=TCheck SCRF=Check GenChk RB3LYP/6-31G(d) Freq
 --------------------------------------------------------------------

 Structure from the checkpoint file:  "JID_4958.chk"
 -------------------------------
 CID_106033774_JID_4958_neutraal
 -------------------------------
 Charge =  0 Multiplicity = 1

 SCF Done:  E(RB3LYP) =  -955.003511745     A.U. after    1 cycles

  Exact polarizability: 162.048   9.688 153.767  10.530  -6.562 103.793
 Approx polarizability: 212.222  20.998 245.613  19.280 -15.516 157.389

                      1                      2                      3
                      A                      A                      A
 Frequencies --     30.6796                42.8452                60.0268
 Red. masses --      4.8100                 3.4342                 3.7538
 Frc consts  --      0.0027                 0.0037                 0.0080
 IR Inten    --      2.3366                 0.6916                 1.5332

                      4                      5                      6
                      A                      A                      A
 Frequencies --     79.1129               106.5928               141.4867
 Red. masses --      4.2102                 3.2908                 2.7598
 Frc consts  --      0.0155                 0.0220                 0.0326
 IR Inten    --      3.2562                 0.5400                 0.5370

                      7                      8                      9
                      A                      A                      A
 Frequencies --    188.1194               218.8379               224.6874
 Red. masses --      4.0299                 2.7273                 4.4131
 Frc consts  --      0.0840                 0.0770                 0.1313
 IR Inten    --      0.8211                 3.9383                 2.1714

                     10                     11                     12
                      A                      A                      A
 Frequencies --    235.1615               248.3825               263.1531
 Red. masses --      1.1889                 1.1067                 1.2327
 Frc consts  --      0.0387                 0.0402                 0.0503
 IR Inten    --      0.3238                 0.3569                 0.9629

                     13                     14                     15
                      A                      A                      A
 Frequencies --    283.2271               288.7403               355.2494
 Red. masses --      2.7257                 1.9722                 2.2362
 Frc consts  --      0.1288                 0.0969                 0.1663
 IR Inten    --      3.1936                 0.2367                 0.2503

                     16                     17                     18
                      A                      A                      A
 Frequencies --    388.5777               408.6810               437.7145
 Red. masses --      2.3583                 3.1966                 2.4940
 Frc consts  --      0.2098                 0.3146                 0.2815
 IR Inten    --      0.2505                 4.1490                 4.8033

                     19                     20                     21
                      A                      A                      A
 Frequencies --    454.2956               490.5567               524.0402
 Red. masses --      1.6898                 2.8782                 1.4517
 Frc consts  --      0.2055                 0.4081                 0.2349
 IR Inten    --      1.9187                 8.5850                49.1542

                     22                     23                     24
                      A                      A                      A
 Frequencies --    549.5378               551.7801               617.7224
 Red. masses --      6.6783                 2.6308                 2.6465
 Frc consts  --      1.1883                 0.4719                 0.5950
 IR Inten    --      9.3258                 8.2879                 5.5137

                     25                     26                     27
                      A                      A                      A
 Frequencies --    665.1268               674.8817               700.6229
 Red. masses --      2.1830                 2.8636                 2.1724
 Frc consts  --      0.5690                 0.7684                 0.6283
 IR Inten    --     54.1328                 4.0743                33.3527

                     28                     29                     30
                      A                      A                      A
 Frequencies --    727.1541               791.4938               828.8162
 Red. masses --      3.0049                 1.2043                 2.4077
 Frc consts  --      0.9361                 0.4445                 0.9745
 IR Inten    --      1.0961                 2.7608                 4.5751

                     31                     32                     33
                      A                      A                      A
 Frequencies --    890.3260               893.8059               932.6378
 Red. masses --      2.5336                 1.8043                 1.4301
 Frc consts  --      1.1833                 0.8493                 0.7329
 IR Inten    --      7.6491                 9.1354                 2.3159

                     34                     35                     36
                      A                      A                      A
 Frequencies --    936.4003               956.7862               962.0495
 Red. masses --      3.1951                 1.4227                 1.9790
 Frc consts  --      1.6507                 0.7673                 1.0792
 IR Inten    --      2.2324                 0.2869                 5.9280

                     37                     38                     39
                      A                      A                      A
 Frequencies --   1027.0151              1045.7344              1068.0793
 Red. masses --      2.1433                 1.9953                 2.4686
 Frc consts  --      1.3319                 1.2856                 1.6592
 IR Inten    --     25.1155                36.1340                 6.6230

                     40                     41                     42
                      A                      A                      A
 Frequencies --   1101.4527              1120.3436              1126.9934
 Red. masses --      1.7358                 1.6835                 2.1041
 Frc consts  --      1.2407                 1.2450                 1.5745
 IR Inten    --      6.4942                27.3685                14.9079

                     43                     44                     45
                      A                      A                      A
 Frequencies --   1146.7747              1164.9036              1171.8159
 Red. masses --      1.7025                 1.6785                 1.6032
 Frc consts  --      1.3192                 1.3420                 1.2971
 IR Inten    --     18.3590                 5.4662                10.5174

                     46                     47                     48
                      A                      A                      A
 Frequencies --   1177.3217              1217.9827              1230.0824
 Red. masses --      2.0154                 1.8701                 1.6840
 Frc consts  --      1.6459                 1.6345                 1.5013
 IR Inten    --     18.9725                 9.7963                41.8624

                     49                     50                     51
                      A                      A                      A
 Frequencies --   1243.2106              1276.2902              1292.9812
 Red. masses --      2.4279                 1.7032                 2.3507
 Frc consts  --      2.2109                 1.6346                 2.3154
 IR Inten    --     23.4026                18.3197                51.1208

                     52                     53                     54
                      A                      A                      A
 Frequencies --   1314.2427              1370.5206              1375.5339
 Red. masses --      2.3698                 1.6009                 1.5460
 Frc consts  --      2.4117                 1.7717                 1.7234
 IR Inten    --     74.0230                 5.3643                 7.9536

                     55                     56                     57
                      A                      A                      A
 Frequencies --   1395.4855              1397.8506              1416.9838
 Red. masses --      1.3806                 1.3425                 1.3474
 Frc consts  --      1.5841                 1.5456                 1.5939
 IR Inten    --     29.9643                 8.2633                 6.3647

                     58                     59                     60
                      A                      A                      A
 Frequencies --   1419.9623              1428.1280              1430.7954
 Red. masses --      1.2708                 1.2959                 1.3202
 Frc consts  --      1.5097                 1.5573                 1.5923
 IR Inten    --      4.5035                12.3820                 4.1447

                     61                     62                     63
                      A                      A                      A
 Frequencies --   1443.6305              1453.6286              1485.0262
 Red. masses --      1.2777                 2.4851                 1.1403
 Frc consts  --      1.5689                 3.0938                 1.4816
 IR Inten    --     17.6412                32.0665                 3.0556

                     64                     65                     66
                      A                      A                      A
 Frequencies --   1499.2777              1509.3972              1511.8485
 Red. masses --      1.5541                 1.1257                 1.0753
 Frc consts  --      2.0583                 1.5111                 1.4481
 IR Inten    --    118.3957                44.7448                 0.2367

                     67                     68                     69
                      A                      A                      A
 Frequencies --   1512.8034              1518.9339              1524.2705
 Red. masses --      1.0785                 1.4624                 1.1324
 Frc consts  --      1.4542                 1.9879                 1.5501
 IR Inten    --     15.1023               110.4693                18.8459

                     70                     71                     72
                      A                      A                      A
 Frequencies --   1525.9141              1534.2817              1541.7478
 Red. masses --      1.0907                 1.0538                 1.0625
 Frc consts  --      1.4964                 1.4616                 1.4879
 IR Inten    --      1.2403                 3.1646                 3.5641

                     73                     74                     75
                      A                      A                      A
 Frequencies --   1552.8767              1628.4137              2957.2348
 Red. masses --      1.0541                 4.2038                 1.0603
 Frc consts  --      1.4976                 6.5679                 5.4634
 IR Inten    --      3.6411                20.2993                69.1717

                     76                     77                     78
                      A                      A                      A
 Frequencies --   3010.2749              3050.5947              3052.6964
 Red. masses --      1.0842                 1.0581                 1.0441
 Frc consts  --      5.7883                 5.8013                 5.7329
 IR Inten    --     30.2831                15.6165                43.3516

                     79                     80                     81
                      A                      A                      A
 Frequencies --   3057.4690              3061.1987              3075.3498
 Red. masses --      1.0395                 1.0706                 1.0620
 Frc consts  --      5.7254                 5.9108                 5.9180
 IR Inten    --     14.4549                55.4057                 7.8952

                     82                     83                     84
                      A                      A                      A
 Frequencies --   3082.9645              3100.7148              3107.1826
 Red. masses --      1.0603                 1.0954                 1.1033
 Frc consts  --      5.9376                 6.2049                 6.2760
 IR Inten    --     26.8516                27.2977                27.7899

                     85                     86                     87
                      A                      A                      A
 Frequencies --   3114.2331              3116.4695              3119.5893
 Red. masses --      1.1000                 1.1006                 1.0997
 Frc consts  --      6.2857                 6.2981                 6.3056
 IR Inten    --     13.3515                42.0714                66.9010

                     88                     89                     90
                      A                      A                      A
 Frequencies --   3132.2604              3133.7966              3138.3543
 Red. masses --      1.1039                 1.1034                 1.1033
 Frc consts  --      6.3809                 6.3847                 6.4023
 IR Inten    --     35.4731                25.1222                19.3394

                     91                     92                     93
                      A                      A                      A
 Frequencies --   3298.4288              3318.8438              3673.9728
 Red. masses --      1.0906                 1.1083                 1.0811
 Frc consts  --      6.9909                 7.1927                 8.5975
 IR Inten    --      2.2779                 0.0716                91.5721

 - Thermochemistry -
 -------------------
 Temperature   298.150 Kelvin.  Pressure   1.00000 Atm.
 Atom     1 has atomic number  6 and mass  12.00000

 Molecular mass:   213.12997 amu.
 Principal axes and moments of inertia in atomic units:
                           1         2         3
     Eigenvalues --  1703.264765606.031816405.20598
           X            0.99989  -0.01287   0.00774
           Y            0.01277   0.99984   0.01258
           Z           -0.00790  -0.01248   0.99989
 This molecule is an asymmetric top.
 Rotational symmetry number  1.
 Warning -- assumption of classical behavior for rotation
           may cause significant error
 Rotational temperatures (Kelvin)      0.05085     0.01545     0.01352
 Rotational constants (GHZ):           1.05958     0.32193     0.28176
 Zero-point vibrational energy     765331.7 (Joules/Mol)
                                  182.91867 (Kcal/Mol)
 Warning -- explicit consideration of  24 degrees of freedom as
           vibrations may cause significant error
 Vibrational temperatures:     44.14    61.64    86.37   113.83   153.36
          (Kelvin)            203.57   270.66   314.86   323.28   338.35
                              357.37   378.62   407.50   415.43   511.12
                              559.08   588.00   629.77   653.63   705.80
                              753.98   790.66   793.89   888.76   956.97
                              971.00  1008.04  1046.21  1138.78  1192.48
                             1280.98  1285.99  1341.86  1347.27  1376.60
                             1384.17  1477.65  1504.58  1536.73  1584.74
                             1611.92  1621.49  1649.95  1676.04  1685.98
                             1693.90  1752.41  1769.81  1788.70  1836.30
                             1860.31  1890.90  1971.87  1979.09  2007.79
                             2011.20  2038.72  2043.01  2054.76  2058.60
                             2077.06  2091.45  2136.62  2157.13  2171.69
                             2175.21  2176.59  2185.41  2193.09  2195.45
                             2207.49  2218.23  2234.24  2342.92  4254.80
                             4331.11  4389.13  4392.15  4399.02  4404.38
                             4424.74  4435.70  4461.24  4470.54  4480.69
                             4483.90  4488.39  4506.62  4508.83  4515.39
                             4745.70  4775.08  5286.03

 Zero-point correction=                           0.291499 (Hartree/Particle)
 Thermal correction to Energy=                    0.306833
 Thermal correction to Enthalpy=                  0.307777
 Thermal correction to Gibbs Free Energy=         0.248294
 Sum of electronic and zero-point Energies=           -954.712012
 Sum of electronic and thermal Energies=              -954.696679
 Sum of electronic and thermal Enthalpies=            -954.695735
 Sum of electronic and thermal Free Energies=         -954.755218

                     E (Thermal)             CV                S
                      KCal/Mol        Cal/Mol-Kelvin    Cal/Mol-Kelvin
 Total                  192.540             57.848            125.193
 Electronic               0.000              0.000              0.000
 Translational            0.889              2.981             41.974
 Rotational               0.889              2.981             32.481
 Vibrational            190.763             51.886             50.738
 Vibration     1          0.594              1.984              5.785
 Vibration     2          0.595              1.980              5.123
 Vibration     3          0.597              1.973              4.456
 Vibration     4          0.600              1.963              3.913
 Vibration     5          0.605              1.944              3.330
 Vibration     6          0.615              1.912              2.784
 Vibration     7          0.633              1.856              2.246
 Vibration     8          0.647              1.812              1.969
 Vibration     9          0.649              1.803              1.921
 Vibration    10          0.655              1.787              1.839
 Vibration    11          0.662              1.765              1.742
 Vibration    12          0.670              1.740              1.641
 Vibration    13          0.682              1.705              1.514
 Vibration    14          0.685              1.695              1.481
 Vibration    15          0.731              1.564              1.143
 Vibration    16          0.757              1.495              1.006
 Vibration    17          0.773              1.451              0.931
 Vibration    18          0.798              1.388              0.834
 Vibration    19          0.813              1.351              0.783
 Vibration    20          0.846              1.271              0.682
 Vibration    21          0.879              1.197              0.601
 Vibration    22          0.905              1.141              0.545
 Vibration    23          0.907              1.136              0.540
 Vibration    24          0.977              0.994              0.420

 Optimization completed.
    -- Stationary point found.
 Normal termination of Gaussian 16 at Thu Dec 10 11:11:58 2020.

 ----------------------------------------------------------------------
 # B3LYP/6-311++G(d,p) empiricaldispersion=gd3bj scf=xqc pop=npa geom=c
 heck
 ----------------------------------------------------------------------

 ---------------------------------------
 CID_106033774_JID_4958_Energie_neutraal
 ---------------------------------------
 Structure from the checkpoint file:  "JID_4958.chk"
 Charge =  0 Multiplicity = 1

 SCF Done:  E(RB3LYP) =  -955.184737518     A.U. after   15 cycles
 Normal termination of Gaussian 16 at Thu Dec 10 11:16:55 2020.

 ----------------------------------------------------------------------
 # B3LYP/6-311++G(d,p) empiricaldispersion=gd3bj scf=xqc pop=npa geom=c
 heck
 ----------------------------------------------------------------------

 -------------------------------------
 CID_106033774_JID_4958_Energie_kation
 -------------------------------------
 Structure from the checkpoint file:  "JID_4958.chk"
 Charge =  1 Multiplicity = 2

 SCF Done:  E(UB3LYP) =  -954.925857354     A.U. after   27 cycles
 Normal termination of Gaussian 16 at Thu Dec 10 11:29:39 2020.
 Gaussian 16:  ES64L-G16RevA.03 25-Dec-2016

 ----------------------------------------------------------------------
 # B3LYP/6-311++G(d,p) empiricaldispersion=gd3bj scf=xqc pop=npa geom=c
 heck
 ----------------------------------------------------------------------

 ------------------------------------
 CID_106033774_JID_4958_Energie_anion
 ------------------------------------
 Structure from the checkpoint file:  "JID_4958.chk"
 Charge = -1 Multiplicity = 2

                         Standard orientation:
 ---------------------------------------------------------------------
 Center     Atomic      Atomic             Coordinates (Angstroms)
 Number     Number       Type             X           Y           Z
 ---------------------------------------------------------------------
      1          6           0        2.721875    1.953198    0.093302
      2          6           0        3.258998    0.519502    0.111198
      3          6           0        3.260851   -0.044531    1.547443
      4          7           0        2.615453   -0.309089   -0.913862
      5          6           0        3.251689   -1.596696   -1.115074
      6          6           0        1.159648   -0.364638   -0.990680
      7          6           0        0.388724   -1.159238    0.101261
      8          6           0       -0.421695   -0.297409    1.074893
      9          7           0       -1.489784    0.446336    0.410913
     10          6           0       -1.446981    1.788339    0.042958
     11          6           0       -2.619055    2.083493   -0.569621
     12          7           0       -3.363610    0.913449   -0.571187
     13          6           0       -2.687665   -0.116110    0.033875
     14         16           0       -3.227712   -1.689472    0.263478
     15          1           0        1.719758    2.019770    0.532337
     16          1           0        2.677757    2.336560   -0.930911
     17          1           0        3.374837    2.604995    0.682916
     18          1           0        4.311731    0.572358   -0.203245
     19          1           0        2.261074   -0.035913    1.992630
     20          1           0        3.633334   -1.073573    1.574851
     21          1           0        3.912308    0.560748    2.188760
     22          1           0        3.079548   -2.336123   -0.311500
     23          1           0        2.885749   -2.038880   -2.049188
     24          1           0        4.335179   -1.457506   -1.207037
     25          1           0        0.779173    0.660392   -1.041091
     26          1           0        0.927239   -0.807232   -1.966613
     27          1           0       -0.313363   -1.859367   -0.362108
     28          1           0        1.085340   -1.767139    0.688559
     29          1           0       -0.897117   -0.930709    1.828766
     30          1           0        0.204766    0.439285    1.585543
     31          1           0       -0.591268    2.407242    0.259342
     32          1           0       -2.982658    3.004674   -0.995100
     33          1           0       -4.292739    0.781637   -0.940938
 ---------------------------------------------------------------------

 SCF Done:  E(UB3LYP) =  -955.176064551     A.U. after   29 cycles

 The electronic state is 2-A.
 Alpha  occ. eigenvalues --  -88.69227 -14.28767 -14.28107 -14.21284 -10.18381
 Alpha  occ. eigenvalues --  -10.12910 -10.12444 -10.12352 -10.11347 -10.10468
 Alpha  occ. eigenvalues --  -10.10172 -10.08081 -10.07097 -10.07037  -7.77974
 Alpha  occ. eigenvalues --   -5.74432  -5.73740  -5.73527  -0.95521  -0.83920
 Alpha  occ. eigenvalues --   -0.83342  -0.71060  -0.69583  -0.68354  -0.63065
 Alpha  occ. eigenvalues --   -0.60421  -0.59252  -0.57330  -0.55297  -0.53523
 Alpha  occ. eigenvalues --   -0.49626  -0.46255  -0.44721  -0.41010  -0.40235
 Alpha  occ. eigenvalues --   -0.38741  -0.37638  -0.37550  -0.36207  -0.35782
 Alpha  occ. eigenvalues --   -0.34928  -0.33988  -0.32735  -0.31227  -0.30314
 Alpha  occ. eigenvalues --   -0.29837  -0.28449  -0.28135  -0.27779  -0.27133
 Alpha  occ. eigenvalues --   -0.25708  -0.25083  -0.24224  -0.21709  -0.19556
 Alpha  occ. eigenvalues --   -0.12220  -0.11973  -0.10401   0.03778
 Alpha virt. eigenvalues --    0.05277   0.06567   0.07261   0.07726   0.08394
 Alpha virt. eigenvalues --    0.09105   0.09356   0.09684   0.09730   0.10399
 Alpha virt. eigenvalues --    0.10439   0.11244   0.12148   0.12428   0.12880

  Beta  occ. eigenvalues --  -88.69226 -14.28765 -14.28081 -14.21284 -10.18380
  Beta  occ. eigenvalues --  -10.12901 -10.12413 -10.12333 -10.11335 -10.10461
  Beta  occ. eigenvalues --  -10.10157 -10.08078 -10.07073 -10.07005  -7.77972
  Beta  occ. eigenvalues --   -5.74430  -5.73739  -5.73525  -0.95498  -0.83896
  Beta  occ. eigenvalues --   -0.83324  -0.71030  -0.69557  -0.68326  -0.63039
  Beta  occ. eigenvalues --   -0.60377  -0.59213  -0.57293  -0.55251  -0.53480
  Beta  occ. eigenvalues --   -0.49580  -0.46215  -0.44664  -0.40988  -0.40200
  Beta  occ. eigenvalues --   -0.38690  -0.37614  -0.37497  -0.36169  -0.35744
  Beta  occ. eigenvalues --   -0.34900  -0.33962  -0.32710  -0.31202  -0.30292
  Beta  occ. eigenvalues --   -0.29807  -0.28431  -0.28116  -0.27763  -0.27107
  Beta  occ. eigenvalues --   -0.25683  -0.25061  -0.24190  -0.21694  -0.19538
  Beta  occ. eigenvalues --   -0.12213  -0.11965  -0.10387
  Beta virt. eigenvalues --    0.05792   0.06926   0.07134   0.07499   0.08413
  Beta virt. eigenvalues --    0.08996   0.09148   0.09573   0.09890   0.10028
  Beta virt. eigenvalues --    0.10499   0.10907   0.11470   0.12277   0.12631

 Mulliken charges and spin densities:
               1          2
     1  C    0.535865  -1.083807
     2  C   -0.989549   1.049884
     3  C    0.540622  -1.156907
     4  N    0.164831   0.015311
     5  C    0.104098  -0.388884
     6  C   -0.426375  -0.339708
     7  C   -0.208051   0.342762
     8  C   -0.199936  -0.480763
     9  N    0.258725   0.037556
    10  C   -0.187802   0.176733
    11  C    1.372597  -1.531138
    12  N   -0.136470   0.081046
    13  C    0.425043  -0.407085
    14  S   -0.359305  -0.316257
    15  H   -0.217308   0.326867
    16  H   -0.074641   0.233952
    17  H   -0.302783   0.461459
    18  H   -0.129523   0.315424
    19  H    0.098918   0.027843
    20  H   -0.058064   0.196908
    21  H   -0.225822   0.367543
    22  H    0.019559   0.085830
    23  H    0.087105   0.042950
    24  H   -0.122031   0.261908
    25  H    0.368003  -0.190398
    26  H    0.104177   0.067261
    27  H    0.181655  -0.033871
    28  H    0.154686  -0.028199
    29  H    0.090387   0.070184
    30  H    0.103730   0.126026
    31  H   -0.260281   0.397840
    32  H   -1.606109   1.817326
    33  H   -0.105949   0.454405
 Sum of Mulliken charges =  -1.00000   1.00000

 Dipole moment (field-independent basis, Debye):
    X=              3.3283    Y=             -5.0960    Z=              1.0034  Tot=              6.1687
 Quadrupole moment (field-independent basis, Debye-Ang):
   XX=           -190.7232   YY=           -156.1087   ZZ=           -128.0839
   XY=              2.3428   XZ=            -10.2703   YZ=              6.8901

 Summary of Natural Population Analysis:

                                       Natural Population
                Natural  -----------------------------------------------
    Atom  No    Charge         Core      Valence    Rydberg      Total
 -----------------------------------------------------------------------
      C    1   -0.28829      0.99964     2.28240    0.00625     3.28829
      C    2   -0.00498      0.99960     1.99118    0.01420     3.00498
      C    3   -0.29676      0.99964     2.29086    0.00625     3.29676
      N    4   -0.28017      0.99972     2.76796    0.01250     3.78017
      C    5   -0.17524      0.99964     2.16878    0.00682     3.17524
      C    6   -0.08820      0.99960     2.07683    0.01177     3.08820
      C    7   -0.21407      0.99961     2.20784    0.00661     3.21407
      C    8   -0.08263      0.99961     2.07238    0.01064     3.08263
      N    9   -0.22338      0.99960     2.71116    0.01262     3.72338
      C   10   -0.02508      0.99953     2.01322    0.01233     3.02508
      C   11   -0.01786      0.99955     2.00543    0.01288     3.01786
      N   12   -0.27862      0.99965     2.76653    0.01244     3.77862
      C   13    0.12663      0.99962     1.85212    0.02164     2.87337
      S   14   -0.16419      4.99961     3.15098    0.01360     8.16419
      H   15    0.09129      0.00000     0.40699    0.00172     0.40871
      H   16    0.10489      0.00000     0.39366    0.00145     0.39511
      H   17    0.10429      0.00000     0.39467    0.00105     0.39571
      H   18    0.09203      0.00000     0.40651    0.00147     0.40797
      H   19    0.09292      0.00000     0.40584    0.00124     0.40708
      H   20    0.09944      0.00000     0.39964    0.00092     0.40056
      H   21    0.10228      0.00000     0.39656    0.00116     0.39772
      H   22    0.07814      0.00000     0.42005    0.00180     0.42186
      H   23    0.09341      0.00000     0.40564    0.00094     0.40659
      H   24    0.09513      0.00000     0.40372    0.00115     0.40487
      H   25    0.09881      0.00000     0.39947    0.00171     0.40119
      H   26    0.09550      0.00000     0.40352    0.00099     0.40450
      H   27    0.11172      0.00000     0.38708    0.00120     0.38828
      H   28    0.10277      0.00000     0.39631    0.00092     0.39723
      H   29    0.11197      0.00000     0.38694    0.00109     0.38803
      H   30    0.09763      0.00000     0.40089    0.00148     0.40237
      H   31    0.11149      0.00000     0.38680    0.00170     0.38851
      H   32    0.11637      0.00000     0.37288    0.01076     0.38363
      H   33    0.21274      0.00000     0.28375    0.00351     0.28726
 =======================================================================
   * Total *   -0.00000     17.99461    39.80858    0.19682    58.00000

 Normal termination of Gaussian 16 at Thu Dec 10 11:43:31 2020.
