 Gaussian 16, Revision A.03,

 -----------------------------------------------------------
 # opt freq B3LYP/6-31G(d) empiricaldispersion=gd3bj scf=xqc
 -----------------------------------------------------------

 -------------------------------
 CID_102951760_JID_6273_neutraal
 -------------------------------
 Symbolic Z-matrix:
 Charge =  0 Multiplicity = 1

 SCF Done:  E(RB3LYP) =  -694.615169951     A.U. after   14 cycles
 SCF Done:  E(RB3LYP) =  -694.622754207     A.U. after   12 cycles
 SCF Done:  E(RB3LYP) =  -694.623968299     A.U. after   12 cycles
 SCF Done:  E(RB3LYP) =  -694.624011109     A.U. after   12 cycles
 SCF Done:  E(RB3LYP) =  -694.624331015     A.U. after   12 cycles
 SCF Done:  E(RB3LYP) =  -694.624405165     A.U. after    9 cycles
 SCF Done:  E(RB3LYP) =  -694.624495414     A.U. after   10 cycles
 SCF Done:  E(RB3LYP) =  -694.624755063     A.U. after   12 cycles
 SCF Done:  E(RB3LYP) =  -694.624886147     A.U. after   11 cycles
 SCF Done:  E(RB3LYP) =  -694.625056315     A.U. after   11 cycles
 SCF Done:  E(RB3LYP) =  -694.626391331     A.U. after    9 cycles
 SCF Done:  E(RB3LYP) =  -694.626392833     A.U. after    8 cycles
 SCF Done:  E(RB3LYP) =  -694.626390030     A.U. after    9 cycles
 SCF Done:  E(RB3LYP) =  -694.626392874     A.U. after    9 cycles
 SCF Done:  E(RB3LYP) =  -694.626392925     A.U. after    6 cycles
 Optimization completed.
    -- Stationary point found.
 Normal termination of Gaussian 16 at Thu Dec 10 22:25:27 2020.

 --------------------------------------------------------------------
 #N Geom=AllCheck Guess=TCheck SCRF=Check GenChk RB3LYP/6-31G(d) Freq
 --------------------------------------------------------------------

 Structure from the checkpoint file:  "JID_6273.chk"
 -------------------------------
 CID_102951760_JID_6273_neutraal
 -------------------------------
 Charge =  0 Multiplicity = 1

 SCF Done:  E(RB3LYP) =  -694.626392925     A.U. after    1 cycles

  Exact polarizability: 167.388  -5.011 133.588   1.183   2.025 139.923
 Approx polarizability: 203.793  -5.618 192.241   7.602   5.156 218.520

                      1                      2                      3
                      A                      A                      A
 Frequencies --     25.3350                40.5099                46.3108
 Red. masses --      3.9997                 4.3627                 3.6693
 Frc consts  --      0.0015                 0.0042                 0.0046
 IR Inten    --      1.2327                 3.2339                 0.4191

                      4                      5                      6
                      A                      A                      A
 Frequencies --     71.0508                98.1217               135.0799
 Red. masses --      3.7455                 4.6566                 2.8798
 Frc consts  --      0.0111                 0.0264                 0.0310
 IR Inten    --      1.2198                 0.1288                 3.5139

                      7                      8                      9
                      A                      A                      A
 Frequencies --    139.8478               170.4113               180.9815
 Red. masses --      3.1447                 1.8045                 1.3706
 Frc consts  --      0.0362                 0.0309                 0.0265
 IR Inten    --      5.4213                 0.7724                 0.3082

                     10                     11                     12
                      A                      A                      A
 Frequencies --    191.4186               218.0263               247.7252
 Red. masses --      3.2573                 2.1351                 2.1035
 Frc consts  --      0.0703                 0.0598                 0.0761
 IR Inten    --      0.8269                 0.4012                 5.4875

                     13                     14                     15
                      A                      A                      A
 Frequencies --    294.2346               298.3524               340.0891
 Red. masses --      3.0981                 2.2046                 2.8055
 Frc consts  --      0.1580                 0.1156                 0.1912
 IR Inten    --      0.5049                 0.1420                 3.4196

                     16                     17                     18
                      A                      A                      A
 Frequencies --    346.1850               377.8829               417.8217
 Red. masses --      2.4131                 2.2916                 2.0346
 Frc consts  --      0.1704                 0.1928                 0.2093
 IR Inten    --      0.4885                 0.1421                 0.7550

                     19                     20                     21
                      A                      A                      A
 Frequencies --    454.2166               466.0552               484.2812
 Red. masses --      2.5693                 2.6069                 2.2366
 Frc consts  --      0.3123                 0.3336                 0.3090
 IR Inten    --      2.2866                 3.1389                 4.3879

                     22                     23                     24
                      A                      A                      A
 Frequencies --    516.3974               556.2348               561.8523
 Red. masses --      2.0599                 2.4231                 3.2292
 Frc consts  --      0.3236                 0.4417                 0.6006
 IR Inten    --      6.1056                 5.3038                27.7647

                     25                     26                     27
                      A                      A                      A
 Frequencies --    597.6468               656.7411               723.9710
 Red. masses --      1.4590                 2.6504                 1.4934
 Frc consts  --      0.3070                 0.6735                 0.4612
 IR Inten    --     74.1980                 0.0278                 3.4894

                     28                     29                     30
                      A                      A                      A
 Frequencies --    728.6823               781.9466               809.0069
 Red. masses --      4.0507                 2.0915                 1.4688
 Frc consts  --      1.2672                 0.7535                 0.5664
 IR Inten    --     15.9118                14.0327                 0.9138

                     31                     32                     33
                      A                      A                      A
 Frequencies --    817.2447               833.8693               851.8653
 Red. masses --      1.7209                 2.3578                 2.4069
 Frc consts  --      0.6772                 0.9660                 1.0291
 IR Inten    --     34.9500                 1.6620                 1.1893

                     34                     35                     36
                      A                      A                      A
 Frequencies --    866.7020               890.3004               898.9880
 Red. masses --      1.6413                 2.0098                 1.9456
 Frc consts  --      0.7264                 0.9386                 0.9264
 IR Inten    --      1.9997                 4.0169                 0.9605

                     37                     38                     39
                      A                      A                      A
 Frequencies --    939.2892               957.5913               962.1742
 Red. masses --      2.0906                 2.1681                 1.5641
 Frc consts  --      1.0867                 1.1714                 0.8532
 IR Inten    --      1.9017                 1.1650                 2.1331

                     40                     41                     42
                      A                      A                      A
 Frequencies --    966.6724               988.1218               995.7980
 Red. masses --      2.0128                 2.1208                 2.0375
 Frc consts  --      1.1082                 1.2200                 1.1904
 IR Inten    --      2.0257                 0.4636                13.0749

                     43                     44                     45
                      A                      A                      A
 Frequencies --   1025.9367              1045.6353              1056.7369
 Red. masses --      1.6372                 2.1526                 2.0355
 Frc consts  --      1.0153                 1.3866                 1.3392
 IR Inten    --      8.0985                 0.3179                 1.0419

                     46                     47                     48
                      A                      A                      A
 Frequencies --   1066.0247              1093.0116              1098.3730
 Red. masses --      1.7003                 1.8665                 2.1131
 Frc consts  --      1.1384                 1.3138                 1.5020
 IR Inten    --     10.1044                 0.6238                25.0854

                     49                     50                     51
                      A                      A                      A
 Frequencies --   1112.0059              1128.4520              1146.7339
 Red. masses --      1.2146                 2.1683                 2.7821
 Frc consts  --      0.8849                 1.6268                 2.1555
 IR Inten    --      1.6048                 4.4756                40.0403

                     52                     53                     54
                      A                      A                      A
 Frequencies --   1167.8472              1179.0339              1191.2895
 Red. masses --      1.2612                 1.5748                 1.5862
 Frc consts  --      1.0135                 1.2898                 1.3263
 IR Inten    --      7.3400                 4.5391                 9.3685

                     55                     56                     57
                      A                      A                      A
 Frequencies --   1198.8011              1208.4999              1223.4641
 Red. masses --      2.1637                 1.9424                 1.4069
 Frc consts  --      1.8320                 1.6714                 1.2408
 IR Inten    --      6.2601                22.7897                 4.7275

                     58                     59                     60
                      A                      A                      A
 Frequencies --   1238.3347              1239.4131              1275.7578
 Red. masses --      1.4650                 1.4544                 1.3822
 Frc consts  --      1.3236                 1.3163                 1.3254
 IR Inten    --      6.8386                17.6564                 3.9039

                     61                     62                     63
                      A                      A                      A
 Frequencies --   1287.1934              1292.8825              1303.0992
 Red. masses --      1.4163                 1.3943                 1.3178
 Frc consts  --      1.3826                 1.3731                 1.3184
 IR Inten    --      6.5186                 4.9014                 0.4551

                     64                     65                     66
                      A                      A                      A
 Frequencies --   1307.3803              1318.6467              1339.6030
 Red. masses --      1.4674                 1.2881                 1.5425
 Frc consts  --      1.4777                 1.3197                 1.6309
 IR Inten    --      6.1199                 4.6309                33.5104

                     67                     68                     69
                      A                      A                      A
 Frequencies --   1343.6378              1370.0666              1383.1688
 Red. masses --      1.6286                 1.4806                 1.4752
 Frc consts  --      1.7324                 1.6375                 1.6628
 IR Inten    --      7.5922                10.9482                41.6906

                     70                     71                     72
                      A                      A                      A
 Frequencies --   1385.7965              1398.1244              1399.2447
 Red. masses --      1.4116                 1.5050                 1.5143
 Frc consts  --      1.5973                 1.7333                 1.7468
 IR Inten    --      1.3076                 7.8324                 9.4859

                     73                     74                     75
                      A                      A                      A
 Frequencies --   1405.8843              1408.1293              1420.4371
 Red. masses --      1.5518                 1.4912                 1.4678
 Frc consts  --      1.8071                 1.7421                 1.7449
 IR Inten    --     29.5447                 6.4777                 7.8336

                     76                     77                     78
                      A                      A                      A
 Frequencies --   1477.3699              1498.8778              1499.1933
 Red. masses --      1.6582                 1.2576                 1.1247
 Frc consts  --      2.1324                 1.6647                 1.4894
 IR Inten    --     24.0747                21.8982                10.5555

                     79                     80                     81
                      A                      A                      A
 Frequencies --   1508.5359              1512.1892              1512.6775
 Red. masses --      1.1163                 1.0933                 1.1105
 Frc consts  --      1.4967                 1.4730                 1.4971
 IR Inten    --      3.7634                 1.1793                 9.1600

                     82                     83                     84
                      A                      A                      A
 Frequencies --   1517.5240              1519.4409              1525.8112
 Red. masses --      1.0933                 1.1126                 1.1019
 Frc consts  --      1.4835                 1.5134                 1.5115
 IR Inten    --      8.2811                13.9048                 2.9105

                     85                     86                     87
                      A                      A                      A
 Frequencies --   1530.9140              1532.9746              1537.6656
 Red. masses --      1.1507                 1.0808                 1.1007
 Frc consts  --      1.5889                 1.4965                 1.5334
 IR Inten    --      3.1142                 7.9904                 2.8085

                     88                     89                     90
                      A                      A                      A
 Frequencies --   1546.2989              1558.7045              1787.4917
 Red. masses --      1.0938                 1.0615                 7.8505
 Frc consts  --      1.5409                 1.5194                14.7787
 IR Inten    --      9.0576                12.9646               318.2634

                     91                     92                     93
                      A                      A                      A
 Frequencies --   2951.7410              2979.0069              3014.1593
 Red. masses --      1.0841                 1.0733                 1.0663
 Frc consts  --      5.5652                 5.6119                 5.7076
 IR Inten    --     54.4535                59.1570                17.6561

                     94                     95                     96
                      A                      A                      A
 Frequencies --   3019.6547              3021.8965              3030.1707
 Red. masses --      1.0660                 1.0698                 1.0606
 Frc consts  --      5.7271                 5.7561                 5.7376
 IR Inten    --     31.3126                26.7558                10.0169

                     97                     98                     99
                      A                      A                      A
 Frequencies --   3030.5671              3032.1128              3059.7515
 Red. masses --      1.0485                 1.0632                 1.0962
 Frc consts  --      5.6740                 5.7593                 6.0466
 IR Inten    --     75.8261                24.6854                36.5630

                    100                    101                    102
                      A                      A                      A
 Frequencies --   3067.0877              3071.7669              3072.6964
 Red. masses --      1.0599                 1.0915                 1.1007
 Frc consts  --      5.8742                 6.0679                 6.1229
 IR Inten    --     57.0660                67.0339                48.1621

                    103                    104                    105
                      A                      A                      A
 Frequencies --   3074.4643              3079.5805              3085.8979
 Red. masses --      1.0640                 1.1014                 1.0599
 Frc consts  --      5.9255                 6.1544                 5.9468
 IR Inten    --     12.9348                94.4359                10.8869

                    106                    107                    108
                      A                      A                      A
 Frequencies --   3094.6352              3111.7532              3113.9841
 Red. masses --      1.0933                 1.1080                 1.0889
 Frc consts  --      6.1689                 6.3213                 6.2214
 IR Inten    --     29.4557                 3.0277                33.3487

                    109                    110                    111
                      A                      A                      A
 Frequencies --   3114.7401              3130.3767              3136.1084
 Red. masses --      1.0877                 1.1063                 1.1059
 Frc consts  --      6.2176                 6.3875                 6.4082
 IR Inten    --     14.7963                58.6499                20.7105

                    112                    113                    114
                      A                      A                      A
 Frequencies --   3151.9945              3479.6224              3598.9295
 Red. masses --      1.1049                 1.0740                 1.0761
 Frc consts  --      6.4676                 7.6619                 8.2121
 IR Inten    --      4.9303                 0.0417                21.1353

 - Thermochemistry -
 -------------------
 Temperature   298.150 Kelvin.  Pressure   1.00000 Atm.
 Atom     1 has atomic number  6 and mass  12.00000

 Molecular mass:   224.18886 amu.
 Principal axes and moments of inertia in atomic units:
                           1         2         3
     Eigenvalues --  1691.910417395.045937557.51020
           X            0.99994  -0.00188  -0.01072
           Y            0.00183   0.99999  -0.00489
           Z            0.01073   0.00487   0.99993
 This molecule is an asymmetric top.
 Rotational symmetry number  1.
 Warning -- assumption of classical behavior for rotation
           may cause significant error
 Rotational temperatures (Kelvin)      0.05119     0.01171     0.01146
 Rotational constants (GHZ):           1.06669     0.24405     0.23880
 Zero-point vibrational energy     960553.7 (Joules/Mol)
                                  229.57786 (Kcal/Mol)
 Warning -- explicit consideration of  25 degrees of freedom as
           vibrations may cause significant error
 Vibrational temperatures:     36.45    58.28    66.63   102.23   141.18
          (Kelvin)            194.35   201.21   245.18   260.39   275.41
                              313.69   356.42   423.34   429.26   489.31
                              498.08   543.69   601.15   653.52   670.55
                              696.77   742.98   800.30   808.38   859.88
                              944.90  1041.63  1048.41  1125.05  1163.98
                             1175.83  1199.75  1225.64  1246.99  1280.94
                             1293.44  1351.43  1377.76  1384.35  1390.83
                             1421.69  1432.73  1476.09  1504.44  1520.41
                             1533.77  1572.60  1580.31  1599.93  1623.59
                             1649.89  1680.27  1696.37  1714.00  1724.81
                             1738.76  1760.29  1781.69  1783.24  1835.53
                             1851.98  1860.17  1874.87  1881.03  1897.24
                             1927.39  1933.20  1971.22  1990.07  1993.85
                             2011.59  2013.20  2022.75  2025.98  2043.69
                             2125.61  2156.55  2157.00  2170.45  2175.70
                             2176.41  2183.38  2186.14  2195.30  2202.64
                             2205.61  2212.36  2224.78  2242.63  2571.80
                             4246.90  4286.13  4336.70  4344.61  4347.83
                             4359.74  4360.31  4362.53  4402.30  4412.86
                             4419.59  4420.92  4423.47  4430.83  4439.92
                             4452.49  4477.12  4480.33  4481.42  4503.91
                             4512.16  4535.02  5006.40  5178.06

 Zero-point correction=                           0.365856 (Hartree/Particle)
 Thermal correction to Energy=                    0.382339
 Thermal correction to Enthalpy=                  0.383283
 Thermal correction to Gibbs Free Energy=         0.320869
 Sum of electronic and zero-point Energies=           -694.260537
 Sum of electronic and thermal Energies=              -694.244054
 Sum of electronic and thermal Enthalpies=            -694.243110
 Sum of electronic and thermal Free Energies=         -694.305524

                     E (Thermal)             CV                S
                      KCal/Mol        Cal/Mol-Kelvin    Cal/Mol-Kelvin
 Total                  239.921             63.678            131.362
 Electronic               0.000              0.000              0.000
 Translational            0.889              2.981             42.124
 Rotational               0.889              2.981             32.914
 Vibrational            238.144             57.716             56.324
 Vibration     1          0.593              1.985              6.165
 Vibration     2          0.594              1.981              5.234
 Vibration     3          0.595              1.979              4.969
 Vibration     4          0.598              1.968              4.124
 Vibration     5          0.604              1.950              3.491
 Vibration     6          0.613              1.918              2.872
 Vibration     7          0.615              1.913              2.806
 Vibration     8          0.626              1.879              2.431
 Vibration     9          0.630              1.866              2.318
 Vibration    10          0.634              1.852              2.214
 Vibration    11          0.646              1.814              1.975
 Vibration    12          0.661              1.767              1.747
 Vibration    13          0.689              1.684              1.449
 Vibration    14          0.691              1.677              1.426
 Vibration    15          0.720              1.595              1.212
 Vibration    16          0.724              1.583              1.183
 Vibration    17          0.748              1.517              1.048
 Vibration    18          0.781              1.432              0.899
 Vibration    19          0.813              1.352              0.783
 Vibration    20          0.823              1.325              0.749
 Vibration    21          0.840              1.285              0.699
 Vibration    22          0.871              1.214              0.618
 Vibration    23          0.912              1.126              0.531
 Vibration    24          0.918              1.114              0.520
 Vibration    25          0.956              1.037              0.454

 Optimization completed.
    -- Stationary point found.
 Normal termination of Gaussian 16 at Thu Dec 10 22:41:03 2020.

 ----------------------------------------------------------------------
 # B3LYP/6-311++G(d,p) empiricaldispersion=gd3bj scf=xqc pop=npa geom=c
 heck
 ----------------------------------------------------------------------

 ---------------------------------------
 CID_102951760_JID_6273_Energie_neutraal
 ---------------------------------------
 Structure from the checkpoint file:  "JID_6273.chk"
 Charge =  0 Multiplicity = 1

 SCF Done:  E(RB3LYP) =  -694.824831850     A.U. after   14 cycles
 Normal termination of Gaussian 16 at Thu Dec 10 22:50:00 2020.

 ----------------------------------------------------------------------
 # B3LYP/6-311++G(d,p) empiricaldispersion=gd3bj scf=xqc pop=npa geom=c
 heck
 ----------------------------------------------------------------------

 -------------------------------------
 CID_102951760_JID_6273_Energie_kation
 -------------------------------------
 Structure from the checkpoint file:  "JID_6273.chk"
 Charge =  1 Multiplicity = 2

 SCF Done:  E(UB3LYP) =  -694.524652311     A.U. after   28 cycles
 Normal termination of Gaussian 16 at Thu Dec 10 23:11:54 2020.
 Gaussian 16:  ES64L-G16RevA.03 25-Dec-2016

 ----------------------------------------------------------------------
 # B3LYP/6-311++G(d,p) empiricaldispersion=gd3bj scf=xqc pop=npa geom=c
 heck
 ----------------------------------------------------------------------

 ------------------------------------
 CID_102951760_JID_6273_Energie_anion
 ------------------------------------
 Structure from the checkpoint file:  "JID_6273.chk"
 Charge = -1 Multiplicity = 2

                         Standard orientation:
 ---------------------------------------------------------------------
 Center     Atomic      Atomic             Coordinates (Angstroms)
 Number     Number       Type             X           Y           Z
 ---------------------------------------------------------------------
      1          6           0       -3.194398   -0.115888    2.060005
      2          7           0       -3.903371    0.213604    0.830469
      3          6           0       -3.751981   -0.362427   -0.404378
      4          8           0       -4.487399   -0.060404   -1.338109
      5          6           0       -2.587446   -1.327558   -0.591241
      6          6           0       -1.362897   -0.603394   -1.169383
      7          7           0       -0.872292    0.423096   -0.248931
      8          6           0        0.370378    1.056867   -0.675222
      9          6           0        0.676001    2.307928    0.185692
     10          6           0        1.688139    1.481814    1.012723
     11          6           0        1.674028    0.388582   -0.101792
     12          6           0        1.594413   -1.057496    0.388682
     13          6           0        2.906901   -1.486912    1.057956
     14          6           0        4.087348   -1.341455    0.088277
     15          6           0        4.179616    0.088944   -0.459276
     16          6           0        2.849985    0.542801   -1.077905
     17          1           0       -3.498165   -1.086620    2.475659
     18          1           0       -3.417305    0.655911    2.801272
     19          1           0       -2.116305   -0.118048    1.882900
     20          1           0       -4.727670    0.797812    0.894292
     21          1           0       -2.306763   -1.828960    0.339234
     22          1           0       -2.925210   -2.082627   -1.306258
     23          1           0       -0.564352   -1.333802   -1.325033
     24          1           0       -1.623171   -0.190482   -2.159533
     25          1           0       -1.586559    1.145187   -0.164647
     26          1           0        0.395822    1.215386   -1.768310
     27          1           0       -0.177852    2.730612    0.726121
     28          1           0        1.147514    3.105985   -0.394213
     29          1           0        1.254091    1.114081    1.947546
     30          1           0        2.649784    1.953750    1.236683
     31          1           0        1.405931   -1.725397   -0.464945
     32          1           0        0.746310   -1.166192    1.072667
     33          1           0        2.829347   -2.522033    1.413034
     34          1           0        3.085139   -0.863463    1.945880
     35          1           0        5.027145   -1.622074    0.579909
     36          1           0        3.949004   -2.040658   -0.749649
     37          1           0        4.449539    0.769535    0.360180
     38          1           0        4.983635    0.164037   -1.201827
     39          1           0        2.638752   -0.060418   -1.973727
     40          1           0        2.929647    1.583981   -1.417962
 ---------------------------------------------------------------------

 SCF Done:  E(UB3LYP) =  -694.813267366     A.U. after   33 cycles
 SCF Done:  E(UB3LYP) =  -694.813267366     a.u. after    1 cycles

 The electronic state is 2-A.
 Alpha  occ. eigenvalues --  -18.99414 -14.24369 -14.20954 -10.17936 -10.11028
 Alpha  occ. eigenvalues --  -10.10523 -10.10388 -10.08720 -10.08331 -10.07540
 Alpha  occ. eigenvalues --  -10.07388 -10.07325 -10.07186 -10.07014 -10.06916
 Alpha  occ. eigenvalues --  -10.06559  -0.94470  -0.83075  -0.82346  -0.75901
 Alpha  occ. eigenvalues --   -0.71358  -0.67049  -0.64978  -0.62533  -0.61016
 Alpha  occ. eigenvalues --   -0.56541  -0.54070  -0.52523  -0.51750  -0.47819
 Alpha  occ. eigenvalues --   -0.47248  -0.43139  -0.41104  -0.39981  -0.39763
 Alpha  occ. eigenvalues --   -0.39153  -0.38004  -0.36412  -0.36155  -0.35151
 Alpha  occ. eigenvalues --   -0.33139  -0.33089  -0.32371  -0.31642  -0.30975
 Alpha  occ. eigenvalues --   -0.30260  -0.29113  -0.28692  -0.28296  -0.28086
 Alpha  occ. eigenvalues --   -0.26878  -0.26023  -0.25534  -0.24270  -0.23625
 Alpha  occ. eigenvalues --   -0.23215  -0.20691  -0.20275  -0.19318  -0.16579
 Alpha  occ. eigenvalues --   -0.16317  -0.13976   0.04002
 Alpha virt. eigenvalues --    0.05580   0.06530   0.06980   0.07513   0.08091
 Alpha virt. eigenvalues --    0.08483   0.08761   0.09470   0.09483   0.10017
 Alpha virt. eigenvalues --    0.10163   0.10971   0.11190   0.11889   0.12332

  Beta  occ. eigenvalues --  -18.99412 -14.24351 -14.20942 -10.17937 -10.11025
  Beta  occ. eigenvalues --  -10.10520 -10.10336 -10.08706 -10.08332 -10.07526
  Beta  occ. eigenvalues --  -10.07379 -10.07309 -10.07171 -10.07001 -10.06900
  Beta  occ. eigenvalues --  -10.06550  -0.94464  -0.83056  -0.82319  -0.75886
  Beta  occ. eigenvalues --   -0.71336  -0.67028  -0.64951  -0.62507  -0.60934
  Beta  occ. eigenvalues --   -0.56513  -0.54041  -0.52488  -0.51712  -0.47778
  Beta  occ. eigenvalues --   -0.47207  -0.43110  -0.41087  -0.39941  -0.39695
  Beta  occ. eigenvalues --   -0.39122  -0.37987  -0.36384  -0.36131  -0.35125
  Beta  occ. eigenvalues --   -0.33115  -0.33063  -0.32348  -0.31619  -0.30953
  Beta  occ. eigenvalues --   -0.30205  -0.29089  -0.28665  -0.28277  -0.28067
  Beta  occ. eigenvalues --   -0.26862  -0.26000  -0.25511  -0.24248  -0.23596
  Beta  occ. eigenvalues --   -0.23193  -0.20669  -0.20254  -0.19298  -0.16564
  Beta  occ. eigenvalues --   -0.16300  -0.13948
  Beta virt. eigenvalues --    0.05922   0.06828   0.06952   0.07201   0.08064
  Beta virt. eigenvalues --    0.08542   0.08763   0.09143   0.09545   0.09793
  Beta virt. eigenvalues --    0.10228   0.10552   0.11222   0.11446   0.12036

 Mulliken charges and spin densities:
               1          2
     1  C    0.934963  -1.387763
     2  N   -0.474233   0.250707
     3  C   -0.304452   0.236822
     4  O   -0.351256   0.009841
     5  C    0.508607  -0.833244
     6  C   -0.438318   0.272988
     7  N    0.296794  -0.106710
     8  C   -1.307420   0.760523
     9  C    0.340267  -0.915384
    10  C   -0.177692  -0.172203
    11  C    0.877630  -0.033231
    12  C   -0.160631  -0.103101
    13  C   -0.154223  -0.318661
    14  C    0.148561  -0.630039
    15  C    0.122849  -0.499025
    16  C   -0.157833  -0.263357
    17  H   -0.421593   0.589428
    18  H   -0.747529   0.901331
    19  H    0.582794  -0.319540
    20  H   -0.013917   0.330414
    21  H   -0.040550   0.181804
    22  H    0.108209   0.098558
    23  H    0.031123   0.116234
    24  H    0.144201   0.025427
    25  H    0.305920  -0.051950
    26  H    0.027708   0.145220
    27  H   -0.112460   0.237758
    28  H    0.024637   0.121073
    29  H   -0.102262   0.253348
    30  H    0.034764   0.117507
    31  H    0.054205   0.059764
    32  H   -0.039202   0.193995
    33  H   -0.267957   0.456396
    34  H   -0.005529   0.133939
    35  H   -0.204572   0.377489
    36  H    0.058428   0.057712
    37  H    0.020546   0.095571
    38  H   -0.175307   0.339804
    39  H    0.041033   0.112810
    40  H   -0.006301   0.157744
 Sum of Mulliken charges =  -1.00000   1.00000

 Dipole moment (field-independent basis, Debye):
    X=              2.9087    Y=              0.0014    Z=             -3.8586  Tot=              4.8321
 Quadrupole moment (field-independent basis, Debye-Ang):
   XX=           -205.2556   YY=           -139.2239   ZZ=           -150.1683
   XY=              7.2969   XZ=              6.4595   YZ=              0.1622

 Summary of Natural Population Analysis:

                                       Natural Population
                Natural  -----------------------------------------------
    Atom  No    Charge         Core      Valence    Rydberg      Total
 -----------------------------------------------------------------------
      C    1   -0.18709      0.99964     2.17883    0.00863     3.18709
      N    2   -0.31888      0.99968     2.80809    0.01112     3.81888
      C    3    0.33901      0.99967     1.63722    0.02410     2.66099
      O    4   -0.32906      0.99988     3.32352    0.00566     4.32906
      C    5   -0.23502      0.99958     2.22718    0.00826     3.23502
      C    6   -0.07982      0.99962     2.07163    0.00858     3.07982
      N    7   -0.34593      0.99972     2.83601    0.01020     3.84593
      C    8    0.00315      0.99955     1.98542    0.01188     2.99685
      C    9   -0.19152      0.99963     2.18285    0.00904     3.19152
      C   10   -0.18901      0.99960     2.18024    0.00918     3.18901
      C   11   -0.03327      0.99954     2.01982    0.01391     3.03327
      C   12   -0.19365      0.99957     2.18341    0.01067     3.19365
      C   13   -0.18894      0.99963     2.18077    0.00854     3.18894
      C   14   -0.18817      0.99963     2.18092    0.00762     3.18817
      C   15   -0.19000      0.99963     2.18185    0.00853     3.19000
      C   16   -0.18889      0.99958     2.17889    0.01042     3.18889
      H   17    0.09110      0.00000     0.40711    0.00180     0.40890
      H   18    0.10432      0.00000     0.39240    0.00327     0.39568
      H   19    0.10843      0.00000     0.38915    0.00242     0.39157
      H   20    0.19489      0.00000     0.30257    0.00254     0.30511
      H   21    0.10666      0.00000     0.39183    0.00151     0.39334
      H   22    0.11131      0.00000     0.38784    0.00085     0.38869
      H   23    0.09576      0.00000     0.40279    0.00145     0.40424
      H   24    0.08402      0.00000     0.41461    0.00137     0.41598
      H   25    0.17526      0.00000     0.32146    0.00328     0.32474
      H   26    0.07891      0.00000     0.41934    0.00176     0.42109
      H   27    0.09928      0.00000     0.39949    0.00123     0.40072
      H   28    0.09818      0.00000     0.40081    0.00102     0.40182
      H   29    0.10228      0.00000     0.39632    0.00140     0.39772
      H   30    0.09627      0.00000     0.40260    0.00113     0.40373
      H   31    0.09271      0.00000     0.40579    0.00150     0.40729
      H   32    0.10834      0.00000     0.38983    0.00184     0.39166
      H   33    0.09909      0.00000     0.39994    0.00097     0.40091
      H   34    0.09421      0.00000     0.40447    0.00132     0.40579
      H   35    0.09812      0.00000     0.40085    0.00103     0.40188
      H   36    0.09109      0.00000     0.40770    0.00121     0.40891
      H   37    0.09385      0.00000     0.40481    0.00133     0.40615
      H   38    0.09823      0.00000     0.40078    0.00099     0.40177
      H   39    0.09551      0.00000     0.40321    0.00128     0.40449
      H   40    0.09930      0.00000     0.39966    0.00104     0.40070
 =======================================================================
   * Total *    0.00000     15.99412    45.80201    0.20387    62.00000

 Normal termination of Gaussian 16 at Thu Dec 10 23:33:49 2020.
