 Gaussian 16, Revision A.03,

 -----------------------------------------------------------
 # opt freq B3LYP/6-31G(d) empiricaldispersion=gd3bj scf=xqc
 -----------------------------------------------------------

 ------------------------------
 CID_80516117_JID_2864_neutraal
 ------------------------------
 Symbolic Z-matrix:
 Charge =  0 Multiplicity = 1

 SCF Done:  E(RB3LYP) =  -565.741123113     A.U. after   16 cycles
 SCF Done:  E(RB3LYP) =  -565.746864473     A.U. after   13 cycles
 SCF Done:  E(RB3LYP) =  -565.749235320     A.U. after   14 cycles
 SCF Done:  E(RB3LYP) =  -565.750179993     A.U. after   13 cycles
 SCF Done:  E(RB3LYP) =  -565.751092275     A.U. after   14 cycles
 SCF Done:  E(RB3LYP) =  -565.751440655     A.U. after   12 cycles
 SCF Done:  E(RB3LYP) =  -565.751593635     A.U. after   11 cycles
 SCF Done:  E(RB3LYP) =  -565.751706097     A.U. after   11 cycles
 SCF Done:  E(RB3LYP) =  -565.751753146     A.U. after   11 cycles
 SCF Done:  E(RB3LYP) =  -565.751877542     A.U. after   12 cycles
 SCF Done:  E(RB3LYP) =  -565.751905543     A.U. after   12 cycles
 SCF Done:  E(RB3LYP) =  -565.751918156     A.U. after   11 cycles
 SCF Done:  E(RB3LYP) =  -565.751921072     A.U. after    9 cycles
 SCF Done:  E(RB3LYP) =  -565.751921556     A.U. after    8 cycles
 SCF Done:  E(RB3LYP) =  -565.751921653     A.U. after    8 cycles
 Optimization completed.
    -- Stationary point found.
 Normal termination of Gaussian 16 at Wed Dec  9 18:07:06 2020.

 --------------------------------------------------------------------
 #N Geom=AllCheck Guess=TCheck SCRF=Check GenChk RB3LYP/6-31G(d) Freq
 --------------------------------------------------------------------

 Structure from the checkpoint file:  "JID_2864.chk"
 ------------------------------
 CID_80516117_JID_2864_neutraal
 ------------------------------
 Charge =  0 Multiplicity = 1

 SCF Done:  E(RB3LYP) =  -565.751921653     A.U. after    1 cycles

  Exact polarizability: 120.547  -2.830 121.693   4.990  -0.234  52.172
 Approx polarizability: 178.451 -19.380 217.135  13.737  -3.644  78.218

                      1                      2                      3
                      A                      A                      A
 Frequencies --     48.2089                64.9884               102.4881
 Red. masses --      4.4679                 2.8385                 4.2727
 Frc consts  --      0.0061                 0.0071                 0.0264
 IR Inten    --      1.2717                 3.1484                 2.7387

                      4                      5                      6
                      A                      A                      A
 Frequencies --    117.5643               137.1823               196.4899
 Red. masses --      6.9913                 6.1309                 4.2534
 Frc consts  --      0.0569                 0.0680                 0.0968
 IR Inten    --      5.9879                 7.0934                 5.1208

                      7                      8                      9
                      A                      A                      A
 Frequencies --    239.4562               322.5774               349.0778
 Red. masses --      5.3233                 1.4839                 2.3125
 Frc consts  --      0.1798                 0.0910                 0.1660
 IR Inten    --      1.3435                57.6669                26.6448

                     10                     11                     12
                      A                      A                      A
 Frequencies --    381.3689               427.2534               457.4171
 Red. masses --      5.9133                 2.4086                 8.8903
 Frc consts  --      0.5067                 0.2591                 1.0960
 IR Inten    --      1.9244                13.0624                 3.4866

                     13                     14                     15
                      A                      A                      A
 Frequencies --    484.4379               524.5144               610.7468
 Red. masses --      4.5411                 5.6603                 7.2672
 Frc consts  --      0.6279                 0.9175                 1.5971
 IR Inten    --      4.8608                 2.0539                 5.5512

                     16                     17                     18
                      A                      A                      A
 Frequencies --    620.4848               636.9076               750.8850
 Red. masses --      7.7187                 6.3585                 5.7456
 Frc consts  --      1.7509                 1.5197                 1.9087
 IR Inten    --      7.1461                 5.0271                 0.2051

                     19                     20                     21
                      A                      A                      A
 Frequencies --    772.7011               830.5927               871.0113
 Red. masses --      8.9854                 2.8907                 1.2510
 Frc consts  --      3.1609                 1.1750                 0.5592
 IR Inten    --      5.7171                13.8582                20.2132

                     22                     23                     24
                      A                      A                      A
 Frequencies --    890.7105               921.1683               976.9999
 Red. masses --      2.4562                 1.8951                 1.3587
 Frc consts  --      1.1481                 0.9475                 0.7641
 IR Inten    --     42.2554               135.3630                 0.7935

                     25                     26                     27
                      A                      A                      A
 Frequencies --    983.7280              1031.5885              1070.4264
 Red. masses --      2.0361                 2.8443                 2.6196
 Frc consts  --      1.1609                 1.7833                 1.7684
 IR Inten    --      7.6010               108.5321                10.2723

                     28                     29                     30
                      A                      A                      A
 Frequencies --   1093.4578              1126.2899              1154.9495
 Red. masses --      2.3233                 1.9770                 3.2853
 Frc consts  --      1.6366                 1.4776                 2.5820
 IR Inten    --      2.9388                 0.7998                21.5667

                     31                     32                     33
                      A                      A                      A
 Frequencies --   1226.7909              1235.8914              1254.7078
 Red. masses --     10.3951                 1.2471                 2.2248
 Frc consts  --      9.2177                 1.1223                 2.0636
 IR Inten    --      9.7059                 2.8408                12.6363

                     34                     35                     36
                      A                      A                      A
 Frequencies --   1293.6942              1321.8949              1355.5211
 Red. masses --      1.2299                 2.1338                 1.3003
 Frc consts  --      1.2128                 2.1968                 1.4077
 IR Inten    --      2.4529                75.4779                21.1126

                     37                     38                     39
                      A                      A                      A
 Frequencies --   1385.9920              1441.8254              1461.7139
 Red. masses --      1.5185                 2.0896                 1.5112
 Frc consts  --      1.7187                 2.5594                 1.9024
 IR Inten    --    125.8467                42.5791                 5.5665

                     40                     41                     42
                      A                      A                      A
 Frequencies --   1488.1426              1526.3047              1539.6082
 Red. masses --      1.9668                 1.3293                 1.1507
 Frc consts  --      2.5662                 1.8246                 1.6071
 IR Inten    --    143.8241                74.7479                20.6220

                     43                     44                     45
                      A                      A                      A
 Frequencies --   1590.9984              1626.5962              1688.3704
 Red. masses --      6.6983                 6.0421                 1.0921
 Frc consts  --      9.9898                 9.4188                 1.8343
 IR Inten    --     42.4324                26.6072                40.9041

                     46                     47                     48
                      A                      A                      A
 Frequencies --   2359.0226              2959.9902              3069.2674
 Red. masses --     12.6760                 1.0741                 1.0875
 Frc consts  --     41.5619                 5.5448                 6.0358
 IR Inten    --      7.3855                70.3370                37.5326

                     49                     50                     51
                      A                      A                      A
 Frequencies --   3103.6540              3165.8448              3216.2236
 Red. masses --      1.0602                 1.1091                 1.0897
 Frc consts  --      6.0169                 6.5492                 6.6413
 IR Inten    --     26.7945                16.3714                 4.8560

                     52                     53                     54
                      A                      A                      A
 Frequencies --   3233.2331              3472.9835              3563.7329
 Red. masses --      1.0964                 1.0494                 1.0930
 Frc consts  --      6.7527                 7.4578                 8.1788
 IR Inten    --      3.5952                26.5221                12.8406

 - Thermochemistry -
 -------------------
 Temperature   298.150 Kelvin.  Pressure   1.00000 Atm.
 Atom     1 has atomic number  6 and mass  12.00000

 Molecular mass:   164.06981 amu.
 Principal axes and moments of inertia in atomic units:
                           1         2         3
     Eigenvalues --  1288.592262435.073813578.67022
           X            0.99875   0.04976  -0.00564
           Y           -0.04972   0.99874   0.00735
           Z            0.00600  -0.00706   0.99996
 This molecule is an asymmetric top.
 Rotational symmetry number  1.
 Warning -- assumption of classical behavior for rotation
           may cause significant error
 Rotational temperatures (Kelvin)      0.06722     0.03557     0.02420
 Rotational constants (GHZ):           1.40055     0.74114     0.50430
 Zero-point vibrational energy     405400.5 (Joules/Mol)
                                   96.89305 (Kcal/Mol)
 Warning -- explicit consideration of  16 degrees of freedom as
           vibrations may cause significant error
 Vibrational temperatures:     69.36    93.50   147.46   169.15   197.37
          (Kelvin)            282.71   344.52   464.12   502.25   548.70
                              614.72   658.12   697.00   754.66   878.73
                              892.74   916.37  1080.36  1111.74  1195.04
                             1253.19  1281.53  1325.36  1405.68  1415.37
                             1484.23  1540.10  1573.24  1620.48  1661.71
                             1765.08  1778.17  1805.24  1861.34  1901.91
                             1950.29  1994.13  2074.47  2103.08  2141.11
                             2196.01  2215.15  2289.09  2340.31  2429.19
                             3394.11  4258.77  4415.99  4465.47  4554.94
                             4627.43  4651.90  4996.85  5127.42

 Zero-point correction=                           0.154409 (Hartree/Particle)
 Thermal correction to Energy=                    0.165300
 Thermal correction to Enthalpy=                  0.166244
 Thermal correction to Gibbs Free Energy=         0.116773
 Sum of electronic and zero-point Energies=           -565.597513
 Sum of electronic and thermal Energies=              -565.586621
 Sum of electronic and thermal Enthalpies=            -565.585677
 Sum of electronic and thermal Free Energies=         -565.635149

                     E (Thermal)             CV                S
                      KCal/Mol        Cal/Mol-Kelvin    Cal/Mol-Kelvin
 Total                  103.727             39.625            104.121
 Electronic               0.000              0.000              0.000
 Translational            0.889              2.981             41.194
 Rotational               0.889              2.981             30.797
 Vibrational            101.950             33.663             32.131
 Vibration     1          0.595              1.978              4.890
 Vibration     2          0.597              1.971              4.300
 Vibration     3          0.605              1.947              3.406
 Vibration     4          0.608              1.935              3.140
 Vibration     5          0.614              1.916              2.843
 Vibration     6          0.636              1.845              2.166
 Vibration     7          0.657              1.780              1.807
 Vibration     8          0.708              1.630              1.297
 Vibration     9          0.726              1.577              1.170
 Vibration    10          0.751              1.510              1.034
 Vibration    11          0.789              1.411              0.868
 Vibration    12          0.816              1.344              0.774
 Vibration    13          0.841              1.285              0.698
 Vibration    14          0.879              1.196              0.600
 Vibration    15          0.970              1.009              0.432
 Vibration    16          0.981              0.989              0.416

 Optimization completed.
    -- Stationary point found.
 Normal termination of Gaussian 16 at Wed Dec  9 18:11:20 2020.

 ----------------------------------------------------------------------
 # B3LYP/6-311++G(d,p) empiricaldispersion=gd3bj scf=xqc pop=npa geom=c
 heck
 ----------------------------------------------------------------------

 --------------------------------------
 CID_80516117_JID_2864_Energie_neutraal
 --------------------------------------
 Structure from the checkpoint file:  "JID_2864.chk"
 Charge =  0 Multiplicity = 1

 SCF Done:  E(RB3LYP) =  -565.913178619     A.U. after   15 cycles
 Normal termination of Gaussian 16 at Wed Dec  9 18:12:51 2020.

 ----------------------------------------------------------------------
 # B3LYP/6-311++G(d,p) empiricaldispersion=gd3bj scf=xqc pop=npa geom=c
 heck
 ----------------------------------------------------------------------

 ------------------------------------
 CID_80516117_JID_2864_Energie_kation
 ------------------------------------
 Structure from the checkpoint file:  "JID_2864.chk"
 Charge =  1 Multiplicity = 2

 SCF Done:  E(UB3LYP) =  -565.586230849     A.U. after   26 cycles
 Normal termination of Gaussian 16 at Wed Dec  9 18:16:34 2020.
 Gaussian 16:  ES64L-G16RevA.03 25-Dec-2016

 ----------------------------------------------------------------------
 # B3LYP/6-311++G(d,p) empiricaldispersion=gd3bj scf=xqc pop=npa geom=c
 heck
 ----------------------------------------------------------------------

 -----------------------------------
 CID_80516117_JID_2864_Energie_anion
 -----------------------------------
 Structure from the checkpoint file:  "JID_2864.chk"
 Charge = -1 Multiplicity = 2

                         Standard orientation:
 ---------------------------------------------------------------------
 Center     Atomic      Atomic             Coordinates (Angstroms)
 Number     Number       Type             X           Y           Z
 ---------------------------------------------------------------------
      1          6           0        2.291705    1.053068    0.162298
      2          6           0        1.545797    2.232813    0.044757
      3          7           0        0.232653    2.247447   -0.164997
      4          7           0       -0.430279    1.092917   -0.276121
      5          6           0        0.212727   -0.068592   -0.181439
      6          6           0        1.614019   -0.149004    0.047214
      7          6           0        2.271860   -1.412108    0.148150
      8          7           0        2.826371   -2.430037    0.234627
      9          8           0       -0.445533   -1.218036   -0.298836
     10          6           0       -1.863904   -1.204650   -0.618342
     11          6           0       -2.757191   -0.738720    0.542750
     12          7           0       -3.385537    0.542060    0.229071
     13          1           0        3.361986    1.074325    0.336070
     14          1           0        2.015985    3.207752    0.124836
     15          1           0       -2.032418   -0.573609   -1.494555
     16          1           0       -2.047004   -2.247562   -0.878347
     17          1           0       -3.554120   -1.477690    0.688270
     18          1           0       -2.144724   -0.758543    1.462508
     19          1           0       -3.977012    0.836431    1.003526
     20          1           0       -2.650955    1.239629    0.117990
 ---------------------------------------------------------------------

 SCF Done:  E(UB3LYP) =  -565.953599797     A.U. after   20 cycles

 The electronic state is 2-A.
 Alpha  occ. eigenvalues --  -19.03024 -14.17726 -14.17021 -14.15974 -14.14674
 Alpha  occ. eigenvalues --  -10.12298 -10.11154 -10.08887 -10.05093 -10.04790
 Alpha  occ. eigenvalues --  -10.04134 -10.02805  -0.95591  -0.84733  -0.77144
 Alpha  occ. eigenvalues --   -0.75062  -0.67575  -0.66557  -0.61828  -0.53601
 Alpha  occ. eigenvalues --   -0.52582  -0.47185  -0.41843  -0.40774  -0.38547
 Alpha  occ. eigenvalues --   -0.36887  -0.34400  -0.31959  -0.31187  -0.29568
 Alpha  occ. eigenvalues --   -0.28008  -0.27472  -0.25733  -0.22846  -0.22084
 Alpha  occ. eigenvalues --   -0.21568  -0.21085  -0.19070  -0.16218  -0.14717
 Alpha  occ. eigenvalues --   -0.13403  -0.11066  -0.08256   0.02797
 Alpha virt. eigenvalues --    0.08006   0.09879   0.10007   0.11253   0.12306
 Alpha virt. eigenvalues --    0.12722   0.13039   0.13677   0.15221   0.15600
 Alpha virt. eigenvalues --    0.16495   0.17166   0.17642   0.17848   0.18636

  Beta  occ. eigenvalues --  -19.03043 -14.17726 -14.16757 -14.15218 -14.14350
  Beta  occ. eigenvalues --  -10.12360 -10.11153 -10.08888 -10.05130 -10.04920
  Beta  occ. eigenvalues --  -10.03772 -10.02440  -0.95590  -0.83847  -0.77139
  Beta  occ. eigenvalues --   -0.74573  -0.66916  -0.65947  -0.61599  -0.52959
  Beta  occ. eigenvalues --   -0.52179  -0.46952  -0.41658  -0.40535  -0.38456
  Beta  occ. eigenvalues --   -0.36697  -0.34289  -0.31864  -0.30917  -0.29334
  Beta  occ. eigenvalues --   -0.27740  -0.26758  -0.25363  -0.22772  -0.21049
  Beta  occ. eigenvalues --   -0.20495  -0.20131  -0.18808  -0.15813  -0.13435
  Beta  occ. eigenvalues --   -0.12326  -0.09491  -0.07492
  Beta virt. eigenvalues --    0.07997   0.09868   0.09980   0.10305   0.11246
  Beta virt. eigenvalues --    0.12283   0.12694   0.13386   0.13720   0.15261
  Beta virt. eigenvalues --    0.15622   0.16540   0.17277   0.17735   0.17889

 Mulliken charges and spin densities:
               1          2
     1  C    0.023287   0.384125
     2  C   -0.349876  -0.107470
     3  N   -0.141570   0.365559
     4  N   -0.153456   0.087894
     5  C   -0.329639  -0.042477
     6  C    1.308775   0.236452
     7  C   -1.331775  -0.075357
     8  N   -0.354881   0.167706
     9  O   -0.077411   0.004695
    10  C   -0.303591  -0.003810
    11  C   -0.210120  -0.002655
    12  N   -0.403615   0.000983
    13  H    0.130426  -0.020976
    14  H    0.120454   0.000573
    15  H    0.200904   0.002728
    16  H    0.146118  -0.000572
    17  H    0.110069   0.001574
    18  H    0.155672   0.001244
    19  H    0.197487   0.000874
    20  H    0.262741  -0.001089
 Sum of Mulliken charges =  -1.00000   1.00000

 Dipole moment (field-independent basis, Debye):
    X=             -4.7511    Y=              0.3301    Z=              0.9438  Tot=              4.8551
 Quadrupole moment (field-independent basis, Debye-Ang):
   XX=            -99.5994   YY=           -101.1970   ZZ=            -75.4777
   XY=             18.7800   XZ=             -5.6200   YZ=              3.9651

 Summary of Natural Population Analysis:

                                       Natural Population
                Natural  -----------------------------------------------
    Atom  No    Charge         Core      Valence    Rydberg      Total
 -----------------------------------------------------------------------
      C    1   -0.01345      0.99954     2.00642    0.00749     3.01345
      C    2   -0.04390      0.99962     2.02855    0.01572     3.04390
      N    3   -0.02369      0.99973     2.50587    0.01810     3.52369
      N    4   -0.16372      0.99966     2.64837    0.01569     3.66372
      C    5    0.26391      0.99946     1.71787    0.01876     2.73609
      C    6   -0.06453      0.99938     2.05398    0.01117     3.06453
      C    7    0.14526      0.99965     1.83634    0.01874     2.85474
      N    8   -0.16075      0.99978     2.64952    0.01145     3.66075
      O    9   -0.27773      0.99985     3.26826    0.00963     4.27773
      C   10   -0.01515      0.99957     2.00456    0.01102     3.01515
      C   11   -0.10423      0.99965     2.09522    0.00936     3.10423
      N   12   -0.43317      0.99977     2.92245    0.01096     3.93317
      H   13    0.09367      0.00000     0.40526    0.00107     0.40633
      H   14    0.08395      0.00000     0.41469    0.00136     0.41605
      H   15    0.09621      0.00000     0.40227    0.00151     0.40379
      H   16    0.08665      0.00000     0.41241    0.00094     0.41335
      H   17    0.08232      0.00000     0.41634    0.00135     0.41768
      H   18    0.08611      0.00000     0.41256    0.00133     0.41389
      H   19    0.16522      0.00000     0.33308    0.00170     0.33478
      H   20    0.19704      0.00000     0.30102    0.00194     0.30296
 =======================================================================
   * Total *   -0.00000     11.99566    30.83505    0.16929    43.00000

 Normal termination of Gaussian 16 at Wed Dec  9 18:19:10 2020.
