 Gaussian 16, Revision A.03,

 -----------------------------------------------------------
 # opt freq B3LYP/6-31G(d) empiricaldispersion=gd3bj scf=xqc
 -----------------------------------------------------------

 -------------------------------
 CID_117024003_JID_9054_neutraal
 -------------------------------
 Symbolic Z-matrix:
 Charge =  0 Multiplicity = 1

 SCF Done:  E(RB3LYP) =  -879.565964535     A.U. after   15 cycles
 SCF Done:  E(RB3LYP) =  -879.572513311     A.U. after   12 cycles
 SCF Done:  E(RB3LYP) =  -879.573133085     A.U. after   12 cycles
 SCF Done:  E(RB3LYP) =  -879.573142681     A.U. after   12 cycles
 SCF Done:  E(RB3LYP) =  -879.573366929     A.U. after   10 cycles
 SCF Done:  E(RB3LYP) =  -879.573428073     A.U. after   11 cycles
 SCF Done:  E(RB3LYP) =  -879.573458328     A.U. after   10 cycles
 SCF Done:  E(RB3LYP) =  -879.573468103     A.U. after    9 cycles
 SCF Done:  E(RB3LYP) =  -879.573474873     A.U. after   10 cycles
 SCF Done:  E(RB3LYP) =  -879.573475814     A.U. after    8 cycles
 SCF Done:  E(RB3LYP) =  -879.573475953     A.U. after    8 cycles
 SCF Done:  E(RB3LYP) =  -879.573476006     A.U. after    7 cycles
 Optimization completed.
    -- Stationary point found.
 Normal termination of Gaussian 16 at Mon Dec 14 16:44:41 2020.

 --------------------------------------------------------------------
 #N Geom=AllCheck Guess=TCheck SCRF=Check GenChk RB3LYP/6-31G(d) Freq
 --------------------------------------------------------------------

 Structure from the checkpoint file:  "JID_9054.chk"
 -------------------------------
 CID_117024003_JID_9054_neutraal
 -------------------------------
 Charge =  0 Multiplicity = 1

 SCF Done:  E(RB3LYP) =  -879.573476006     A.U. after    1 cycles

  Exact polarizability: 235.378   5.814 169.491  -2.500  -3.857 103.090
 Approx polarizability: 302.699  12.127 277.310   1.167 -10.739 158.158

                      1                      2                      3
                      A                      A                      A
 Frequencies --     31.9690                41.8323                69.7030
 Red. masses --      5.0826                 4.2670                 4.6403
 Frc consts  --      0.0031                 0.0044                 0.0133
 IR Inten    --      0.9457                 0.4103                 0.7363

                      4                      5                      6
                      A                      A                      A
 Frequencies --     83.7655               105.0808               145.8467
 Red. masses --      4.5827                 3.5126                 2.7811
 Frc consts  --      0.0189                 0.0229                 0.0349
 IR Inten    --      0.6393                 6.9689                 0.0579

                      7                      8                      9
                      A                      A                      A
 Frequencies --    154.0066               205.3281               237.4974
 Red. masses --      4.2738                 4.6160                 1.0556
 Frc consts  --      0.0597                 0.1147                 0.0351
 IR Inten    --      1.3452                 1.3540                 0.0141

                     10                     11                     12
                      A                      A                      A
 Frequencies --    241.2340               250.2453               275.7642
 Red. masses --      5.1143                 1.8314                 1.5110
 Frc consts  --      0.1754                 0.0676                 0.0677
 IR Inten    --      2.4579                 0.3940                 2.7706

                     13                     14                     15
                      A                      A                      A
 Frequencies --    309.0809               324.3367               331.5172
 Red. masses --      3.5556                 2.6004                 2.3205
 Frc consts  --      0.2001                 0.1612                 0.1503
 IR Inten    --      3.3158                 0.5425                 6.3411

                     16                     17                     18
                      A                      A                      A
 Frequencies --    346.5514               388.0692               406.4896
 Red. masses --      3.5003                 2.5235                 3.8705
 Frc consts  --      0.2477                 0.2239                 0.3768
 IR Inten    --      4.2576                 3.1887                 6.3288

                     19                     20                     21
                      A                      A                      A
 Frequencies --    437.8321               458.2846               465.7705
 Red. masses --      4.6997                 3.2991                 3.2767
 Frc consts  --      0.5308                 0.4082                 0.4188
 IR Inten    --      0.4131                 5.2526                 0.8513

                     22                     23                     24
                      A                      A                      A
 Frequencies --    479.5353               491.8250               517.6319
 Red. masses --      7.0055                 2.5289                 2.7820
 Frc consts  --      0.9491                 0.3604                 0.4392
 IR Inten    --      1.5995                 6.0669                 4.1478

                     25                     26                     27
                      A                      A                      A
 Frequencies --    538.6489               554.2039               564.4616
 Red. masses --      2.3270                 3.4179                 4.4084
 Frc consts  --      0.3978                 0.6185                 0.8276
 IR Inten    --     20.5114                25.5161                 1.9836

                     28                     29                     30
                      A                      A                      A
 Frequencies --    607.2188               643.6522               654.8718
 Red. masses --      4.8419                 3.9590                 2.0071
 Frc consts  --      1.0519                 0.9663                 0.5071
 IR Inten    --      7.2671                 2.5891                73.0882

                     31                     32                     33
                      A                      A                      A
 Frequencies --    674.5105               702.7000               759.4109
 Red. masses --      2.7839                 4.5066                 5.9472
 Frc consts  --      0.7463                 1.3111                 2.0208
 IR Inten    --      2.1730                 1.3700                 5.2729

                     34                     35                     36
                      A                      A                      A
 Frequencies --    779.6904               810.4016               837.0257
 Red. masses --      4.3289                 1.5476                 2.6865
 Frc consts  --      1.5505                 0.5988                 1.1090
 IR Inten    --     15.6482                23.0694                16.9370

                     37                     38                     39
                      A                      A                      A
 Frequencies --    857.9492               882.3034               902.9590
 Red. masses --      1.4563                 3.2079                 3.0498
 Frc consts  --      0.6316                 1.4713                 1.4651
 IR Inten    --     20.3880                 4.2882                25.4261

                     40                     41                     42
                      A                      A                      A
 Frequencies --    920.3208               921.0776               942.8575
 Red. masses --      1.8007                 1.8099                 2.0491
 Frc consts  --      0.8986                 0.9047                 1.0733
 IR Inten    --      6.1635                 6.4214                 9.7848

                     43                     44                     45
                      A                      A                      A
 Frequencies --    952.3463               965.5557              1004.8620
 Red. masses --      1.4992                 2.4441                 1.9681
 Frc consts  --      0.8011                 1.3425                 1.1709
 IR Inten    --      3.0100                 6.2540                34.7825

                     46                     47                     48
                      A                      A                      A
 Frequencies --   1013.3180              1021.9923              1040.8024
 Red. masses --      1.9291                 2.1383                 1.4834
 Frc consts  --      1.1671                 1.3159                 0.9468
 IR Inten    --      4.7055                28.5660                 0.9810

                     49                     50                     51
                      A                      A                      A
 Frequencies --   1066.7713              1089.7595              1101.9363
 Red. masses --      1.8637                 3.1931                 3.2858
 Frc consts  --      1.2496                 2.2342                 2.3507
 IR Inten    --      8.3228                 9.2666                89.7706

                     52                     53                     54
                      A                      A                      A
 Frequencies --   1138.7579              1165.7796              1191.6463
 Red. masses --      1.9944                 1.7658                 1.8528
 Frc consts  --      1.5238                 1.4139                 1.5502
 IR Inten    --      3.8030                 8.4395               127.4724

                     55                     56                     57
                      A                      A                      A
 Frequencies --   1211.6785              1219.1448              1235.8792
 Red. masses --      2.1915                 3.0946                 2.6674
 Frc consts  --      1.8957                 2.7100                 2.4004
 IR Inten    --     55.7287                37.1773                45.6602

                     58                     59                     60
                      A                      A                      A
 Frequencies --   1253.0396              1269.7704              1279.2151
 Red. masses --      1.7513                 1.5144                 1.4583
 Frc consts  --      1.6201                 1.4386                 1.4060
 IR Inten    --    148.6700                11.4422                62.7365

                     61                     62                     63
                      A                      A                      A
 Frequencies --   1293.8964              1305.5438              1316.4161
 Red. masses --      2.0822                 1.6291                 1.5676
 Frc consts  --      2.0538                 1.6360                 1.6006
 IR Inten    --     15.4460                24.4491                46.4405

                     64                     65                     66
                      A                      A                      A
 Frequencies --   1333.0441              1346.7122              1370.0053
 Red. masses --      1.7822                 2.2382                 2.0885
 Frc consts  --      1.8659                 2.3916                 2.3095
 IR Inten    --    181.3287                 9.0789                55.6361

                     67                     68                     69
                      A                      A                      A
 Frequencies --   1389.0841              1406.0044              1412.9834
 Red. masses --      2.2208                 1.7359                 1.3861
 Frc consts  --      2.5247                 2.0218                 1.6305
 IR Inten    --     61.0193                77.2902                 0.8831

                     70                     71                     72
                      A                      A                      A
 Frequencies --   1423.2723              1425.5699              1429.3722
 Red. masses --      2.2335                 1.2955                 1.4518
 Frc consts  --      2.6657                 1.5512                 1.7476
 IR Inten    --     11.9897                18.6471                30.1735

                     73                     74                     75
                      A                      A                      A
 Frequencies --   1446.6283              1474.0808              1489.7999
 Red. masses --      1.3254                 1.7820                 3.5553
 Frc consts  --      1.6342                 2.2814                 4.6493
 IR Inten    --     54.2085                52.9175                 7.6309

                     76                     77                     78
                      A                      A                      A
 Frequencies --   1507.5184              1513.5766              1514.8796
 Red. masses --      1.0898                 1.1024                 1.0508
 Frc consts  --      1.4592                 1.4880                 1.4208
 IR Inten    --     12.5866                15.3053                 1.9305

                     79                     80                     81
                      A                      A                      A
 Frequencies --   1522.6025              1526.3822              1528.0477
 Red. masses --      1.1234                 1.1039                 1.1515
 Frc consts  --      1.5345                 1.5153                 1.5842
 IR Inten    --     16.4639                14.4538                 7.6071

                     82                     83                     84
                      A                      A                      A
 Frequencies --   1533.0497              1540.1907              1560.8412
 Red. masses --      1.0872                 1.0885                 2.9075
 Frc consts  --      1.5055                 1.5213                 4.1734
 IR Inten    --      5.8556                16.5874               374.0567

                     85                     86                     87
                      A                      A                      A
 Frequencies --   1636.8958              1683.4664              1798.8255
 Red. masses --      7.4121                 6.7783                 8.8945
 Frc consts  --     11.7014                11.3182                16.9570
 IR Inten    --     25.9956                45.9943               439.9675

                     88                     89                     90
                      A                      A                      A
 Frequencies --   2943.4268              2956.4256              3033.4768
 Red. masses --      1.0729                 1.0741                 1.0705
 Frc consts  --      5.4768                 5.5312                 5.8038
 IR Inten    --     43.3028                86.7274                49.8770

                     91                     92                     93
                      A                      A                      A
 Frequencies --   3045.5553              3048.6214              3054.0355
 Red. masses --      1.0652                 1.0360                 1.0366
 Frc consts  --      5.8211                 5.6728                 5.6967
 IR Inten    --     56.6817                15.1986                28.1506

                     94                     95                     96
                      A                      A                      A
 Frequencies --   3113.2363              3119.4806              3128.8815
 Red. masses --      1.1021                 1.1014                 1.0877
 Frc consts  --      6.2936                 6.3148                 6.2741
 IR Inten    --      1.4410                49.8941                 6.7293

                     97                     98                     99
                      A                      A                      A
 Frequencies --   3130.1646              3130.5756              3132.4900
 Red. masses --      1.1016                 1.0961                 1.1031
 Frc consts  --      6.3590                 6.3294                 6.3776
 IR Inten    --     25.3435                49.2236                20.8809

                    100                    101                    102
                      A                      A                      A
 Frequencies --   3146.7585              3155.3709              3209.3758
 Red. masses --      1.1013                 1.0888                 1.0891
 Frc consts  --      6.4252                 6.3873                 6.6094
 IR Inten    --     16.9318                13.8085                 9.7326

                    103                    104                    105
                      A                      A                      A
 Frequencies --   3217.1662              3235.3071              3575.9046
 Red. masses --      1.0898                 1.0918                 1.0757
 Frc consts  --      6.6460                 6.7331                 8.1042
 IR Inten    --      4.5936                 7.2251                13.2305

 - Thermochemistry -
 -------------------
 Temperature   298.150 Kelvin.  Pressure   1.00000 Atm.
 Atom     1 has atomic number  6 and mass  12.00000

 Molecular mass:   262.13174 amu.
 Principal axes and moments of inertia in atomic units:
                           1         2         3
     Eigenvalues --  2047.073939759.51953**********
           X            0.99991  -0.01294  -0.00363
           Y            0.01293   0.99991  -0.00381
           Z            0.00367   0.00376   0.99999
 This molecule is an asymmetric top.
 Rotational symmetry number  1.
 Warning -- assumption of classical behavior for rotation
           may cause significant error
 Rotational temperatures (Kelvin)      0.04231     0.00887     0.00769
 Rotational constants (GHZ):           0.88162     0.18492     0.16033
 Zero-point vibrational energy     817531.9 (Joules/Mol)
                                  195.39481 (Kcal/Mol)
 Warning -- explicit consideration of  28 degrees of freedom as
           vibrations may cause significant error
 Vibrational temperatures:     46.00    60.19   100.29   120.52   151.19
          (Kelvin)            209.84   221.58   295.42   341.71   347.08
                              360.05   396.76   444.70   466.65   476.98
                              498.61   558.35   584.85   629.94   659.37
                              670.14   689.94   707.63   744.76   775.00
                              797.38   812.13   873.65   926.07   942.21
                              970.47  1011.03  1092.62  1121.80  1165.99
                             1204.29  1234.40  1269.44  1299.16  1324.14
                             1325.23  1356.56  1370.21  1389.22  1445.77
                             1457.94  1470.42  1497.48  1534.85  1567.92
                             1585.44  1638.42  1677.30  1714.51  1743.34
                             1754.08  1778.15  1802.84  1826.92  1840.51
                             1861.63  1878.39  1894.03  1917.95  1937.62
                             1971.13  1998.58  2022.93  2032.97  2047.77
                             2051.08  2056.55  2081.38  2120.87  2143.49
                             2168.98  2177.70  2179.57  2190.69  2196.12
                             2198.52  2205.72  2215.99  2245.70  2355.13
                             2422.13  2588.11  4234.93  4253.64  4364.50
                             4381.87  4386.29  4394.08  4479.25  4488.24
                             4501.76  4503.61  4504.20  4506.95  4527.48
                             4539.88  4617.58  4628.78  4654.89  5144.93

 Zero-point correction=                           0.311381 (Hartree/Particle)
 Thermal correction to Energy=                    0.328113
 Thermal correction to Enthalpy=                  0.329057
 Thermal correction to Gibbs Free Energy=         0.266853
 Sum of electronic and zero-point Energies=           -879.262095
 Sum of electronic and thermal Energies=              -879.245363
 Sum of electronic and thermal Enthalpies=            -879.244419
 Sum of electronic and thermal Free Energies=         -879.306623

                     E (Thermal)             CV                S
                      KCal/Mol        Cal/Mol-Kelvin    Cal/Mol-Kelvin
 Total                  205.894             66.617            130.920
 Electronic               0.000              0.000              0.000
 Translational            0.889              2.981             42.591
 Rotational               0.889              2.981             33.774
 Vibrational            204.117             60.656             54.555
 Vibration     1          0.594              1.983              5.703
 Vibration     2          0.594              1.980              5.170
 Vibration     3          0.598              1.969              4.162
 Vibration     4          0.601              1.960              3.801
 Vibration     5          0.605              1.945              3.358
 Vibration     6          0.617              1.907              2.726
 Vibration     7          0.620              1.898              2.622
 Vibration     8          0.640              1.832              2.085
 Vibration     9          0.656              1.783              1.822
 Vibration    10          0.658              1.777              1.794
 Vibration    11          0.663              1.762              1.729
 Vibration    12          0.677              1.718              1.560
 Vibration    13          0.698              1.656              1.367
 Vibration    14          0.709              1.627              1.288
 Vibration    15          0.714              1.613              1.253
 Vibration    16          0.725              1.582              1.182
 Vibration    17          0.756              1.496              1.008
 Vibration    18          0.771              1.456              0.939
 Vibration    19          0.798              1.388              0.833
 Vibration    20          0.816              1.343              0.771
 Vibration    21          0.823              1.326              0.749
 Vibration    22          0.836              1.295              0.711
 Vibration    23          0.848              1.268              0.679
 Vibration    24          0.873              1.211              0.615
 Vibration    25          0.894              1.165              0.568
 Vibration    26          0.910              1.130              0.536
 Vibration    27          0.920              1.108              0.515
 Vibration    28          0.966              1.017              0.437

 Optimization completed.
    -- Stationary point found.
 Normal termination of Gaussian 16 at Mon Dec 14 17:04:16 2020.

 ----------------------------------------------------------------------
 # B3LYP/6-311++G(d,p) empiricaldispersion=gd3bj scf=xqc pop=npa geom=c
 heck
 ----------------------------------------------------------------------

 ---------------------------------------
 CID_117024003_JID_9054_Energie_neutraal
 ---------------------------------------
 Structure from the checkpoint file:  "JID_9054.chk"
 Charge =  0 Multiplicity = 1

 SCF Done:  E(RB3LYP) =  -879.817784602     A.U. after   15 cycles
 Normal termination of Gaussian 16 at Mon Dec 14 17:13:11 2020.

 ----------------------------------------------------------------------
 # B3LYP/6-311++G(d,p) empiricaldispersion=gd3bj scf=xqc pop=npa geom=c
 heck
 ----------------------------------------------------------------------

 -------------------------------------
 CID_117024003_JID_9054_Energie_kation
 -------------------------------------
 Structure from the checkpoint file:  "JID_9054.chk"
 Charge =  1 Multiplicity = 2

 SCF Done:  E(UB3LYP) =  -879.556740899     A.U. after   24 cycles
 Normal termination of Gaussian 16 at Mon Dec 14 17:33:02 2020.
 Gaussian 16:  ES64L-G16RevA.03 25-Dec-2016

 ----------------------------------------------------------------------
 # B3LYP/6-311++G(d,p) empiricaldispersion=gd3bj scf=xqc pop=npa geom=c
 heck
 ----------------------------------------------------------------------

 ------------------------------------
 CID_117024003_JID_9054_Energie_anion
 ------------------------------------
 Structure from the checkpoint file:  "JID_9054.chk"
 Charge = -1 Multiplicity = 2

                         Standard orientation:
 ---------------------------------------------------------------------
 Center     Atomic      Atomic             Coordinates (Angstroms)
 Number     Number       Type             X           Y           Z
 ---------------------------------------------------------------------
      1          6           0        2.743110   -1.876129    1.224486
      2          6           0        3.074314   -1.179195   -0.104591
      3          6           0        1.790790   -0.702045   -0.795339
      4          7           0        1.172626    0.365494   -0.019986
      5          6           0        1.989854    1.564702   -0.029957
      6          6           0        3.459951    1.298000    0.282438
      7          8           0        4.205765    2.217749    0.591737
      8          7           0        3.896686    0.013279    0.140915
      9          6           0       -0.229906    0.522337   -0.096048
     10          6           0       -1.058550   -0.590348    0.120653
     11          6           0       -2.442302   -0.470519    0.076941
     12          6           0       -3.038895    0.782181   -0.148233
     13          6           0       -2.222926    1.887972   -0.353797
     14          6           0       -0.833767    1.766075   -0.343625
     15          8           0       -4.406835    0.944800   -0.173421
     16          6           0       -5.108924   -0.134929    0.435761
     17          6           0       -4.565157   -1.460425   -0.071022
     18          8           0       -3.192071   -1.601958    0.291777
     19          6           0        3.848462   -2.118836   -1.035282
     20          1           0        2.186213   -2.804267    1.049779
     21          1           0        2.137343   -1.215972    1.850647
     22          1           0        3.661499   -2.128579    1.765821
     23          1           0        2.031817   -0.355995   -1.817377
     24          1           0        1.101290   -1.540971   -0.887585
     25          1           0        1.633016    2.265846    0.727527
     26          1           0        1.963605    2.092138   -1.002839
     27          1           0        4.865006   -0.122962    0.409443
     28          1           0       -0.643133   -1.565561    0.349322
     29          1           0       -2.694154    2.849579   -0.530946
     30          1           0       -0.231471    2.646286   -0.530517
     31          1           0       -6.161688   -0.009750    0.170437
     32          1           0       -5.002989   -0.082843    1.528561
     33          1           0       -5.090375   -2.306920    0.378456
     34          1           0       -4.667964   -1.510529   -1.163712
     35          1           0        4.783468   -2.445506   -0.565071
     36          1           0        3.257724   -3.014356   -1.256072
     37          1           0        4.094405   -1.618832   -1.977438
 ---------------------------------------------------------------------

 SCF Done:  E(UB3LYP) =  -879.808942611     A.U. after   33 cycles
 SCF Done:  E(UB3LYP) =  -879.808942612     a.u. after    1 cycles

 The electronic state is 2-A.
 Alpha  occ. eigenvalues --  -19.07283 -19.07113 -19.00458 -14.25367 -14.24752
 Alpha  occ. eigenvalues --  -10.19316 -10.15244 -10.14757 -10.14698 -10.14572
 Alpha  occ. eigenvalues --  -10.14555 -10.13180 -10.13013 -10.12507 -10.09447
 Alpha  occ. eigenvalues --  -10.08939 -10.08740 -10.08197 -10.07715  -1.00670
 Alpha  occ. eigenvalues --   -0.97096  -0.95794  -0.88221  -0.84062  -0.77161
 Alpha  occ. eigenvalues --   -0.71906  -0.69570  -0.67880  -0.64470  -0.63883
 Alpha  occ. eigenvalues --   -0.61328  -0.60006  -0.57437  -0.53915  -0.52743
 Alpha  occ. eigenvalues --   -0.49258  -0.48078  -0.46488  -0.44581  -0.43911
 Alpha  occ. eigenvalues --   -0.42475  -0.40560  -0.40048  -0.38520  -0.37715
 Alpha  occ. eigenvalues --   -0.36580  -0.35975  -0.35808  -0.35556  -0.35044
 Alpha  occ. eigenvalues --   -0.33539  -0.32884  -0.32227  -0.31697  -0.31514
 Alpha  occ. eigenvalues --   -0.30863  -0.30297  -0.29610  -0.29293  -0.28329
 Alpha  occ. eigenvalues --   -0.27052  -0.26517  -0.25388  -0.24514  -0.22526
 Alpha  occ. eigenvalues --   -0.18923  -0.17542  -0.17449  -0.14985  -0.11519
 Alpha  occ. eigenvalues --    0.03609
 Alpha virt. eigenvalues --    0.04731   0.06350   0.06838   0.07193   0.07407
 Alpha virt. eigenvalues --    0.07967   0.08060   0.08654   0.08871   0.09285
 Alpha virt. eigenvalues --    0.09620   0.09966   0.10080   0.10442   0.11050

  Beta  occ. eigenvalues --  -19.07283 -19.07111 -19.00454 -14.25350 -14.24747
  Beta  occ. eigenvalues --  -10.19315 -10.15238 -10.14728 -10.14666 -10.14570
  Beta  occ. eigenvalues --  -10.14554 -10.13182 -10.13007 -10.12493 -10.09444
  Beta  occ. eigenvalues --  -10.08935 -10.08725 -10.08147 -10.07684  -1.00660
  Beta  occ. eigenvalues --   -0.97089  -0.95786  -0.88210  -0.84043  -0.77147
  Beta  occ. eigenvalues --   -0.71882  -0.69538  -0.67862  -0.64445  -0.63853
  Beta  occ. eigenvalues --   -0.61260  -0.59974  -0.57393  -0.53882  -0.52708
  Beta  occ. eigenvalues --   -0.49217  -0.48040  -0.46471  -0.44559  -0.43886
  Beta  occ. eigenvalues --   -0.42453  -0.40532  -0.40024  -0.38489  -0.37676
  Beta  occ. eigenvalues --   -0.36549  -0.35944  -0.35778  -0.35538  -0.35008
  Beta  occ. eigenvalues --   -0.33518  -0.32866  -0.32194  -0.31680  -0.31492
  Beta  occ. eigenvalues --   -0.30833  -0.30255  -0.29580  -0.29264  -0.28313
  Beta  occ. eigenvalues --   -0.27017  -0.26491  -0.25364  -0.24494  -0.22502
  Beta  occ. eigenvalues --   -0.18908  -0.17528  -0.17433  -0.14949  -0.11499
  Beta virt. eigenvalues --    0.05718   0.06172   0.06478   0.06947   0.07613
  Beta virt. eigenvalues --    0.08023   0.08380   0.08504   0.09078   0.09243
  Beta virt. eigenvalues --    0.09443   0.09744   0.10187   0.10286   0.10687

 Mulliken charges and spin densities:
               1          2
     1  C    0.646583  -1.145954
     2  C   -1.504378   1.676337
     3  C    0.199956  -1.074213
     4  N    0.459052   0.061208
     5  C   -0.156877  -0.015217
     6  C    0.105751  -0.132798
     7  O   -0.343085   0.003453
     8  N   -0.105096  -0.044443
     9  C    0.530831  -0.757790
    10  C   -0.499952   0.185983
    11  C    0.242315   0.064147
    12  C   -0.281321  -0.020477
    13  C   -0.067192  -0.030095
    14  C    0.122921  -0.139449
    15  O   -0.189193   0.048885
    16  C    0.243235  -0.494157
    17  C    0.417439  -0.667060
    18  O   -0.166273   0.055606
    19  C    0.624516  -1.147770
    20  H    0.012957   0.137039
    21  H    0.075757   0.097000
    22  H   -0.201348   0.376444
    23  H    0.095621   0.080189
    24  H    0.162883  -0.017239
    25  H    0.153324   0.039391
    26  H    0.125143   0.063286
    27  H    0.164514   0.156361
    28  H   -0.082055   0.309214
    29  H    0.073739   0.113431
    30  H    0.149127  -0.000443
    31  H   -0.697439   0.900286
    32  H    0.179330  -0.018317
    33  H   -0.682949   0.881839
    34  H    0.119553   0.048677
    35  H   -0.494616   0.647985
    36  H   -0.265931   0.427698
    37  H   -0.166841   0.330961
 Sum of Mulliken charges =  -1.00000   1.00000

 Dipole moment (field-independent basis, Debye):
    X=              0.0834    Y=              3.9398    Z=             -0.7548  Tot=              4.0123
 Quadrupole moment (field-independent basis, Debye-Ang):
   XX=           -258.7597   YY=           -165.2478   ZZ=           -141.7766
   XY=             -7.2524   XZ=              0.0499   YZ=             -1.1454

 Summary of Natural Population Analysis:

                                       Natural Population
                Natural  -----------------------------------------------
    Atom  No    Charge         Core      Valence    Rydberg      Total
 -----------------------------------------------------------------------
      C    1   -0.28909      0.99961     2.28246    0.00702     3.28909
      C    2    0.05463      0.99957     1.93249    0.01331     2.94537
      C    3   -0.08309      0.99955     2.07161    0.01192     3.08309
      N    4   -0.26501      0.99965     2.75472    0.01064     3.76501
      C    5   -0.12660      0.99958     2.11700    0.01002     3.12660
      C    6    0.34518      0.99967     1.63354    0.02162     2.65482
      O    7   -0.32622      0.99988     3.32041    0.00593     4.32622
      N    8   -0.32167      0.99964     2.81067    0.01136     3.82167
      C    9    0.08730      0.99949     1.90205    0.01116     2.91270
      C   10   -0.14566      0.99953     2.12933    0.01681     3.14566
      C   11    0.17652      0.99935     1.81465    0.00948     2.82348
      C   12    0.10054      0.99936     1.88511    0.01500     2.89946
      C   13   -0.10808      0.99954     2.09919    0.00935     3.10808
      C   14   -0.13266      0.99953     2.12555    0.00758     3.13266
      O   15   -0.27622      0.99987     3.26770    0.00865     4.27622
      C   16   -0.02589      0.99958     2.01284    0.01347     3.02589
      C   17   -0.02452      0.99958     2.01205    0.01289     3.02452
      O   18   -0.27990      0.99987     3.26716    0.01287     4.27990
      C   19   -0.28721      0.99962     2.28016    0.00743     3.28721
      H   20    0.10206      0.00000     0.39684    0.00110     0.39794
      H   21    0.10736      0.00000     0.39138    0.00125     0.39264
      H   22    0.10294      0.00000     0.39595    0.00110     0.39706
      H   23    0.09034      0.00000     0.40831    0.00135     0.40966
      H   24    0.10936      0.00000     0.38906    0.00159     0.39064
      H   25    0.11337      0.00000     0.38517    0.00146     0.38663
      H   26    0.09644      0.00000     0.40176    0.00180     0.40356
      H   27    0.19802      0.00000     0.29965    0.00233     0.30198
      H   28    0.10984      0.00000     0.38845    0.00171     0.39016
      H   29    0.10563      0.00000     0.39338    0.00099     0.39437
      H   30    0.10362      0.00000     0.39545    0.00094     0.39638
      H   31    0.10046      0.00000     0.39715    0.00239     0.39954
      H   32    0.08564      0.00000     0.41287    0.00149     0.41436
      H   33    0.10099      0.00000     0.39635    0.00266     0.39901
      H   34    0.08648      0.00000     0.41198    0.00153     0.41352
      H   35    0.10542      0.00000     0.39258    0.00200     0.39458
      H   36    0.10589      0.00000     0.39267    0.00145     0.39411
      H   37    0.10393      0.00000     0.39479    0.00128     0.39607
 =======================================================================
   * Total *    0.00013     18.99245    50.76247    0.24494    69.99987

 Normal termination of Gaussian 16 at Mon Dec 14 18:01:37 2020.
