 Gaussian 16, Revision A.03,

 -----------------------------------------------------------
 # opt freq B3LYP/6-31G(d) empiricaldispersion=gd3bj scf=xqc
 -----------------------------------------------------------

 -------------------------------
 CID_142372894_JID_7333_neutraal
 -------------------------------
 Symbolic Z-matrix:
 Charge =  0 Multiplicity = 1

 SCF Done:  E(RB3LYP) =  -695.844781088     A.U. after   13 cycles
 SCF Done:  E(RB3LYP) =  -695.846953367     A.U. after   11 cycles
 SCF Done:  E(RB3LYP) =  -695.847159696     A.U. after   11 cycles
 SCF Done:  E(RB3LYP) =  -695.847243375     A.U. after   11 cycles
 SCF Done:  E(RB3LYP) =  -695.847280536     A.U. after   10 cycles
 SCF Done:  E(RB3LYP) =  -695.847312438     A.U. after   10 cycles
 SCF Done:  E(RB3LYP) =  -695.847358216     A.U. after   11 cycles
 SCF Done:  E(RB3LYP) =  -695.847384303     A.U. after    9 cycles
 SCF Done:  E(RB3LYP) =  -695.847392757     A.U. after    9 cycles
 SCF Done:  E(RB3LYP) =  -695.847394939     A.U. after    9 cycles
 SCF Done:  E(RB3LYP) =  -695.847399983     A.U. after    7 cycles
 SCF Done:  E(RB3LYP) =  -695.847400028     A.U. after    7 cycles
 SCF Done:  E(RB3LYP) =  -695.847400071     A.U. after    6 cycles
 SCF Done:  E(RB3LYP) =  -695.847400081     A.U. after    6 cycles
 Optimization completed.
    -- Stationary point found.
 Normal termination of Gaussian 16 at Fri Dec 11 12:13:39 2020.

 --------------------------------------------------------------------
 #N Geom=AllCheck Guess=TCheck SCRF=Check GenChk RB3LYP/6-31G(d) Freq
 --------------------------------------------------------------------

 Structure from the checkpoint file:  "JID_7333.chk"
 -------------------------------
 CID_142372894_JID_7333_neutraal
 -------------------------------
 Charge =  0 Multiplicity = 1

 SCF Done:  E(RB3LYP) =  -695.847400081     A.U. after    1 cycles

  Exact polarizability: 229.698  19.232 141.119   6.262   1.642 128.184
 Approx polarizability: 309.343  28.482 230.754  12.341   4.145 212.167

                      1                      2                      3
                      A                      A                      A
 Frequencies --     15.0033                22.7429                35.8374
 Red. masses --      3.0970                 1.0920                 3.9051
 Frc consts  --      0.0004                 0.0003                 0.0030
 IR Inten    --      0.0351                 0.2616                 0.1162

                      4                      5                      6
                      A                      A                      A
 Frequencies --     53.7768                59.6357               115.4020
 Red. masses --      4.2137                 2.8994                 1.0608
 Frc consts  --      0.0072                 0.0061                 0.0083
 IR Inten    --      0.1230                 0.0417                 0.1311

                      7                      8                      9
                      A                      A                      A
 Frequencies --    145.0119               155.8274               206.4779
 Red. masses --      2.8378                 4.9195                 3.7451
 Frc consts  --      0.0352                 0.0704                 0.0941
 IR Inten    --      0.0202                 0.0432                 0.9362

                     10                     11                     12
                      A                      A                      A
 Frequencies --    219.0926               223.5579               275.2110
 Red. masses --      3.4599                 3.2137                 2.8273
 Frc consts  --      0.0979                 0.0946                 0.1262
 IR Inten    --      1.0414                 2.6752                14.5358

                     13                     14                     15
                      A                      A                      A
 Frequencies --    292.6029               338.7573               348.1498
 Red. masses --      2.5403                 3.1981                 3.4836
 Frc consts  --      0.1281                 0.2162                 0.2488
 IR Inten    --      5.7210                 0.4911                17.8184

                     16                     17                     18
                      A                      A                      A
 Frequencies --    348.6799               412.1638               450.1720
 Red. masses --      1.2697                 2.4394                 3.0104
 Frc consts  --      0.0909                 0.2442                 0.3594
 IR Inten    --     85.3766                 0.2197                 3.3053

                     19                     20                     21
                      A                      A                      A
 Frequencies --    481.4237               510.8929               525.4271
 Red. masses --      4.1294                 3.3076                 5.0863
 Frc consts  --      0.5639                 0.5087                 0.8273
 IR Inten    --      0.8637                 0.0464                 4.1541

                     22                     23                     24
                      A                      A                      A
 Frequencies --    536.8551               546.7213               568.3629
 Red. masses --      4.8002                 5.5305                 3.9664
 Frc consts  --      0.8151                 0.9740                 0.7549
 IR Inten    --      2.9490                 0.4590                 1.3661

                     25                     26                     27
                      A                      A                      A
 Frequencies --    575.7303               620.7508               709.8721
 Red. masses --      3.4991                 5.0878                 3.4124
 Frc consts  --      0.6834                 1.1551                 1.0131
 IR Inten    --      0.0051                 0.8755                 2.2382

                     28                     29                     30
                      A                      A                      A
 Frequencies --    716.6200               726.4221               761.7452
 Red. masses --      2.4596                 3.2552                 1.3182
 Frc consts  --      0.7442                 1.0121                 0.4507
 IR Inten    --      4.5585                 7.0684                25.9031

                     31                     32                     33
                      A                      A                      A
 Frequencies --    773.4484               798.3486               806.6815
 Red. masses --      2.5795                 1.5457                 1.8896
 Frc consts  --      0.9092                 0.5804                 0.7245
 IR Inten    --     11.8060                14.3939                14.8508

                     34                     35                     36
                      A                      A                      A
 Frequencies --    828.0151               859.6205               900.3986
 Red. masses --      4.1788                 1.3554                 1.3173
 Frc consts  --      1.6880                 0.5901                 0.6292
 IR Inten    --      3.7911                 0.0024                 0.6777

                     37                     38                     39
                      A                      A                      A
 Frequencies --    910.4093               931.7492               945.2081
 Red. masses --      1.5303                 2.4104                 1.4390
 Frc consts  --      0.7473                 1.2329                 0.7575
 IR Inten    --      1.0775                21.8543                 0.7249

                     40                     41                     42
                      A                      A                      A
 Frequencies --    948.6469               973.0725              1021.9157
 Red. masses --      2.0691                 1.2771                 5.7220
 Frc consts  --      1.0971                 0.7125                 3.5207
 IR Inten    --      1.6418                 0.2339                 0.6018

                     43                     44                     45
                      A                      A                      A
 Frequencies --   1023.7369              1040.6654              1053.1106
 Red. masses --      1.5523                 2.5428                 1.6598
 Frc consts  --      0.9585                 1.6225                 1.0846
 IR Inten    --      1.8087                22.0760                 2.5638

                     46                     47                     48
                      A                      A                      A
 Frequencies --   1073.6283              1075.7054              1098.5032
 Red. masses --      1.5435                 1.5246                 2.1493
 Frc consts  --      1.0483                 1.0395                 1.5281
 IR Inten    --      0.9200                 7.2635                62.5681

                     49                     50                     51
                      A                      A                      A
 Frequencies --   1119.5652              1130.4682              1192.2133
 Red. masses --      2.2940                 1.5920                 1.5558
 Frc consts  --      1.6941                 1.1987                 1.3029
 IR Inten    --      4.5676                 2.9238                 0.7618

                     52                     53                     54
                      A                      A                      A
 Frequencies --   1194.7513              1197.6671              1207.7394
 Red. masses --      1.5111                 1.2008                 1.3367
 Frc consts  --      1.2709                 1.0148                 1.1488
 IR Inten    --     30.5635                 0.6394                 1.8362

                     55                     56                     57
                      A                      A                      A
 Frequencies --   1210.2825              1247.9077              1280.1795
 Red. masses --      1.1923                 2.0591                 2.2401
 Frc consts  --      1.0290                 1.8893                 2.1630
 IR Inten    --      0.7016                17.3352                 0.7546

                     58                     59                     60
                      A                      A                      A
 Frequencies --   1300.3781              1310.9871              1327.5799
 Red. masses --      2.2031                 2.0536                 2.3194
 Frc consts  --      2.1949                 2.0796                 2.4085
 IR Inten    --     31.6830                 2.5058               132.0369

                     61                     62                     63
                      A                      A                      A
 Frequencies --   1329.5457              1356.1127              1364.9138
 Red. masses --      1.2988                 1.2813                 3.5539
 Frc consts  --      1.3527                 1.3883                 3.9009
 IR Inten    --      1.6914                 0.2293                 0.0985

                     64                     65                     66
                      A                      A                      A
 Frequencies --   1370.8062              1408.2647              1442.4057
 Red. masses --      3.3712                 1.6645                 1.2490
 Frc consts  --      3.7324                 1.9449                 1.5310
 IR Inten    --     16.2944                21.6820                 0.1379

                     67                     68                     69
                      A                      A                      A
 Frequencies --   1443.3700              1483.0644              1498.0414
 Red. masses --      1.2410                 2.2132                 1.2064
 Frc consts  --      1.5233                 2.8680                 1.5951
 IR Inten    --      1.0140                 1.5428                 5.5411

                     70                     71                     72
                      A                      A                      A
 Frequencies --   1513.8060              1517.9948              1526.1895
 Red. masses --      1.3777                 1.0504                 1.3116
 Frc consts  --      1.8602                 1.4261                 1.8000
 IR Inten    --     18.9162                 4.6639                 9.1255

                     73                     74                     75
                      A                      A                      A
 Frequencies --   1528.0854              1528.4240              1532.2529
 Red. masses --      1.2941                 1.0647                 1.3514
 Frc consts  --      1.7804                 1.4655                 1.8694
 IR Inten    --     43.2859                11.9702                11.7444

                     76                     77                     78
                      A                      A                      A
 Frequencies --   1537.5619              1545.3822              1647.6311
 Red. masses --      2.2847                 2.0563                 6.0325
 Frc consts  --      3.1823                 2.8934                 9.6486
 IR Inten    --      4.6839                15.5519                43.7858

                     79                     80                     81
                      A                      A                      A
 Frequencies --   1650.9171              1670.6580              1673.2347
 Red. masses --      5.4853                 5.7774                 5.9349
 Frc consts  --      8.8085                 9.5008                 9.7898
 IR Inten    --      8.4396                33.6257                 5.0981

                     82                     83                     84
                      A                      A                      A
 Frequencies --   3024.1504              3041.4658              3041.8057
 Red. masses --      1.0599                 1.0402                 1.0424
 Frc consts  --      5.7109                 5.6692                 5.6828
 IR Inten    --     10.3686                31.7972                28.0543

                     85                     86                     87
                      A                      A                      A
 Frequencies --   3047.9235              3048.1965              3084.2574
 Red. masses --      1.0888                 1.0699                 1.1001
 Frc consts  --      5.9595                 5.8573                 6.1658
 IR Inten    --     15.5213                29.1510                20.8097

                     88                     89                     90
                      A                      A                      A
 Frequencies --   3091.7051              3097.8803              3125.1051
 Red. masses --      1.1050                 1.0962                 1.1025
 Frc consts  --      6.2233                 6.1982                 6.3437
 IR Inten    --     22.7575                22.6318                16.5601

                     91                     92                     93
                      A                      A                      A
 Frequencies --   3163.3472              3163.8270              3170.5590
 Red. masses --      1.0885                 1.0895                 1.0953
 Frc consts  --      6.4174                 6.4257                 6.4870
 IR Inten    --     18.4928                20.2587                10.0817

                     94                     95                     96
                      A                      A                      A
 Frequencies --   3172.9499              3180.6391              3195.3698
 Red. masses --      1.0856                 1.0905                 1.0909
 Frc consts  --      6.4397                 6.4996                 6.5626
 IR Inten    --      0.3431                29.0011                23.3317

                     97                     98                     99
                      A                      A                      A
 Frequencies --   3200.0860              3222.4078              3759.0002
 Red. masses --      1.0963                 1.0923                 1.0659
 Frc consts  --      6.6144                 6.6827                 8.8741
 IR Inten    --     28.7618                15.5625                41.2519

 - Thermochemistry -
 -------------------
 Temperature   298.150 Kelvin.  Pressure   1.00000 Atm.
 Atom     1 has atomic number  6 and mass  12.00000

 Molecular mass:   226.13577 amu.
 Principal axes and moments of inertia in atomic units:
                           1         2         3
     Eigenvalues --  1554.54745********************
           X            0.99997   0.00484  -0.00516
           Y           -0.00488   0.99996  -0.00730
           Z            0.00513   0.00733   0.99996
 This molecule is an asymmetric top.
 Rotational symmetry number  1.
 Warning -- assumption of classical behavior for rotation
           may cause significant error
 Rotational temperatures (Kelvin)      0.05572     0.00850     0.00821
 Rotational constants (GHZ):           1.16094     0.17708     0.17105
 Zero-point vibrational energy     784635.7 (Joules/Mol)
                                  187.53244 (Kcal/Mol)
 Warning -- explicit consideration of  26 degrees of freedom as
           vibrations may cause significant error
 Vibrational temperatures:     21.59    32.72    51.56    77.37    85.80
          (Kelvin)            166.04   208.64   224.20   297.08   315.23
                              321.65   395.97   420.99   487.40   500.91
                              501.67   593.01   647.70   692.66   735.06
                              755.97   772.41   786.61   817.75   828.35
                              893.12  1021.35  1031.06  1045.16  1095.98
                             1112.82  1148.65  1160.63  1191.33  1236.80
                             1295.47  1309.88  1340.58  1359.94  1364.89
                             1400.03  1470.31  1472.93  1497.29  1515.19
                             1544.71  1547.70  1580.50  1610.80  1626.49
                             1715.33  1718.98  1723.18  1737.67  1741.33
                             1795.46  1841.89  1870.95  1886.22  1910.09
                             1912.92  1951.14  1963.81  1972.28  2026.18
                             2075.30  2076.69  2133.80  2155.35  2178.03
                             2184.06  2195.85  2198.57  2199.06  2204.57
                             2212.21  2223.46  2370.57  2375.30  2403.70
                             2407.41  4351.08  4375.99  4376.48  4385.28
                             4385.67  4437.56  4448.27  4457.16  4496.33
                             4551.35  4552.04  4561.73  4565.17  4576.23
                             4597.42  4604.21  4636.33  5408.36

 Zero-point correction=                           0.298852 (Hartree/Particle)
 Thermal correction to Energy=                    0.315261
 Thermal correction to Enthalpy=                  0.316205
 Thermal correction to Gibbs Free Energy=         0.251983
 Sum of electronic and zero-point Energies=           -695.548548
 Sum of electronic and thermal Energies=              -695.532139
 Sum of electronic and thermal Enthalpies=            -695.531195
 Sum of electronic and thermal Free Energies=         -695.595417

                     E (Thermal)             CV                S
                      KCal/Mol        Cal/Mol-Kelvin    Cal/Mol-Kelvin
 Total                  197.829             62.399            135.167
 Electronic               0.000              0.000              0.000
 Translational            0.889              2.981             42.150
 Rotational               0.889              2.981             33.480
 Vibrational            196.052             56.437             59.536
 Vibration     1          0.593              1.986              7.205
 Vibration     2          0.593              1.985              6.379
 Vibration     3          0.594              1.982              5.477
 Vibration     4          0.596              1.976              4.673
 Vibration     5          0.597              1.974              4.469
 Vibration     6          0.608              1.937              3.176
 Vibration     7          0.616              1.908              2.737
 Vibration     8          0.620              1.896              2.600
 Vibration     9          0.641              1.831              2.075
 Vibration    10          0.647              1.812              1.967
 Vibration    11          0.649              1.805              1.930
 Vibration    12          0.677              1.719              1.563
 Vibration    13          0.688              1.688              1.459
 Vibration    14          0.719              1.598              1.218
 Vibration    15          0.726              1.579              1.175
 Vibration    16          0.726              1.578              1.172
 Vibration    17          0.776              1.444              0.919
 Vibration    18          0.809              1.361              0.795
 Vibration    19          0.838              1.291              0.706
 Vibration    20          0.866              1.226              0.631
 Vibration    21          0.880              1.194              0.598
 Vibration    22          0.892              1.169              0.572
 Vibration    23          0.902              1.147              0.551
 Vibration    24          0.924              1.100              0.507
 Vibration    25          0.932              1.084              0.493
 Vibration    26          0.981              0.988              0.415

 Optimization completed.
    -- Stationary point found.
 Normal termination of Gaussian 16 at Fri Dec 11 12:26:15 2020.

 ----------------------------------------------------------------------
 # B3LYP/6-311++G(d,p) empiricaldispersion=gd3bj scf=xqc pop=npa geom=c
 heck
 ----------------------------------------------------------------------

 ---------------------------------------
 CID_142372894_JID_7333_Energie_neutraal
 ---------------------------------------
 Structure from the checkpoint file:  "JID_7333.chk"
 Charge =  0 Multiplicity = 1

 SCF Done:  E(RB3LYP) =  -696.036631004     A.U. after   15 cycles
 Normal termination of Gaussian 16 at Fri Dec 11 12:32:50 2020.

 ----------------------------------------------------------------------
 # B3LYP/6-311++G(d,p) empiricaldispersion=gd3bj scf=xqc pop=npa geom=c
 heck
 ----------------------------------------------------------------------

 -------------------------------------
 CID_142372894_JID_7333_Energie_kation
 -------------------------------------
 Structure from the checkpoint file:  "JID_7333.chk"
 Charge =  1 Multiplicity = 2

 SCF Done:  E(UB3LYP) =  -695.751023937     A.U. after   33 cycles
 SCF Done:  E(UB3LYP) =  -695.751023937     a.u. after    1 cycles
 Normal termination of Gaussian 16 at Fri Dec 11 12:56:39 2020.
 Gaussian 16:  ES64L-G16RevA.03 25-Dec-2016

 ----------------------------------------------------------------------
 # B3LYP/6-311++G(d,p) empiricaldispersion=gd3bj scf=xqc pop=npa geom=c
 heck
 ----------------------------------------------------------------------

 ------------------------------------
 CID_142372894_JID_7333_Energie_anion
 ------------------------------------
 Structure from the checkpoint file:  "JID_7333.chk"
 Charge = -1 Multiplicity = 2

                         Standard orientation:
 ---------------------------------------------------------------------
 Center     Atomic      Atomic             Coordinates (Angstroms)
 Number     Number       Type             X           Y           Z
 ---------------------------------------------------------------------
      1          6           0        4.976711    0.936953   -1.810865
      2          6           0        4.195171    0.351597   -0.659348
      3          6           0        2.893828   -0.125239   -0.844896
      4          6           0        2.140927   -0.649874    0.211575
      5          6           0        2.716723   -0.695880    1.485428
      6          6           0        4.014784   -0.228602    1.689738
      7          6           0        4.749507    0.290704    0.625297
      8          6           0        0.718812   -1.107512   -0.012005
      9          6           0       -0.275781    0.048837    0.178782
     10          6           0       -1.741282   -0.283479   -0.019853
     11          6           0       -2.690459    0.746031    0.142185
     12          6           0       -4.048114    0.442434   -0.040968
     13          6           0       -4.464457   -0.848698   -0.376828
     14          6           0       -3.517539   -1.854612   -0.533429
     15          6           0       -2.163907   -1.574706   -0.356269
     16          8           0       -4.955014    1.461380    0.121848
     17          6           0       -2.270969    2.149104    0.504597
     18          1           0        4.595994    0.582285   -2.774032
     19          1           0        4.913090    2.033134   -1.817013
     20          1           0        6.038666    0.675506   -1.748369
     21          1           0        2.454029   -0.092013   -1.840342
     22          1           0        2.147524   -1.105862    2.316506
     23          1           0        4.458053   -0.276646    2.680847
     24          1           0        5.763633    0.647670    0.788783
     25          1           0        0.615397   -1.515931   -1.024462
     26          1           0        0.476411   -1.918259    0.685378
     27          1           0        0.007819    0.862705   -0.503325
     28          1           0       -0.130630    0.465082    1.185641
     29          1           0       -5.523991   -1.058068   -0.513273
     30          1           0       -3.836696   -2.859686   -0.794409
     31          1           0       -1.438282   -2.369961   -0.482016
     32          1           0       -5.843591    1.107369   -0.033692
     33          1           0       -1.593714    2.571072   -0.248806
     34          1           0       -3.135873    2.807401    0.588989
     35          1           0       -1.731452    2.170816    1.459949
 ---------------------------------------------------------------------

 SCF Done:  E(UB3LYP) =  -696.024998336     A.U. after   33 cycles
 SCF Done:  E(UB3LYP) =  -696.024998336     a.u. after    1 cycles

 The electronic state is 2-A.
 Alpha  occ. eigenvalues --  -19.05566 -10.14100 -10.09984 -10.09765 -10.09314
 Alpha  occ. eigenvalues --  -10.09125 -10.09045 -10.08946 -10.08729 -10.08704
 Alpha  occ. eigenvalues --  -10.08550 -10.08542 -10.08461 -10.08361 -10.07818
 Alpha  occ. eigenvalues --  -10.07583 -10.07555  -0.96615  -0.77997  -0.76918
 Alpha  occ. eigenvalues --   -0.71692  -0.69015  -0.68183  -0.66374  -0.62515
 Alpha  occ. eigenvalues --   -0.60317  -0.59533  -0.56535  -0.51961  -0.51043
 Alpha  occ. eigenvalues --   -0.49850  -0.48233  -0.43526  -0.42260  -0.40350
 Alpha  occ. eigenvalues --   -0.39650  -0.38602  -0.36779  -0.36091  -0.34714
 Alpha  occ. eigenvalues --   -0.33785  -0.33385  -0.33101  -0.32561  -0.31483
 Alpha  occ. eigenvalues --   -0.30656  -0.30372  -0.30326  -0.30090  -0.28744
 Alpha  occ. eigenvalues --   -0.27413  -0.26561  -0.25969  -0.25475  -0.25139
 Alpha  occ. eigenvalues --   -0.24083  -0.23960  -0.16724  -0.15888  -0.15265
 Alpha  occ. eigenvalues --   -0.13331   0.03837
 Alpha virt. eigenvalues --    0.04861   0.06188   0.06546   0.06690   0.07013
 Alpha virt. eigenvalues --    0.07096   0.07770   0.08138   0.08391   0.08801
 Alpha virt. eigenvalues --    0.09543   0.09659   0.09968   0.10927   0.11344

  Beta  occ. eigenvalues --  -19.05513 -10.14099 -10.09986 -10.09762 -10.09313
  Beta  occ. eigenvalues --  -10.09118 -10.09039 -10.08939 -10.08724 -10.08697
  Beta  occ. eigenvalues --  -10.08531 -10.08529 -10.08456 -10.08329 -10.07787
  Beta  occ. eigenvalues --  -10.07580 -10.07546  -0.96513  -0.77982  -0.76899
  Beta  occ. eigenvalues --   -0.71673  -0.68993  -0.68162  -0.66348  -0.62487
  Beta  occ. eigenvalues --   -0.60273  -0.59510  -0.56498  -0.51918  -0.50991
  Beta  occ. eigenvalues --   -0.49828  -0.48197  -0.43464  -0.42218  -0.40320
  Beta  occ. eigenvalues --   -0.39637  -0.38563  -0.36738  -0.36073  -0.34680
  Beta  occ. eigenvalues --   -0.33754  -0.33363  -0.33075  -0.32533  -0.31462
  Beta  occ. eigenvalues --   -0.30632  -0.30345  -0.30294  -0.30063  -0.28709
  Beta  occ. eigenvalues --   -0.27397  -0.26537  -0.25941  -0.25453  -0.25120
  Beta  occ. eigenvalues --   -0.24060  -0.23939  -0.16702  -0.15863  -0.15253
  Beta  occ. eigenvalues --   -0.13312
  Beta virt. eigenvalues --    0.05572   0.06438   0.06611   0.06698   0.06909
  Beta virt. eigenvalues --    0.07198   0.07494   0.07785   0.08516   0.08598
  Beta virt. eigenvalues --    0.09137   0.09618   0.09925   0.10274   0.10909

 Mulliken charges and spin densities:
               1          2
     1  C    1.833021  -2.349204
     2  C   -0.863786   0.973853
     3  C   -0.854114   0.763291
     4  C    0.476420  -0.053275
     5  C    0.220579  -0.141194
     6  C   -0.297654  -0.323059
     7  C   -0.085785  -0.221558
     8  C    0.067745  -0.576860
     9  C   -1.384823   0.378815
    10  C    0.814025   0.310307
    11  C    0.453583   0.115697
    12  C    0.733059  -1.381159
    13  C    0.018353  -0.010609
    14  C   -0.389094   0.033847
    15  C   -0.279562  -0.238301
    16  O   -0.294363   0.064144
    17  C    0.567308  -0.946638
    18  H   -0.251061   0.394611
    19  H   -0.039094   0.212034
    20  H   -0.198798   0.337707
    21  H   -0.024776   0.201243
    22  H   -0.009616   0.170470
    23  H   -0.257461   0.418490
    24  H   -0.384790   0.545199
    25  H    0.012796   0.132002
    26  H    0.057037   0.094497
    27  H    0.189642  -0.093934
    28  H    0.179072  -0.063063
    29  H   -1.020055   1.168106
    30  H    0.030920   0.138716
    31  H    0.108387   0.019019
    32  H   -0.339395   0.628127
    33  H    0.033367   0.123344
    34  H    0.123804   0.077484
    35  H    0.055109   0.097848
 Sum of Mulliken charges =  -1.00000   1.00000

 Dipole moment (field-independent basis, Debye):
    X=              3.9014    Y=             -1.5568    Z=              1.0859  Tot=              4.3387
 Quadrupole moment (field-independent basis, Debye-Ang):
   XX=           -270.3316   YY=           -133.0869   ZZ=           -134.2857
   XY=             -0.9029   XZ=              0.4097   YZ=              1.2476

 Summary of Natural Population Analysis:

                                       Natural Population
                Natural  -----------------------------------------------
    Atom  No    Charge         Core      Valence    Rydberg      Total
 -----------------------------------------------------------------------
      C    1   -0.29110      0.99964     2.28637    0.00509     3.29110
      C    2   -0.01364      0.99952     2.00375    0.01037     3.01364
      C    3   -0.10261      0.99946     2.09402    0.00913     3.10261
      C    4   -0.00676      0.99951     1.99758    0.00968     3.00676
      C    5   -0.10767      0.99950     2.09921    0.00896     3.10767
      C    6   -0.09465      0.99956     2.08520    0.00988     3.09465
      C    7   -0.10542      0.99951     2.09583    0.01008     3.10542
      C    8   -0.19729      0.99960     2.18971    0.00797     3.19729
      C    9   -0.19251      0.99959     2.18628    0.00665     3.19251
      C   10   -0.00316      0.99949     1.99560    0.00807     3.00316
      C   11   -0.03987      0.99944     2.03065    0.00977     3.03987
      C   12    0.16264      0.99934     1.82440    0.01363     2.83736
      C   13   -0.13705      0.99952     2.12709    0.01044     3.13705
      C   14   -0.09274      0.99957     2.08265    0.01051     3.09274
      C   15   -0.12211      0.99952     2.11480    0.00779     3.12211
      O   16   -0.34427      0.99988     3.33739    0.00700     4.34427
      C   17   -0.29751      0.99964     2.29301    0.00487     3.29751
      H   18    0.10255      0.00000     0.39630    0.00115     0.39745
      H   19    0.10571      0.00000     0.39298    0.00132     0.39429
      H   20    0.10396      0.00000     0.39477    0.00127     0.39604
      H   21    0.09850      0.00000     0.40015    0.00135     0.40150
      H   22    0.09965      0.00000     0.39942    0.00093     0.40035
      H   23    0.09997      0.00000     0.39911    0.00092     0.40003
      H   24    0.10072      0.00000     0.39807    0.00121     0.39928
      H   25    0.10135      0.00000     0.39694    0.00171     0.39865
      H   26    0.10067      0.00000     0.39753    0.00180     0.39933
      H   27    0.10462      0.00000     0.39399    0.00139     0.39538
      H   28    0.10410      0.00000     0.39454    0.00137     0.39590
      H   29    0.10465      0.00000     0.39241    0.00294     0.39535
      H   30    0.09918      0.00000     0.40004    0.00078     0.40082
      H   31    0.09970      0.00000     0.39903    0.00126     0.40030
      H   32    0.24175      0.00000     0.24327    0.01497     0.25825
      H   33    0.10218      0.00000     0.39644    0.00139     0.39782
      H   34    0.11475      0.00000     0.38420    0.00104     0.38525
      H   35    0.10172      0.00000     0.39692    0.00136     0.39828
 =======================================================================
   * Total *   -0.00000     16.99228    43.81966    0.18806    61.00000

 Normal termination of Gaussian 16 at Fri Dec 11 13:17:48 2020.
