 Gaussian 16, Revision A.03,

 -----------------------------------------------------------
 # opt freq B3LYP/6-31G(d) empiricaldispersion=gd3bj scf=xqc
 -----------------------------------------------------------

 -------------------------------
 CID_102094482_JID_3603_neutraal
 -------------------------------
 Symbolic Z-matrix:
 Charge =  0 Multiplicity = 1

 SCF Done:  E(RB3LYP) =  -506.278982474     A.U. after   14 cycles
 SCF Done:  E(RB3LYP) =  -506.281377831     A.U. after   11 cycles
 SCF Done:  E(RB3LYP) =  -506.281577575     A.U. after   10 cycles
 SCF Done:  E(RB3LYP) =  -506.281743307     A.U. after   11 cycles
 SCF Done:  E(RB3LYP) =  -506.281812783     A.U. after   10 cycles
 SCF Done:  E(RB3LYP) =  -506.281881566     A.U. after   10 cycles
 SCF Done:  E(RB3LYP) =  -506.281897037     A.U. after    9 cycles
 SCF Done:  E(RB3LYP) =  -506.281901182     A.U. after    9 cycles
 SCF Done:  E(RB3LYP) =  -506.281901635     A.U. after    7 cycles
 SCF Done:  E(RB3LYP) =  -506.281902025     A.U. after    7 cycles
 SCF Done:  E(RB3LYP) =  -506.281904210     A.U. after    7 cycles
 SCF Done:  E(RB3LYP) =  -506.281904366     A.U. after    7 cycles
 SCF Done:  E(RB3LYP) =  -506.281904582     A.U. after    7 cycles
 SCF Done:  E(RB3LYP) =  -506.281904754     A.U. after    7 cycles
 SCF Done:  E(RB3LYP) =  -506.281904806     A.U. after    6 cycles
 Optimization completed.
    -- Stationary point found.
 Normal termination of Gaussian 16 at Sun Dec 13 20:04:53 2020.

 --------------------------------------------------------------------
 #N Geom=AllCheck Guess=TCheck SCRF=Check GenChk RB3LYP/6-31G(d) Freq
 --------------------------------------------------------------------

 Structure from the checkpoint file:  "JID_3603.chk"
 -------------------------------
 CID_102094482_JID_3603_neutraal
 -------------------------------
 Charge =  0 Multiplicity = 1

 SCF Done:  E(RB3LYP) =  -506.281904806     A.U. after    1 cycles

  Exact polarizability: 171.535   1.662 136.657  -2.497   1.824  94.137
 Approx polarizability: 236.401   3.710 209.411  -3.829   4.412 147.323

                      1                      2                      3
                      A                      A                      A
 Frequencies --     25.6613                45.5702                76.9886
 Red. masses --      2.5933                 2.1618                 2.5117
 Frc consts  --      0.0010                 0.0026                 0.0088
 IR Inten    --      0.0077                 0.0238                 0.0368

                      4                      5                      6
                      A                      A                      A
 Frequencies --     82.1560               106.7266               114.9206
 Red. masses --      1.6352                 1.2945                 1.5683
 Frc consts  --      0.0065                 0.0087                 0.0122
 IR Inten    --      0.1490                 0.4172                 0.0646

                      7                      8                      9
                      A                      A                      A
 Frequencies --    145.1091               164.5233               206.2324
 Red. masses --      1.1149                 2.2151                 2.3294
 Frc consts  --      0.0138                 0.0353                 0.0584
 IR Inten    --      0.1776                 0.4911                 0.2217

                     10                     11                     12
                      A                      A                      A
 Frequencies --    231.8099               233.9265               261.4255
 Red. masses --      1.3371                 2.7229                 2.8565
 Frc consts  --      0.0423                 0.0878                 0.1150
 IR Inten    --      0.4494                 0.0192                 0.2976

                     13                     14                     15
                      A                      A                      A
 Frequencies --    320.9332               357.4767               369.7302
 Red. masses --      2.2910                 3.1797                 3.1496
 Frc consts  --      0.1390                 0.2394                 0.2537
 IR Inten    --      0.2934                 3.0924                 1.9457

                     16                     17                     18
                      A                      A                      A
 Frequencies --    411.5981               469.0229               522.6358
 Red. masses --      2.8362                 2.4813                 3.2194
 Frc consts  --      0.2831                 0.3216                 0.5181
 IR Inten    --      1.5645                 0.6815                 0.2051

                     19                     20                     21
                      A                      A                      A
 Frequencies --    525.6909               553.9039               575.8103
 Red. masses --      4.1105                 3.7533                 3.7217
 Frc consts  --      0.6693                 0.6785                 0.7270
 IR Inten    --      2.1755                 0.4781                 1.2191

                     22                     23                     24
                      A                      A                      A
 Frequencies --    588.5002               673.0706               763.2524
 Red. masses --      3.2497                 2.9157                 4.1083
 Frc consts  --      0.6631                 0.7783                 1.4101
 IR Inten    --      1.2393                 1.8241                 2.7616

                     25                     26                     27
                      A                      A                      A
 Frequencies --    776.8497               785.6229               819.7695
 Red. masses --      2.6404                 1.2380                 1.5531
 Frc consts  --      0.9389                 0.4502                 0.6149
 IR Inten    --      0.7192                25.9631                 1.0229

                     28                     29                     30
                      A                      A                      A
 Frequencies --    892.0270               900.7562               902.7881
 Red. masses --      2.0454                 1.3033                 1.5828
 Frc consts  --      0.9589                 0.6230                 0.7600
 IR Inten    --      3.5378                 0.0244                10.0177

                     31                     32                     33
                      A                      A                      A
 Frequencies --    942.0325               966.3779               981.8090
 Red. masses --      2.2867                 1.2827                 2.2518
 Frc consts  --      1.1956                 0.7058                 1.2789
 IR Inten    --      0.2942                 0.5940                 2.9175

                     34                     35                     36
                      A                      A                      A
 Frequencies --   1022.4975              1043.1900              1062.6297
 Red. masses --      1.5432                 1.9961                 1.6182
 Frc consts  --      0.9506                 1.2799                 1.0766
 IR Inten    --      3.4439                 1.6910                 0.6448

                     37                     38                     39
                      A                      A                      A
 Frequencies --   1071.4383              1075.7986              1084.7772
 Red. masses --      1.5635                 1.4975                 1.7008
 Frc consts  --      1.0575                 1.0211                 1.1792
 IR Inten    --      5.5952                 0.0861                15.9581

                     40                     41                     42
                      A                      A                      A
 Frequencies --   1085.4677              1105.0955              1134.1748
 Red. masses --      1.6929                 1.7144                 1.6993
 Frc consts  --      1.1752                 1.2336                 1.2879
 IR Inten    --     10.8864                 3.5339                 1.6887

                     43                     44                     45
                      A                      A                      A
 Frequencies --   1171.2108              1201.2931              1268.6280
 Red. masses --      2.2135                 1.2051                 3.4162
 Frc consts  --      1.7890                 1.0246                 3.2394
 IR Inten    --      1.4784                 0.5745                 1.7794

                     46                     47                     48
                      A                      A                      A
 Frequencies --   1285.8330              1289.8750              1313.9157
 Red. masses --      1.6558                 2.1285                 1.5418
 Frc consts  --      1.6130                 2.0866                 1.5683
 IR Inten    --      1.0849                 0.0981                 2.1668

                     49                     50                     51
                      A                      A                      A
 Frequencies --   1337.4532              1352.2361              1396.5800
 Red. masses --      6.9314                 1.4138                 1.3926
 Frc consts  --      7.3051                 1.5232                 1.6004
 IR Inten    --      0.0831                 7.2989                 0.7419

                     52                     53                     54
                      A                      A                      A
 Frequencies --   1434.7087              1439.2862              1443.7125
 Red. masses --      1.2209                 1.2828                 1.2339
 Frc consts  --      1.4807                 1.5657                 1.5152
 IR Inten    --      1.3448                 5.3146                 0.8579

                     55                     56                     57
                      A                      A                      A
 Frequencies --   1449.4917              1484.7243              1503.6824
 Red. masses --      1.2534                 2.1871                 1.5309
 Frc consts  --      1.5516                 2.8406                 2.0394
 IR Inten    --      0.9501                 0.4301                 4.7169

                     58                     59                     60
                      A                      A                      A
 Frequencies --   1506.9355              1507.7674              1516.3550
 Red. masses --      1.0804                 1.1030                 1.0605
 Frc consts  --      1.4455                 1.4774                 1.4366
 IR Inten    --      0.4907                 2.9034                17.1943

                     61                     62                     63
                      A                      A                      A
 Frequencies --   1518.0373              1524.6705              1527.2035
 Red. masses --      1.0571                 1.0773                 1.0760
 Frc consts  --      1.4353                 1.4755                 1.4786
 IR Inten    --      1.7028                 2.7031                 4.4205

                     64                     65                     66
                      A                      A                      A
 Frequencies --   1529.6955              1534.9753              1538.8084
 Red. masses --      1.2550                 1.2691                 1.0807
 Frc consts  --      1.7303                 1.7618                 1.5078
 IR Inten    --     18.0464                12.7247                 4.7369

                     67                     68                     69
                      A                      A                      A
 Frequencies --   1637.9305              1657.2387              1747.1326
 Red. masses --      6.7753                 5.3651                 6.9407
 Frc consts  --     10.7096                 8.6816                12.4827
 IR Inten    --      3.0854                 0.5833                 0.4674

                     70                     71                     72
                      A                      A                      A
 Frequencies --   3029.2376              3042.5479              3046.0206
 Red. masses --      1.0695                 1.0395                 1.0347
 Frc consts  --      5.7823                 5.6694                 5.6561
 IR Inten    --     35.3901                21.0414                31.8045

                     73                     74                     75
                      A                      A                      A
 Frequencies --   3050.0007              3051.2733              3086.6448
 Red. masses --      1.0374                 1.0372                 1.0992
 Frc consts  --      5.6857                 5.6897                 6.1705
 IR Inten    --     39.9877                16.9409                22.8004

                     76                     77                     78
                      A                      A                      A
 Frequencies --   3090.3293              3103.6488              3104.2527
 Red. masses --      1.0926                 1.0995                 1.0984
 Frc consts  --      6.1476                 6.2398                 6.2362
 IR Inten    --      5.5132                13.4875                21.3210

                     79                     80                     81
                      A                      A                      A
 Frequencies --   3114.8389              3119.7703              3127.5586
 Red. masses --      1.1012                 1.1029                 1.1023
 Frc consts  --      6.2946                 6.3245                 6.3526
 IR Inten    --     36.4936                44.7597                20.6853

                     82                     83                     84
                      A                      A                      A
 Frequencies --   3129.0427              3133.9646              3143.0057
 Red. masses --      1.1024                 1.0890                 1.0972
 Frc consts  --      6.3593                 6.3018                 6.3861
 IR Inten    --     25.3443                26.1306                47.0961

                     85                     86                     87
                      A                      A                      A
 Frequencies --   3173.9184              3181.9491              3201.0346
 Red. masses --      1.0854                 1.0905                 1.0965
 Frc consts  --      6.4424                 6.5050                 6.6197
 IR Inten    --      0.2564                31.7126                37.9355

 - Thermochemistry -
 -------------------
 Temperature   298.150 Kelvin.  Pressure   1.00000 Atm.
 Atom     1 has atomic number  6 and mass  12.00000

 Molecular mass:   174.14085 amu.
 Principal axes and moments of inertia in atomic units:
                           1         2         3
     Eigenvalues --  1432.351853420.537364178.77174
           X            0.99994  -0.01042   0.00154
           Y            0.01043   0.99994  -0.00221
           Z           -0.00152   0.00223   1.00000
 This molecule is an asymmetric top.
 Rotational symmetry number  1.
 Warning -- assumption of classical behavior for rotation
           may cause significant error
 Rotational temperatures (Kelvin)      0.06047     0.02532     0.02073
 Rotational constants (GHZ):           1.25998     0.52762     0.43188
 Zero-point vibrational energy     720918.7 (Joules/Mol)
                                  172.30371 (Kcal/Mol)
 Warning -- explicit consideration of  22 degrees of freedom as
           vibrations may cause significant error
 Vibrational temperatures:     36.92    65.57   110.77   118.20   153.56
          (Kelvin)            165.35   208.78   236.71   296.72   333.52
                              336.57   376.13   461.75   514.33   531.96
                              592.20   674.82   751.96   756.35   796.94
                              828.46   846.72   968.40  1098.15  1117.71
                             1130.34  1179.47  1283.43  1295.99  1298.91
                             1355.37  1390.40  1412.60  1471.15  1500.92
                             1528.89  1541.56  1547.83  1560.75  1561.75
                             1589.99  1631.82  1685.11  1728.39  1825.27
                             1850.03  1855.84  1890.43  1924.30  1945.57
                             2009.37  2064.23  2070.81  2077.18  2085.50
                             2136.19  2163.46  2168.14  2169.34  2181.70
                             2184.12  2193.66  2197.31  2200.89  2208.49
                             2214.00  2356.62  2384.40  2513.73  4358.40
                             4377.55  4382.54  4388.27  4390.10  4440.99
                             4446.29  4465.46  4466.33  4481.56  4488.65
                             4499.86  4501.99  4509.08  4522.08  4566.56
                             4578.12  4605.57

 Zero-point correction=                           0.274583 (Hartree/Particle)
 Thermal correction to Energy=                    0.289198
 Thermal correction to Enthalpy=                  0.290142
 Thermal correction to Gibbs Free Energy=         0.232257
 Sum of electronic and zero-point Energies=           -506.007321
 Sum of electronic and thermal Energies=              -505.992707
 Sum of electronic and thermal Enthalpies=            -505.991763
 Sum of electronic and thermal Free Energies=         -506.049647

                     E (Thermal)             CV                S
                      KCal/Mol        Cal/Mol-Kelvin    Cal/Mol-Kelvin
 Total                  181.474             53.568            121.828
 Electronic               0.000              0.000              0.000
 Translational            0.889              2.981             41.371
 Rotational               0.889              2.981             31.393
 Vibrational            179.697             47.607             49.063
 Vibration     1          0.593              1.985              6.139
 Vibration     2          0.595              1.979              5.001
 Vibration     3          0.599              1.965              3.966
 Vibration     4          0.600              1.961              3.839
 Vibration     5          0.606              1.944              3.328
 Vibration     6          0.608              1.937              3.184
 Vibration     7          0.616              1.908              2.735
 Vibration     8          0.623              1.886              2.497
 Vibration     9          0.641              1.831              2.077
 Vibration    10          0.653              1.792              1.865
 Vibration    11          0.654              1.789              1.849
 Vibration    12          0.669              1.743              1.652
 Vibration    13          0.706              1.633              1.305
 Vibration    14          0.733              1.560              1.133
 Vibration    15          0.742              1.534              1.081
 Vibration    16          0.776              1.445              0.921
 Vibration    17          0.826              1.319              0.740
 Vibration    18          0.878              1.200              0.604
 Vibration    19          0.881              1.193              0.597
 Vibration    20          0.909              1.131              0.536
 Vibration    21          0.932              1.084              0.493
 Vibration    22          0.946              1.056              0.470

                           ! Non-Optimized Parameters !
 Normal termination of Gaussian 16 at Sun Dec 13 20:13:21 2020.

 ----------------------------------------------------------------------
 # B3LYP/6-311++G(d,p) empiricaldispersion=gd3bj scf=xqc pop=npa geom=c
 heck
 ----------------------------------------------------------------------

 ---------------------------------------
 CID_102094482_JID_3603_Energie_neutraal
 ---------------------------------------
 Structure from the checkpoint file:  "JID_3603.chk"
 Charge =  0 Multiplicity = 1

 SCF Done:  E(RB3LYP) =  -506.413874237     A.U. after   14 cycles
 Normal termination of Gaussian 16 at Sun Dec 13 20:17:08 2020.

 ----------------------------------------------------------------------
 # B3LYP/6-311++G(d,p) empiricaldispersion=gd3bj scf=xqc pop=npa geom=c
 heck
 ----------------------------------------------------------------------

 -------------------------------------
 CID_102094482_JID_3603_Energie_kation
 -------------------------------------
 Structure from the checkpoint file:  "JID_3603.chk"
 Charge =  1 Multiplicity = 2

 SCF Done:  E(UB3LYP) =  -506.112381277     A.U. after   27 cycles
 Normal termination of Gaussian 16 at Sun Dec 13 20:27:36 2020.
 Gaussian 16:  ES64L-G16RevA.03 25-Dec-2016

 ----------------------------------------------------------------------
 # B3LYP/6-311++G(d,p) empiricaldispersion=gd3bj scf=xqc pop=npa geom=c
 heck
 ----------------------------------------------------------------------

 ------------------------------------
 CID_102094482_JID_3603_Energie_anion
 ------------------------------------
 Structure from the checkpoint file:  "JID_3603.chk"
 Charge = -1 Multiplicity = 2

                         Standard orientation:
 ---------------------------------------------------------------------
 Center     Atomic      Atomic             Coordinates (Angstroms)
 Number     Number       Type             X           Y           Z
 ---------------------------------------------------------------------
      1          6           0       -4.016370    0.688326   -0.788470
      2          6           0       -3.223523   -0.581638   -0.436329
      3          6           0       -1.740349   -0.361410   -0.546964
      4          6           0       -0.827931   -0.332008    0.434829
      5          6           0       -1.114658   -0.552410    1.900988
      6          6           0        0.607842   -0.050284    0.109637
      7          6           0        1.493591   -1.114736   -0.149418
      8          6           0        2.836328   -0.833180   -0.422252
      9          6           0        3.301726    0.479154   -0.437679
     10          6           0        2.420824    1.527522   -0.184799
     11          6           0        1.071906    1.279917    0.090554
     12          6           0        0.128584    2.432606    0.344318
     13          6           0        1.005424   -2.544424   -0.152711
     14          1           0       -3.782093    1.496874   -0.087292
     15          1           0       -5.096287    0.505032   -0.753393
     16          1           0       -3.766966    1.040646   -1.796307
     17          1           0       -3.500612   -0.918587    0.567700
     18          1           0       -3.518765   -1.386953   -1.124183
     19          1           0       -1.382637   -0.168114   -1.559880
     20          1           0       -0.528376   -1.395437    2.287779
     21          1           0       -0.811800    0.325280    2.486111
     22          1           0       -2.169411   -0.749306    2.106803
     23          1           0        3.519483   -1.654187   -0.625586
     24          1           0        4.347538    0.684544   -0.649578
     25          1           0        2.778989    2.553941   -0.201477
     26          1           0       -0.667878    2.470763   -0.406920
     27          1           0       -0.366308    2.348094    1.319031
     28          1           0        0.664180    3.386508    0.322770
     29          1           0        0.603821   -2.840554    0.823934
     30          1           0        0.198596   -2.689450   -0.878994
     31          1           0        1.818156   -3.233700   -0.400750
 ---------------------------------------------------------------------

 SCF Done:  E(UB3LYP) =  -506.397595837     A.U. after   33 cycles
 SCF Done:  E(UB3LYP) =  -506.397595837     a.u. after    1 cycles

 The electronic state is 2-A.
 Alpha  occ. eigenvalues --  -10.08347 -10.08273 -10.07669 -10.07527 -10.07436
 Alpha  occ. eigenvalues --  -10.07094 -10.07036 -10.06746 -10.06680 -10.06349
 Alpha  occ. eigenvalues --  -10.06313 -10.06258 -10.05788  -0.76788  -0.71313
 Alpha  occ. eigenvalues --   -0.68363  -0.67040  -0.63951  -0.59356  -0.58189
 Alpha  occ. eigenvalues --   -0.58092  -0.52529  -0.48818  -0.47497  -0.42748
 Alpha  occ. eigenvalues --   -0.39878  -0.38000  -0.36794  -0.34481  -0.33443
 Alpha  occ. eigenvalues --   -0.32121  -0.31922  -0.31771  -0.30693  -0.30421
 Alpha  occ. eigenvalues --   -0.30158  -0.28743  -0.27599  -0.27391  -0.27030
 Alpha  occ. eigenvalues --   -0.25534  -0.24698  -0.24384  -0.23764  -0.21585
 Alpha  occ. eigenvalues --   -0.14436  -0.14400  -0.14145   0.04509
 Alpha virt. eigenvalues --    0.06325   0.06818   0.07482   0.08057   0.08561
 Alpha virt. eigenvalues --    0.08691   0.08738   0.09454   0.10291   0.10778
 Alpha virt. eigenvalues --    0.10880   0.11038   0.11615   0.12263   0.13056

  Beta  occ. eigenvalues --  -10.08345 -10.08269 -10.07663 -10.07516 -10.07425
  Beta  occ. eigenvalues --  -10.07086 -10.07026 -10.06722 -10.06656 -10.06322
  Beta  occ. eigenvalues --  -10.06273 -10.06254 -10.05749  -0.76769  -0.71281
  Beta  occ. eigenvalues --   -0.68341  -0.67005  -0.63910  -0.59307  -0.58137
  Beta  occ. eigenvalues --   -0.58054  -0.52461  -0.48769  -0.47461  -0.42702
  Beta  occ. eigenvalues --   -0.39842  -0.37981  -0.36759  -0.34438  -0.33405
  Beta  occ. eigenvalues --   -0.32087  -0.31886  -0.31732  -0.30664  -0.30391
  Beta  occ. eigenvalues --   -0.30124  -0.28704  -0.27549  -0.27361  -0.26982
  Beta  occ. eigenvalues --   -0.25498  -0.24670  -0.24359  -0.23729  -0.21556
  Beta  occ. eigenvalues --   -0.14405  -0.14376  -0.14101
  Beta virt. eigenvalues --    0.06468   0.07094   0.07402   0.08060   0.08466
  Beta virt. eigenvalues --    0.08731   0.09007   0.09061   0.09892   0.10657
  Beta virt. eigenvalues --    0.11050   0.11308   0.11538   0.11949   0.12605

 Mulliken charges and spin densities:
               1          2
     1  C    1.027933  -1.630172
     2  C   -0.774707   0.478192
     3  C   -0.550736   0.107346
     4  C   -0.773964   1.190824
     5  C    1.066382  -1.852220
     6  C   -1.533881   1.733208
     7  C   -0.983146   1.332334
     8  C    1.320204  -1.584975
     9  C    0.248869  -0.492209
    10  C    1.024167  -1.352253
    11  C   -0.896720   1.368197
    12  C    1.362486  -1.925465
    13  C    1.084724  -1.660866
    14  H   -0.089400   0.230063
    15  H   -0.447700   0.589910
    16  H   -0.168941   0.300705
    17  H   -0.159316   0.308093
    18  H   -0.239744   0.378682
    19  H    0.026436   0.175038
    20  H   -0.080798   0.227610
    21  H   -0.208779   0.370167
    22  H   -0.068499   0.182629
    23  H   -0.143952   0.255496
    24  H   -0.254788   0.415372
    25  H   -0.170681   0.289271
    26  H    0.109524   0.076725
    27  H   -0.121167   0.273756
    28  H   -0.313810   0.456820
    29  H   -0.059589   0.207108
    30  H   -0.009049   0.183703
    31  H   -0.221358   0.366911
 Sum of Mulliken charges =  -1.00000   1.00000

 Dipole moment (field-independent basis, Debye):
    X=              3.7824    Y=             -0.5327    Z=             -0.6523  Tot=              3.8750
 Quadrupole moment (field-independent basis, Debye-Ang):
   XX=           -158.1412   YY=           -126.7206   ZZ=           -117.5140
   XY=              0.9013   XZ=             -1.4212   YZ=             -1.7007

 Summary of Natural Population Analysis:

                                       Natural Population
                Natural  -----------------------------------------------
    Atom  No    Charge         Core      Valence    Rydberg      Total
 -----------------------------------------------------------------------
      C    1   -0.27788      0.99966     2.27421    0.00400     3.27788
      C    2   -0.20476      0.99962     2.19661    0.00853     3.20476
      C    3   -0.08653      0.99944     2.07662    0.01048     3.08653
      C    4   -0.01461      0.99946     2.00194    0.01321     3.01461
      C    5   -0.29670      0.99961     2.29082    0.00627     3.29670
      C    6   -0.02299      0.99939     2.01149    0.01210     3.02299
      C    7   -0.00770      0.99947     1.99798    0.01025     3.00770
      C    8   -0.10481      0.99951     2.09630    0.00901     3.10481
      C    9   -0.09887      0.99956     2.08934    0.00998     3.09887
      C   10   -0.10404      0.99951     2.09544    0.00910     3.10404
      C   11   -0.00591      0.99947     1.99600    0.01044     3.00591
      C   12   -0.29434      0.99964     2.28911    0.00559     3.29434
      C   13   -0.29408      0.99964     2.28920    0.00525     3.29408
      H   14    0.09766      0.00000     0.40074    0.00160     0.40234
      H   15    0.09820      0.00000     0.40012    0.00168     0.40180
      H   16    0.09476      0.00000     0.40381    0.00143     0.40524
      H   17    0.09819      0.00000     0.40034    0.00147     0.40181
      H   18    0.09885      0.00000     0.39975    0.00139     0.40115
      H   19    0.09337      0.00000     0.40539    0.00123     0.40663
      H   20    0.10214      0.00000     0.39669    0.00118     0.39786
      H   21    0.10481      0.00000     0.39382    0.00137     0.39519
      H   22    0.10328      0.00000     0.39555    0.00118     0.39672
      H   23    0.09775      0.00000     0.40125    0.00100     0.40225
      H   24    0.09801      0.00000     0.40111    0.00087     0.40199
      H   25    0.09837      0.00000     0.40058    0.00105     0.40163
      H   26    0.10844      0.00000     0.39037    0.00119     0.39156
      H   27    0.10623      0.00000     0.39246    0.00131     0.39377
      H   28    0.10023      0.00000     0.39873    0.00104     0.39977
      H   29    0.10472      0.00000     0.39414    0.00114     0.39528
      H   30    0.10816      0.00000     0.39070    0.00114     0.39184
      H   31    0.10009      0.00000     0.39891    0.00100     0.39991
 =======================================================================
   * Total *    0.00000     12.99398    34.86954    0.13649    48.00000

 Normal termination of Gaussian 16 at Sun Dec 13 20:40:29 2020.
