 Gaussian 16, Revision A.03,

 -----------------------------------------------------------
 # opt freq B3LYP/6-31G(d) empiricaldispersion=gd3bj scf=xqc
 -----------------------------------------------------------

 ------------------------------
 CID_64345689_JID_7936_neutraal
 ------------------------------
 Symbolic Z-matrix:
 Charge =  0 Multiplicity = 1

 SCF Done:  E(RB3LYP) =  -785.893845498     A.U. after   14 cycles
 SCF Done:  E(RB3LYP) =  -785.899235989     A.U. after   13 cycles
 SCF Done:  E(RB3LYP) =  -785.900518544     A.U. after   13 cycles
 SCF Done:  E(RB3LYP) =  -785.902889943     A.U. after   12 cycles
 SCF Done:  E(RB3LYP) =  -785.904442223     A.U. after   12 cycles
 SCF Done:  E(RB3LYP) =  -785.905669966     A.U. after   12 cycles
 SCF Done:  E(RB3LYP) =  -785.905686153     A.U. after   11 cycles
 SCF Done:  E(RB3LYP) =  -785.905929022     A.U. after   11 cycles
 SCF Done:  E(RB3LYP) =  -785.905971876     A.U. after   10 cycles
 SCF Done:  E(RB3LYP) =  -785.905973445     A.U. after    9 cycles
 SCF Done:  E(RB3LYP) =  -785.905975476     A.U. after    7 cycles
 SCF Done:  E(RB3LYP) =  -785.905975731     A.U. after    8 cycles
 SCF Done:  E(RB3LYP) =  -785.905975919     A.U. after    8 cycles
 SCF Done:  E(RB3LYP) =  -785.905976044     A.U. after    7 cycles
 SCF Done:  E(RB3LYP) =  -785.905976123     A.U. after    7 cycles
 Optimization completed.
    -- Stationary point found.
 Normal termination of Gaussian 16 at Mon Dec 14 13:27:53 2020.

 --------------------------------------------------------------------
 #N Geom=AllCheck Guess=TCheck SCRF=Check GenChk RB3LYP/6-31G(d) Freq
 --------------------------------------------------------------------

 Structure from the checkpoint file:  "JID_7936.chk"
 ------------------------------
 CID_64345689_JID_7936_neutraal
 ------------------------------
 Charge =  0 Multiplicity = 1

 SCF Done:  E(RB3LYP) =  -785.905976123     A.U. after    1 cycles

  Exact polarizability: 176.853  -1.530 135.695  -0.585   0.401 131.290
 Approx polarizability: 210.494   0.193 213.547  -0.168   6.437 200.849

                      1                      2                      3
                      A                      A                      A
 Frequencies --     21.0579                23.7303                42.9015
 Red. masses --      4.8151                 4.9803                 4.7524
 Frc consts  --      0.0013                 0.0017                 0.0052
 IR Inten    --      2.5941                 3.1360                 1.5715

                      4                      5                      6
                      A                      A                      A
 Frequencies --     56.4130                65.6829                75.3770
 Red. masses --      3.9099                 5.0047                 3.7578
 Frc consts  --      0.0073                 0.0127                 0.0126
 IR Inten    --      0.0422                 3.0749                 3.6082

                      7                      8                      9
                      A                      A                      A
 Frequencies --     95.1569               107.0132               151.6792
 Red. masses --      4.7508                 4.6886                 3.2924
 Frc consts  --      0.0253                 0.0316                 0.0446
 IR Inten    --      3.4841                 0.8809                 1.4547

                     10                     11                     12
                      A                      A                      A
 Frequencies --    185.1926               212.6726               235.1740
 Red. masses --      3.0657                 2.0496                 1.2498
 Frc consts  --      0.0619                 0.0546                 0.0407
 IR Inten    --      2.6284                 4.6727                 0.5411

                     13                     14                     15
                      A                      A                      A
 Frequencies --    245.2026               286.1152               297.7975
 Red. masses --      2.2942                 1.6317                 1.7267
 Frc consts  --      0.0813                 0.0787                 0.0902
 IR Inten    --      5.2462                35.4456                28.3768

                     16                     17                     18
                      A                      A                      A
 Frequencies --    307.4818               319.9171               346.7578
 Red. masses --      3.0607                 2.6295                 2.3605
 Frc consts  --      0.1705                 0.1586                 0.1672
 IR Inten    --      5.1260                 6.2057                10.9714

                     19                     20                     21
                      A                      A                      A
 Frequencies --    384.2504               407.1207               417.6866
 Red. masses --      3.3381                 2.0729                 2.1714
 Frc consts  --      0.2904                 0.2024                 0.2232
 IR Inten    --      6.6665                 2.9931                 2.1456

                     22                     23                     24
                      A                      A                      A
 Frequencies --    430.1453               470.4429               507.5242
 Red. masses --      2.1087                 2.0186                 2.7193
 Frc consts  --      0.2299                 0.2632                 0.4127
 IR Inten    --      0.5709                 8.1857                 4.4076

                     25                     26                     27
                      A                      A                      A
 Frequencies --    523.9956               561.2558               580.4731
 Red. masses --      2.4077                 3.0591                 4.2525
 Frc consts  --      0.3895                 0.5678                 0.8442
 IR Inten    --      2.8561                 5.7270                11.7237

                     28                     29                     30
                      A                      A                      A
 Frequencies --    588.9886               592.3924               693.0354
 Red. masses --      2.0166                 1.4247                 2.9004
 Frc consts  --      0.4122                 0.2946                 0.8208
 IR Inten    --     26.3559                40.8691                 4.4591

                     31                     32                     33
                      A                      A                      A
 Frequencies --    703.3806               728.6763               755.4899
 Red. masses --      3.9435                 3.1378                 1.8673
 Frc consts  --      1.1495                 0.9816                 0.6280
 IR Inten    --      7.7303                 7.0157                10.4834

                     34                     35                     36
                      A                      A                      A
 Frequencies --    787.6761               829.2013               838.2437
 Red. masses --      2.5769                 2.5229                 2.5890
 Frc consts  --      0.9420                 1.0220                 1.0718
 IR Inten    --      0.4133                 1.4950                 5.2161

                     37                     38                     39
                      A                      A                      A
 Frequencies --    873.4409               892.0588               900.7964
 Red. masses --      1.9880                 1.9740                 1.5497
 Frc consts  --      0.8936                 0.9255                 0.7409
 IR Inten    --     26.9101                 2.1628                95.2869

                     40                     41                     42
                      A                      A                      A
 Frequencies --    940.5991               958.5225               959.0546
 Red. masses --      1.8797                 1.8329                 1.5221
 Frc consts  --      0.9798                 0.9922                 0.8249
 IR Inten    --      4.8780                 2.7939                 5.5502

                     43                     44                     45
                      A                      A                      A
 Frequencies --    969.5767               985.7216              1021.7720
 Red. masses --      1.9883                 1.6334                 1.7727
 Frc consts  --      1.1013                 0.9351                 1.0904
 IR Inten    --      2.9783                21.6491                 5.1366

                     46                     47                     48
                      A                      A                      A
 Frequencies --   1033.2474              1043.0350              1072.0443
 Red. masses --      2.0656                 2.2923                 2.3923
 Frc consts  --      1.2993                 1.4693                 1.6199
 IR Inten    --      2.6315                 0.5191                 1.6307

                     49                     50                     51
                      A                      A                      A
 Frequencies --   1092.7394              1109.5041              1115.7303
 Red. masses --      2.3856                 1.9268                 2.9315
 Frc consts  --      1.6784                 1.3975                 2.1501
 IR Inten    --      8.8280                12.8473                 4.3235

                     52                     53                     54
                      A                      A                      A
 Frequencies --   1124.7653              1153.1004              1174.4698
 Red. masses --      1.7301                 1.9235                 1.8084
 Frc consts  --      1.2896                 1.5069                 1.4697
 IR Inten    --      8.0829                20.7916                39.3654

                     55                     56                     57
                      A                      A                      A
 Frequencies --   1198.5345              1201.6553              1212.6026
 Red. masses --      1.6131                 1.2116                 1.6276
 Frc consts  --      1.3652                 1.0308                 1.4101
 IR Inten    --      4.3736                11.6955                 9.9441

                     58                     59                     60
                      A                      A                      A
 Frequencies --   1233.9451              1254.6111              1305.0473
 Red. masses --      1.6133                 1.6398                 1.2485
 Frc consts  --      1.4473                 1.5207                 1.2528
 IR Inten    --     53.4218                15.2301                 4.7534

                     61                     62                     63
                      A                      A                      A
 Frequencies --   1306.4100              1321.2672              1331.2488
 Red. masses --      1.5289                 1.3607                 1.1436
 Frc consts  --      1.5374                 1.3996                 1.1941
 IR Inten    --     48.0241                 4.5530                 1.2064

                     64                     65                     66
                      A                      A                      A
 Frequencies --   1334.0861              1341.9964              1348.8878
 Red. masses --      1.3395                 1.3876                 1.2891
 Frc consts  --      1.4046                 1.4724                 1.3819
 IR Inten    --     11.3813                39.7559                12.5158

                     67                     68                     69
                      A                      A                      A
 Frequencies --   1361.5899              1371.7335              1389.5789
 Red. masses --      1.3596                 1.3973                 1.3549
 Frc consts  --      1.4851                 1.5491                 1.5415
 IR Inten    --      0.4239                 6.0394                19.2514

                     70                     71                     72
                      A                      A                      A
 Frequencies --   1406.1275              1410.8636              1411.3551
 Red. masses --      1.5134                 1.4521                 1.4547
 Frc consts  --      1.7630                 1.7030                 1.7072
 IR Inten    --     25.6990                 6.3264                 7.7044

                     73                     74                     75
                      A                      A                      A
 Frequencies --   1421.2185              1424.1117              1426.7496
 Red. masses --      1.5647                 1.5992                 1.3797
 Frc consts  --      1.8621                 1.9109                 1.6547
 IR Inten    --     26.8945                15.8696                35.0082

                     76                     77                     78
                      A                      A                      A
 Frequencies --   1441.7077              1478.2387              1489.3829
 Red. masses --      1.2351                 1.8922                 1.9633
 Frc consts  --      1.5125                 2.4362                 2.5660
 IR Inten    --      2.8953                73.2878                26.8568

                     79                     80                     81
                      A                      A                      A
 Frequencies --   1503.7558              1507.3823              1513.0814
 Red. masses --      1.0947                 1.1203                 1.1204
 Frc consts  --      1.4584                 1.4997                 1.5113
 IR Inten    --      1.2286                10.6748                20.2042

                     82                     83                     84
                      A                      A                      A
 Frequencies --   1516.2614              1520.9109              1522.5247
 Red. masses --      1.0855                 1.1055                 1.1070
 Frc consts  --      1.4703                 1.5066                 1.5119
 IR Inten    --     16.3110                18.4770                 5.3712

                     85                     86                     87
                      A                      A                      A
 Frequencies --   1528.3300              1531.7997              1532.3417
 Red. masses --      1.0450                 1.0679                 1.0896
 Frc consts  --      1.4382                 1.4764                 1.5075
 IR Inten    --      8.0513                10.3887                 4.2703

                     88                     89                     90
                      A                      A                      A
 Frequencies --   1546.5513              1725.3038              1753.2917
 Red. masses --      1.1677                 1.1315                 9.4724
 Frc consts  --      1.6456                 1.9844                17.1561
 IR Inten    --     16.9744                26.0653               280.5826

                     91                     92                     93
                      A                      A                      A
 Frequencies --   1788.6955              2993.1137              3026.4775
 Red. masses --      6.8603                 1.0826                 1.0653
 Frc consts  --     12.9320                 5.7144                 5.7492
 IR Inten    --    245.6970                15.6297                15.1729

                     94                     95                     96
                      A                      A                      A
 Frequencies --   3029.0871              3033.6580              3036.5355
 Red. masses --      1.0602                 1.0580                 1.0679
 Frc consts  --      5.7311                 5.7366                 5.8014
 IR Inten    --     18.7990                 9.4460                63.2089

                     97                     98                     99
                      A                      A                      A
 Frequencies --   3040.9389              3042.7027              3047.8425
 Red. masses --      1.0674                 1.0438                 1.0701
 Frc consts  --      5.8157                 5.6935                 5.8565
 IR Inten    --      2.7426                54.6322                28.6355

                    100                    101                    102
                      A                      A                      A
 Frequencies --   3055.0443              3068.4245              3070.6641
 Red. masses --      1.0716                 1.0892                 1.1024
 Frc consts  --      5.8929                 6.0423                 6.1245
 IR Inten    --      3.1678                56.5356                27.2448

                    103                    104                    105
                      A                      A                      A
 Frequencies --   3075.6165              3081.0587              3099.1969
 Red. masses --      1.1017                 1.0686                 1.1041
 Frc consts  --      6.1403                 5.9769                 6.2482
 IR Inten    --     57.0230                20.4918                32.7769

                    106                    107                    108
                      A                      A                      A
 Frequencies --   3106.1045              3112.8839              3115.6815
 Red. masses --      1.1014                 1.1025                 1.0942
 Frc consts  --      6.2610                 6.2941                 6.2583
 IR Inten    --     49.7449                28.7943                32.2865

                    109                    110                    111
                      A                      A                      A
 Frequencies --   3135.1356              3161.4774              3175.8075
 Red. masses --      1.0943                 1.0925                 1.0946
 Frc consts  --      6.3370                 6.4336                 6.5042
 IR Inten    --     12.3538                 0.9105                 0.8179

                    112                    113                    114
                      A                      A                      A
 Frequencies --   3458.8829              3516.5861              3544.9803
 Red. masses --      1.0452                 1.0758                 1.0992
 Frc consts  --      7.3679                 7.8386                 8.1385
 IR Inten    --      4.9558                 5.7206                 0.4633

 - Thermochemistry -
 -------------------
 Temperature   298.150 Kelvin.  Pressure   1.00000 Atm.
 Atom     1 has atomic number  6 and mass  12.00000

 Molecular mass:   241.17903 amu.
 Principal axes and moments of inertia in atomic units:
                           1         2         3
     Eigenvalues --  1599.515099124.638199363.09541
           X            0.99999   0.00301   0.00142
           Y           -0.00300   0.99995  -0.00943
           Z           -0.00144   0.00943   0.99995
 This molecule is an asymmetric top.
 Rotational symmetry number  1.
 Warning -- assumption of classical behavior for rotation
           may cause significant error
 Rotational temperatures (Kelvin)      0.05415     0.00949     0.00925
 Rotational constants (GHZ):           1.12831     0.19779     0.19275
 Zero-point vibrational energy     940483.5 (Joules/Mol)
                                  224.78095 (Kcal/Mol)
 Warning -- explicit consideration of  29 degrees of freedom as
           vibrations may cause significant error
 Vibrational temperatures:     30.30    34.14    61.73    81.17    94.50
          (Kelvin)            108.45   136.91   153.97   218.23   266.45
                              305.99   338.36   352.79   411.66   428.46
                              442.40   460.29   498.91   552.85   585.76
                              600.96   618.88   676.86   730.21   753.91
                              807.52   835.17   847.42   852.32   997.12
                             1012.01  1048.40  1086.98  1133.29  1193.04
                             1206.05  1256.69  1283.47  1296.05  1353.31
                             1379.10  1379.87  1395.00  1418.23  1470.10
                             1486.61  1500.69  1542.43  1572.21  1596.33
                             1605.29  1618.29  1659.05  1689.80  1724.42
                             1728.91  1744.66  1775.37  1805.11  1877.67
                             1879.63  1901.01  1915.37  1919.45  1930.83
                             1940.75  1959.02  1973.62  1999.29  2023.10
                             2029.92  2030.63  2044.82  2048.98  2052.77
                             2074.30  2126.86  2142.89  2163.57  2168.79
                             2176.99  2181.56  2188.25  2190.57  2198.93
                             2203.92  2204.70  2225.14  2482.33  2522.60
                             2573.53  4306.42  4354.43  4358.18  4364.76
                             4368.90  4375.23  4377.77  4385.17  4395.53
                             4414.78  4418.00  4425.13  4432.96  4459.05
                             4468.99  4478.75  4482.77  4510.76  4548.66
                             4569.28  4976.56  5059.58  5100.44

 Zero-point correction=                           0.358211 (Hartree/Particle)
 Thermal correction to Energy=                    0.376475
 Thermal correction to Enthalpy=                  0.377419
 Thermal correction to Gibbs Free Energy=         0.309799
 Sum of electronic and zero-point Energies=           -785.547765
 Sum of electronic and thermal Energies=              -785.529502
 Sum of electronic and thermal Enthalpies=            -785.528557
 Sum of electronic and thermal Free Energies=         -785.596177

                     E (Thermal)             CV                S
                      KCal/Mol        Cal/Mol-Kelvin    Cal/Mol-Kelvin
 Total                  236.241             68.398            142.318
 Electronic               0.000              0.000              0.000
 Translational            0.889              2.981             42.342
 Rotational               0.889              2.981             33.280
 Vibrational            234.464             62.437             66.696
 Vibration     1          0.593              1.985              6.532
 Vibration     2          0.593              1.985              6.295
 Vibration     3          0.595              1.980              5.120
 Vibration     4          0.596              1.975              4.579
 Vibration     5          0.597              1.971              4.279
 Vibration     6          0.599              1.965              4.008
 Vibration     7          0.603              1.953              3.551
 Vibration     8          0.606              1.944              3.322
 Vibration     9          0.619              1.901              2.651
 Vibration    10          0.631              1.860              2.275
 Vibration    11          0.644              1.822              2.021
 Vibration    12          0.655              1.787              1.839
 Vibration    13          0.660              1.771              1.765
 Vibration    14          0.684              1.699              1.497
 Vibration    15          0.691              1.678              1.429
 Vibration    16          0.697              1.659              1.376
 Vibration    17          0.706              1.635              1.311
 Vibration    18          0.725              1.582              1.181
 Vibration    19          0.753              1.504              1.022
 Vibration    20          0.772              1.455              0.937
 Vibration    21          0.781              1.432              0.900
 Vibration    22          0.791              1.405              0.858
 Vibration    23          0.827              1.316              0.736
 Vibration    24          0.863              1.233              0.640
 Vibration    25          0.879              1.197              0.601
 Vibration    26          0.917              1.115              0.521
 Vibration    27          0.937              1.074              0.484
 Vibration    28          0.946              1.055              0.469
 Vibration    29          0.950              1.048              0.463

                           ! Non-Optimized Parameters !
 Normal termination of Gaussian 16 at Mon Dec 14 13:43:29 2020.

 ----------------------------------------------------------------------
 # B3LYP/6-311++G(d,p) empiricaldispersion=gd3bj scf=xqc pop=npa geom=c
 heck
 ----------------------------------------------------------------------

 --------------------------------------
 CID_64345689_JID_7936_Energie_neutraal
 --------------------------------------
 Structure from the checkpoint file:  "JID_7936.chk"
 Charge =  0 Multiplicity = 1

 SCF Done:  E(RB3LYP) =  -786.141844321     A.U. after   14 cycles
 Normal termination of Gaussian 16 at Mon Dec 14 13:51:23 2020.

 ----------------------------------------------------------------------
 # B3LYP/6-311++G(d,p) empiricaldispersion=gd3bj scf=xqc pop=npa geom=c
 heck
 ----------------------------------------------------------------------

 ------------------------------------
 CID_64345689_JID_7936_Energie_kation
 ------------------------------------
 Structure from the checkpoint file:  "JID_7936.chk"
 Charge =  1 Multiplicity = 2

 SCF Done:  E(UB3LYP) =  -785.841381323     A.U. after   27 cycles
 Normal termination of Gaussian 16 at Mon Dec 14 14:14:09 2020.
 Gaussian 16:  ES64L-G16RevA.03 25-Dec-2016

 ----------------------------------------------------------------------
 # B3LYP/6-311++G(d,p) empiricaldispersion=gd3bj scf=xqc pop=npa geom=c
 heck
 ----------------------------------------------------------------------

 -----------------------------------
 CID_64345689_JID_7936_Energie_anion
 -----------------------------------
 Structure from the checkpoint file:  "JID_7936.chk"
 Charge = -1 Multiplicity = 2

                         Standard orientation:
 ---------------------------------------------------------------------
 Center     Atomic      Atomic             Coordinates (Angstroms)
 Number     Number       Type             X           Y           Z
 ---------------------------------------------------------------------
      1          6           0       -5.411332   -0.133588    0.811144
      2          6           0       -4.131677   -0.217876   -0.028230
      3          6           0       -3.552728    1.184711   -0.267750
      4          6           0       -2.315187    1.237724   -1.185547
      5          6           0       -1.007861    0.930878   -0.465144
      6          8           0       -0.165953    1.811447   -0.295674
      7          7           0       -0.843480   -0.345026    0.006506
      8          6           0       -1.836740   -1.400738   -0.182434
      9          6           0       -3.134841   -1.196241    0.610562
     10          6           0        0.355981   -0.671944    0.779936
     11          6           0        1.369146   -1.518325   -0.003422
     12          6           0        1.925479   -0.835209   -1.258444
     13          6           0        2.786210    0.407744   -0.967440
     14          6           0        4.061415    0.011490   -0.248458
     15          8           0        4.947103   -0.647273   -0.780547
     16          7           0        4.214336    0.399269    1.064671
     17          7           0        3.251404    1.098356    1.798479
     18          1           0       -6.155729    0.515819    0.336539
     19          1           0       -5.197399    0.276337    1.806277
     20          1           0       -5.864078   -1.122404    0.948162
     21          1           0       -4.398468   -0.629607   -1.015105
     22          1           0       -4.339511    1.803103   -0.717614
     23          1           0       -3.307488    1.654951    0.694750
     24          1           0       -2.188174    2.246785   -1.582399
     25          1           0       -2.457812    0.564111   -2.041328
     26          1           0       -1.361521   -2.331845    0.135864
     27          1           0       -2.063923   -1.526232   -1.249107
     28          1           0       -2.876198   -0.861897    1.624934
     29          1           0       -3.630713   -2.170499    0.717382
     30          1           0        0.806212    0.271297    1.089694
     31          1           0        0.041990   -1.213992    1.682325
     32          1           0        2.192050   -1.778047    0.676427
     33          1           0        0.904164   -2.471253   -0.291518
     34          1           0        2.533884   -1.554976   -1.817460
     35          1           0        1.093414   -0.540202   -1.908541
     36          1           0        3.100691    0.844763   -1.921365
     37          1           0        2.212715    1.153778   -0.418402
     38          1           0        5.095645    0.120547    1.488337
     39          1           0        2.995136    0.570180    2.629739
     40          1           0        3.612899    2.005942    2.085944
 ---------------------------------------------------------------------

 SCF Done:  E(UB3LYP) =  -786.135244643     A.U. after   33 cycles
 SCF Done:  E(UB3LYP) =  -786.135244643     a.u. after    1 cycles

 The electronic state is 2-A.
 Alpha  occ. eigenvalues --  -18.98969 -18.98883 -14.26220 -14.24706 -14.24185
 Alpha  occ. eigenvalues --  -10.17472 -10.17225 -10.12112 -10.10126 -10.09256
 Alpha  occ. eigenvalues --  -10.09012 -10.08911 -10.08334 -10.07609 -10.07565
 Alpha  occ. eigenvalues --  -10.07499 -10.06857  -0.94492  -0.94187  -0.88201
 Alpha  occ. eigenvalues --   -0.84533  -0.74056  -0.71086  -0.69817  -0.68181
 Alpha  occ. eigenvalues --   -0.65545  -0.62965  -0.58198  -0.56408  -0.55559
 Alpha  occ. eigenvalues --   -0.50927  -0.48244  -0.46303  -0.44371  -0.44051
 Alpha  occ. eigenvalues --   -0.42127  -0.41662  -0.39828  -0.39397  -0.37268
 Alpha  occ. eigenvalues --   -0.36619  -0.36394  -0.35221  -0.34523  -0.33219
 Alpha  occ. eigenvalues --   -0.32696  -0.32006  -0.31081  -0.30150  -0.29711
 Alpha  occ. eigenvalues --   -0.29526  -0.28807  -0.27950  -0.27479  -0.26682
 Alpha  occ. eigenvalues --   -0.25156  -0.24512  -0.24033  -0.23763  -0.23502
 Alpha  occ. eigenvalues --   -0.23265  -0.18711  -0.16515  -0.16141  -0.15696
 Alpha  occ. eigenvalues --   -0.14896   0.03636
 Alpha virt. eigenvalues --    0.05022   0.06394   0.06659   0.07593   0.08375
 Alpha virt. eigenvalues --    0.08648   0.08965   0.09408   0.09840   0.10308
 Alpha virt. eigenvalues --    0.10516   0.10694   0.10900   0.11564   0.11893

  Beta  occ. eigenvalues --  -18.98965 -18.98881 -14.26199 -14.24705 -14.24114
  Beta  occ. eigenvalues --  -10.17471 -10.17226 -10.12096 -10.10111 -10.09244
  Beta  occ. eigenvalues --  -10.09007 -10.08901 -10.08312 -10.07583 -10.07563
  Beta  occ. eigenvalues --  -10.07487 -10.06852  -0.94477  -0.94180  -0.88136
  Beta  occ. eigenvalues --   -0.84521  -0.74031  -0.71045  -0.69721  -0.68159
  Beta  occ. eigenvalues --   -0.65517  -0.62938  -0.58169  -0.56361  -0.55527
  Beta  occ. eigenvalues --   -0.50895  -0.48195  -0.46272  -0.44289  -0.43983
  Beta  occ. eigenvalues --   -0.42067  -0.41617  -0.39809  -0.39373  -0.37243
  Beta  occ. eigenvalues --   -0.36602  -0.36368  -0.35191  -0.34492  -0.33196
  Beta  occ. eigenvalues --   -0.32677  -0.31990  -0.31065  -0.30130  -0.29690
  Beta  occ. eigenvalues --   -0.29506  -0.28774  -0.27934  -0.27456  -0.26666
  Beta  occ. eigenvalues --   -0.25139  -0.24471  -0.24005  -0.23745  -0.23477
  Beta  occ. eigenvalues --   -0.23249  -0.18643  -0.16489  -0.16131  -0.15682
  Beta  occ. eigenvalues --   -0.14878
  Beta virt. eigenvalues --    0.05689   0.06598   0.06753   0.07091   0.08078
  Beta virt. eigenvalues --    0.08477   0.08939   0.09501   0.09732   0.10114
  Beta virt. eigenvalues --    0.10527   0.10735   0.10945   0.10987   0.11597

 Mulliken charges and spin densities:
               1          2
     1  C    0.444943  -1.143493
     2  C   -0.480653   0.883295
     3  C    0.208780  -0.417949
     4  C   -0.282698  -0.085762
     5  C   -0.168165  -0.142920
     6  O   -0.283506  -0.002207
     7  N    0.252940   0.000509
     8  C    0.016701  -0.439800
     9  C    0.193466  -0.676913
    10  C   -0.257844  -0.115191
    11  C   -0.246658  -0.031935
    12  C   -0.081743  -0.087904
    13  C    0.190046  -0.364881
    14  C    0.004222  -0.170586
    15  O   -0.346224   0.022780
    16  N   -0.352314   0.115351
    17  N    0.016062  -0.431488
    18  H   -0.174331   0.308589
    19  H    0.035152   0.100241
    20  H   -0.251498   0.394845
    21  H   -0.179689   0.342199
    22  H    0.067528   0.106591
    23  H    0.097449   0.063496
    24  H    0.159842   0.040748
    25  H    0.130473   0.016571
    26  H    0.009108   0.164487
    27  H    0.042172   0.134268
    28  H    0.113058   0.048699
    29  H   -0.171052   0.327710
    30  H    0.531544  -0.245538
    31  H   -0.586318   0.788577
    32  H   -0.073549   0.248576
    33  H   -0.021876   0.143343
    34  H    0.236772  -0.040950
    35  H    0.104835   0.036786
    36  H    0.180195   0.007060
    37  H    0.287662  -0.077315
    38  H   -0.036691   0.340529
    39  H   -0.260176   0.502372
    40  H   -0.067966   0.337212
 Sum of Mulliken charges =  -1.00000   1.00000

 Dipole moment (field-independent basis, Debye):
    X=             -2.9540    Y=              1.2473    Z=             -3.8815  Tot=              5.0347
 Quadrupole moment (field-independent basis, Debye-Ang):
   XX=           -219.8248   YY=           -143.5737   ZZ=           -143.3330
   XY=             -5.2312   XZ=             -4.9603   YZ=              0.6236

 Summary of Natural Population Analysis:

                                       Natural Population
                Natural  -----------------------------------------------
    Atom  No    Charge         Core      Valence    Rydberg      Total
 -----------------------------------------------------------------------
      C    1   -0.28253      0.99965     2.27646    0.00642     3.28253
      C    2   -0.11086      0.99960     2.10159    0.00967     3.11086
      C    3   -0.18736      0.99960     2.17846    0.00930     3.18736
      C    4   -0.23028      0.99959     2.22341    0.00727     3.23028
      C    5    0.34704      0.99963     1.63085    0.02248     2.65296
      O    6   -0.32855      0.99988     3.32344    0.00523     4.32855
      N    7   -0.25924      0.99963     2.74853    0.01107     3.75924
      C    8   -0.08385      0.99960     2.07355    0.01070     3.08385
      C    9   -0.19379      0.99960     2.18502    0.00917     3.19379
      C   10   -0.09305      0.99959     2.08133    0.01212     3.09305
      C   11   -0.19593      0.99962     2.18800    0.00831     3.19593
      C   12   -0.18531      0.99962     2.17870    0.00699     3.18531
      C   13   -0.24265      0.99957     2.23471    0.00836     3.24265
      C   14    0.34258      0.99966     1.63332    0.02443     2.65742
      O   15   -0.33197      0.99988     3.32625    0.00584     4.33197
      N   16   -0.23648      0.99967     2.72148    0.01533     3.73648
      N   17   -0.31568      0.99976     2.80322    0.01270     3.81568
      H   18    0.09885      0.00000     0.40022    0.00092     0.40115
      H   19    0.09646      0.00000     0.40263    0.00091     0.40354
      H   20    0.10172      0.00000     0.39726    0.00103     0.39828
      H   21    0.09139      0.00000     0.40668    0.00193     0.40861
      H   22    0.09981      0.00000     0.39924    0.00096     0.40019
      H   23    0.09838      0.00000     0.40043    0.00119     0.40162
      H   24    0.11199      0.00000     0.38698    0.00103     0.38801
      H   25    0.10227      0.00000     0.39644    0.00129     0.39773
      H   26    0.10442      0.00000     0.39443    0.00114     0.39558
      H   27    0.09417      0.00000     0.40450    0.00133     0.40583
      H   28    0.09893      0.00000     0.39977    0.00129     0.40107
      H   29    0.10309      0.00000     0.39550    0.00141     0.39691
      H   30    0.12096      0.00000     0.37690    0.00213     0.37904
      H   31    0.09532      0.00000     0.40330    0.00138     0.40468
      H   32    0.10227      0.00000     0.39652    0.00120     0.39773
      H   33    0.09463      0.00000     0.40427    0.00111     0.40537
      H   34    0.10170      0.00000     0.39724    0.00106     0.39830
      H   35    0.09693      0.00000     0.40202    0.00106     0.40307
      H   36    0.10745      0.00000     0.39169    0.00086     0.39255
      H   37    0.12669      0.00000     0.37170    0.00161     0.37331
      H   38    0.18380      0.00000     0.31284    0.00336     0.31620
      H   39    0.18046      0.00000     0.31120    0.00834     0.31954
      H   40    0.17621      0.00000     0.32120    0.00259     0.32379
 =======================================================================
   * Total *    0.00000     16.99414    48.78129    0.22457    66.00000

 Normal termination of Gaussian 16 at Mon Dec 14 14:40:32 2020.
