 Gaussian 16, Revision A.03,

 -----------------------------------------------------------
 # opt freq B3LYP/6-31G(d) empiricaldispersion=gd3bj scf=xqc
 -----------------------------------------------------------

 ------------------------------
 CID_59623195_JID_2118_neutraal
 ------------------------------
 Symbolic Z-matrix:
 Charge =  0 Multiplicity = 1

 SCF Done:  E(RB3LYP) =  -485.404961330     A.U. after   13 cycles
 SCF Done:  E(RB3LYP) =  -485.407737906     A.U. after   10 cycles
 SCF Done:  E(RB3LYP) =  -485.407842194     A.U. after   10 cycles
 SCF Done:  E(RB3LYP) =  -485.408108174     A.U. after   10 cycles
 SCF Done:  E(RB3LYP) =  -485.408178836     A.U. after    9 cycles
 SCF Done:  E(RB3LYP) =  -485.408207930     A.U. after    9 cycles
 SCF Done:  E(RB3LYP) =  -485.408220712     A.U. after    9 cycles
 SCF Done:  E(RB3LYP) =  -485.408227006     A.U. after    9 cycles
 SCF Done:  E(RB3LYP) =  -485.408228358     A.U. after    7 cycles
 SCF Done:  E(RB3LYP) =  -485.408228501     A.U. after    6 cycles
 SCF Done:  E(RB3LYP) =  -485.408228554     A.U. after    6 cycles
 Optimization completed.
    -- Stationary point found.
 Normal termination of Gaussian 16 at Wed Dec  9 16:51:10 2020.

 --------------------------------------------------------------------
 #N Geom=AllCheck Guess=TCheck SCRF=Check GenChk RB3LYP/6-31G(d) Freq
 --------------------------------------------------------------------

 Structure from the checkpoint file:  "JID_2118.chk"
 ------------------------------
 CID_59623195_JID_2118_neutraal
 ------------------------------
 Charge =  0 Multiplicity = 1

 SCF Done:  E(RB3LYP) =  -485.408228554     A.U. after    1 cycles

  Exact polarizability: 118.547   1.868 112.602   0.321  -0.050 103.350
 Approx polarizability: 161.542   1.407 156.844   0.464  -0.696 159.002

                      1                      2                      3
                      A                      A                      A
 Frequencies --    102.6239               164.9982               176.3589
 Red. masses --      2.3284                 1.4755                 1.2514
 Frc consts  --      0.0144                 0.0237                 0.0229
 IR Inten    --      1.9398                 0.0479                 0.3417

                      4                      5                      6
                      A                      A                      A
 Frequencies --    195.5573               202.0336               258.5647
 Red. masses --      1.4480                 1.3796                 2.5798
 Frc consts  --      0.0326                 0.0332                 0.1016
 IR Inten    --      0.0039                 0.0550                 1.7175

                      7                      8                      9
                      A                      A                      A
 Frequencies --    278.2507               298.3672               312.2327
 Red. masses --      2.2311                 1.6417                 2.5025
 Frc consts  --      0.1018                 0.0861                 0.1437
 IR Inten    --      0.2547                 0.0502                 2.1104

                     10                     11                     12
                      A                      A                      A
 Frequencies --    373.1639               422.6503               441.2443
 Red. masses --      2.7007                 2.8881                 2.2781
 Frc consts  --      0.2216                 0.3040                 0.2613
 IR Inten    --      0.5167                 3.4289                 0.9504

                     13                     14                     15
                      A                      A                      A
 Frequencies --    462.0761               514.3914               551.9132
 Red. masses --      2.1502                 3.5449                 3.2020
 Frc consts  --      0.2705                 0.5526                 0.5747
 IR Inten    --      0.0368                 0.5977                 0.1395

                     16                     17                     18
                      A                      A                      A
 Frequencies --    615.3687               636.4643               712.2559
 Red. masses --      3.5211                 3.5742                 4.5618
 Frc consts  --      0.7856                 0.8530                 1.3635
 IR Inten    --      0.3494                 0.3326                18.0886

                     19                     20                     21
                      A                      A                      A
 Frequencies --    764.5307               790.9573               838.0865
 Red. masses --      1.9025                 2.3966                 3.2073
 Frc consts  --      0.6552                 0.8834                 1.3273
 IR Inten    --     42.6035                11.6512                 5.0940

                     22                     23                     24
                      A                      A                      A
 Frequencies --    844.6795               864.0427               883.8573
 Red. masses --      2.0723                 2.2248                 2.9556
 Frc consts  --      0.8711                 0.9786                 1.3604
 IR Inten    --     20.5378                19.2290                 4.4809

                     25                     26                     27
                      A                      A                      A
 Frequencies --    925.1436               947.7214               953.1869
 Red. masses --      2.4376                 1.7738                 2.3900
 Frc consts  --      1.2292                 0.9387                 1.2794
 IR Inten    --      1.8271                 5.4145                 0.6751

                     28                     29                     30
                      A                      A                      A
 Frequencies --    963.7503               973.1397               975.9716
 Red. masses --      1.5987                 1.6481                 1.7464
 Frc consts  --      0.8749                 0.9195                 0.9801
 IR Inten    --      0.6530                 1.0020                 0.9425

                     31                     32                     33
                      A                      A                      A
 Frequencies --    996.7652              1008.4465              1027.2400
 Red. masses --      1.9321                 1.8821                 1.5077
 Frc consts  --      1.1310                 1.1277                 0.9373
 IR Inten    --      0.6931                 2.3436                 0.8636

                     34                     35                     36
                      A                      A                      A
 Frequencies --   1056.4150              1069.4685              1081.2835
 Red. masses --      1.4977                 2.1289                 2.0409
 Frc consts  --      0.9848                 1.4346                 1.4059
 IR Inten    --      0.7167                 3.1289                10.4958

                     37                     38                     39
                      A                      A                      A
 Frequencies --   1085.0686              1120.7215              1138.4571
 Red. masses --      1.5501                 2.2146                 2.3103
 Frc consts  --      1.0753                 1.6388                 1.7642
 IR Inten    --      0.6900                13.8442                 4.5651

                     40                     41                     42
                      A                      A                      A
 Frequencies --   1167.9242              1182.4672              1203.8491
 Red. masses --      1.2423                 1.4616                 1.6402
 Frc consts  --      0.9984                 1.2041                 1.4005
 IR Inten    --      2.0684                 2.4685                 2.9635

                     43                     44                     45
                      A                      A                      A
 Frequencies --   1212.7108              1233.3897              1250.7315
 Red. masses --      2.1809                 1.9677                 1.5409
 Frc consts  --      1.8897                 1.7636                 1.4203
 IR Inten    --      5.4228                 0.8894                 2.2973

                     46                     47                     48
                      A                      A                      A
 Frequencies --   1262.6235              1278.3753              1293.7293
 Red. masses --      1.4981                 1.5261                 1.6896
 Frc consts  --      1.4071                 1.4694                 1.6662
 IR Inten    --      0.8768                 0.4635                 0.7789

                     49                     50                     51
                      A                      A                      A
 Frequencies --   1297.0630              1314.9572              1323.0754
 Red. masses --      1.6929                 1.6626                 1.4235
 Frc consts  --      1.6780                 1.6938                 1.4682
 IR Inten    --      1.1332                 0.7656                 0.9391

                     52                     53                     54
                      A                      A                      A
 Frequencies --   1345.4870              1348.9397              1367.7663
 Red. masses --      1.3893                 1.3706                 1.7287
 Frc consts  --      1.4819                 1.4694                 1.9055
 IR Inten    --      0.4313                 2.2603                 4.6362

                     55                     56                     57
                      A                      A                      A
 Frequencies --   1403.5175              1428.9388              1431.8522
 Red. masses --      1.4733                 1.2952                 1.2650
 Frc consts  --      1.7099                 1.5582                 1.5281
 IR Inten    --      4.8855                 1.6701                 1.2428

                     58                     59                     60
                      A                      A                      A
 Frequencies --   1438.7696              1453.5467              1468.0947
 Red. masses --      1.2404                 1.2116                 1.2365
 Frc consts  --      1.5128                 1.5082                 1.5702
 IR Inten    --      6.5451                 3.4959                 3.2612

                     61                     62                     63
                      A                      A                      A
 Frequencies --   1517.0812              1519.1143              1527.1576
 Red. masses --      1.0467                 1.0530                 1.0587
 Frc consts  --      1.4193                 1.4317                 1.4547
 IR Inten    --      2.9235                 1.6048                 1.5762

                     64                     65                     66
                      A                      A                      A
 Frequencies --   1531.4257              1539.6920              1544.2223
 Red. masses --      1.0532                 1.0588                 1.0762
 Frc consts  --      1.4553                 1.4789                 1.5121
 IR Inten    --      1.5416                 2.6464                 3.0662

                     67                     68                     69
                      A                      A                      A
 Frequencies --   1551.6954              1560.6398              3039.6969
 Red. masses --      1.0679                 1.0652                 1.0591
 Frc consts  --      1.5149                 1.5285                 5.7655
 IR Inten    --      8.5126                 3.3441                65.2572

                     70                     71                     72
                      A                      A                      A
 Frequencies --   3043.6968              3046.9424              3050.4205
 Red. masses --      1.0409                 1.0458                 1.0433
 Frc consts  --      5.6812                 5.7204                 5.7197
 IR Inten    --     12.2927                31.9749                55.4121

                     73                     74                     75
                      A                      A                      A
 Frequencies --   3055.6992              3066.7746              3072.5285
 Red. masses --      1.0766                 1.0825                 1.0888
 Frc consts  --      5.9226                 5.9985                 6.0561
 IR Inten    --     11.4868                10.9433                47.0166

                     76                     77                     78
                      A                      A                      A
 Frequencies --   3080.3840              3086.5535              3090.2918
 Red. masses --      1.0867                 1.0860                 1.0876
 Frc consts  --      6.0753                 6.0955                 6.1195
 IR Inten    --     13.5371                58.7552                39.6423

                     79                     80                     81
                      A                      A                      A
 Frequencies --   3096.3865              3098.5966              3102.4134
 Red. masses --      1.1017                 1.0931                 1.1014
 Frc consts  --      6.2236                 6.1836                 6.2459
 IR Inten    --      1.5055                14.5004                14.9228

                     82                     83                     84
                      A                      A                      A
 Frequencies --   3103.7102              3112.7371              3142.3014
 Red. masses --      1.1004                 1.1001                 1.0978
 Frc consts  --      6.2454                 6.2799                 6.3866
 IR Inten    --     97.5118                54.2602                42.0929

                     85                     86                     87
                      A                      A                      A
 Frequencies --   3147.8312              3166.2974              3501.3613
 Red. masses --      1.0952                 1.0928                 1.0754
 Frc consts  --      6.3938                 6.4550                 7.7677
 IR Inten    --     35.8661                21.4740                 1.4048

 - Thermochemistry -
 -------------------
 Temperature   298.150 Kelvin.  Pressure   1.00000 Atm.
 Atom     1 has atomic number  6 and mass  12.00000

 Molecular mass:   165.15175 amu.
 Principal axes and moments of inertia in atomic units:
                           1         2         3
     Eigenvalues --  1402.175691728.247182274.55458
           X            0.99969   0.02173  -0.01227
           Y           -0.02175   0.99976  -0.00171
           Z            0.01223   0.00198   0.99992
 This molecule is an asymmetric top.
 Rotational symmetry number  1.
 Warning -- assumption of classical behavior for rotation
           may cause significant error
 Rotational temperatures (Kelvin)      0.06177     0.05012     0.03808
 Rotational constants (GHZ):           1.28710     1.04426     0.79345
 Zero-point vibrational energy     754430.4 (Joules/Mol)
                                  180.31319 (Kcal/Mol)
 Warning -- explicit consideration of  16 degrees of freedom as
           vibrations may cause significant error
 Vibrational temperatures:    147.65   237.40   253.74   281.36   290.68
          (Kelvin)            372.02   400.34   429.28   449.23   536.90
                              608.10   634.85   664.82   740.09   794.08
                              885.38   915.73  1024.78  1099.99  1138.01
                             1205.82  1215.31  1243.16  1271.67  1331.08
                             1363.56  1371.42  1386.62  1400.13  1404.21
                             1434.12  1450.93  1477.97  1519.95  1538.73
                             1555.73  1561.17  1612.47  1637.99  1680.38
                             1701.31  1732.07  1744.82  1774.57  1799.52
                             1816.63  1839.30  1861.39  1866.18  1891.93
                             1903.61  1935.86  1940.82  1967.91  2019.35
                             2055.92  2060.12  2070.07  2091.33  2112.26
                             2182.74  2185.67  2197.24  2203.38  2215.27
                             2221.79  2232.54  2245.41  4373.45  4379.20
                             4383.87  4388.87  4396.47  4412.40  4420.68
                             4431.99  4440.86  4446.24  4455.01  4458.19
                             4463.68  4465.55  4478.53  4521.07  4529.03
                             4555.60  5037.68

 Zero-point correction=                           0.287347 (Hartree/Particle)
 Thermal correction to Energy=                    0.298166
 Thermal correction to Enthalpy=                  0.299110
 Thermal correction to Gibbs Free Energy=         0.252196
 Sum of electronic and zero-point Energies=           -485.120881
 Sum of electronic and thermal Energies=              -485.110062
 Sum of electronic and thermal Enthalpies=            -485.109118
 Sum of electronic and thermal Free Energies=         -485.156033

                     E (Thermal)             CV                S
                      KCal/Mol        Cal/Mol-Kelvin    Cal/Mol-Kelvin
 Total                  187.102             45.493             98.741
 Electronic               0.000              0.000              0.000
 Translational            0.889              2.981             41.213
 Rotational               0.889              2.981             30.090
 Vibrational            185.325             39.531             27.438
 Vibration     1          0.605              1.947              3.404
 Vibration     2          0.623              1.885              2.492
 Vibration     3          0.628              1.871              2.367
 Vibration     4          0.636              1.846              2.174
 Vibration     5          0.639              1.837              2.114
 Vibration     6          0.667              1.748              1.671
 Vibration     7          0.679              1.714              1.544
 Vibration     8          0.691              1.677              1.426
 Vibration     9          0.701              1.650              1.350
 Vibration    10          0.745              1.527              1.067
 Vibration    11          0.785              1.421              0.883
 Vibration    12          0.801              1.380              0.823
 Vibration    13          0.820              1.334              0.760
 Vibration    14          0.869              1.218              0.623
 Vibration    15          0.907              1.135              0.540
 Vibration    16          0.975              0.999              0.424

 Optimization completed.
    -- Stationary point found.
 Normal termination of Gaussian 16 at Wed Dec  9 17:00:30 2020.

 ----------------------------------------------------------------------
 # B3LYP/6-311++G(d,p) empiricaldispersion=gd3bj scf=xqc pop=npa geom=c
 heck
 ----------------------------------------------------------------------

 --------------------------------------
 CID_59623195_JID_2118_Energie_neutraal
 --------------------------------------
 Structure from the checkpoint file:  "JID_2118.chk"
 Charge =  0 Multiplicity = 1

 SCF Done:  E(RB3LYP) =  -485.539177970     A.U. after   13 cycles
 Normal termination of Gaussian 16 at Wed Dec  9 17:03:46 2020.

 ----------------------------------------------------------------------
 # B3LYP/6-311++G(d,p) empiricaldispersion=gd3bj scf=xqc pop=npa geom=c
 heck
 ----------------------------------------------------------------------

 ------------------------------------
 CID_59623195_JID_2118_Energie_kation
 ------------------------------------
 Structure from the checkpoint file:  "JID_2118.chk"
 Charge =  1 Multiplicity = 2

 SCF Done:  E(UB3LYP) =  -485.238721644     A.U. after   19 cycles
 Normal termination of Gaussian 16 at Wed Dec  9 17:10:51 2020.
 Gaussian 16:  ES64L-G16RevA.03 25-Dec-2016

 ----------------------------------------------------------------------
 # B3LYP/6-311++G(d,p) empiricaldispersion=gd3bj scf=xqc pop=npa geom=c
 heck
 ----------------------------------------------------------------------

 -----------------------------------
 CID_59623195_JID_2118_Energie_anion
 -----------------------------------
 Structure from the checkpoint file:  "JID_2118.chk"
 Charge = -1 Multiplicity = 2

                         Standard orientation:
 ---------------------------------------------------------------------
 Center     Atomic      Atomic             Coordinates (Angstroms)
 Number     Number       Type             X           Y           Z
 ---------------------------------------------------------------------
      1          6           0        0.291685    2.713599    0.548729
      2          6           0       -0.287433    1.297333    0.585061
      3          6           0        0.649061    0.161317    1.078793
      4          6           0       -0.301710   -0.985956    1.488804
      5          6           0       -0.927724   -1.424792    0.121003
      6          6           0       -2.367288   -0.905508   -0.107378
      7          7           0       -2.247632    0.437430   -0.734229
      8          6           0       -0.806459    0.732976   -0.785104
      9          6           0       -0.068670   -0.630259   -0.901546
     10          6           0        1.297092   -0.415160   -0.222830
     11          6           0        2.211578    0.543364   -1.002870
     12          6           0        2.097848   -1.708770    0.002524
     13          1           0        0.554113    3.044125    1.560894
     14          1           0       -0.456433    3.413363    0.156785
     15          1           0        1.189338    2.806097   -0.066489
     16          1           0       -1.156743    1.348525    1.250192
     17          1           0        1.354398    0.463732    1.860163
     18          1           0       -1.065274   -0.646959    2.197036
     19          1           0        0.233983   -1.810503    1.966625
     20          1           0       -0.874961   -2.508738   -0.010864
     21          1           0       -2.916270   -0.841975    0.840413
     22          1           0       -2.932954   -1.580996   -0.760572
     23          1           0       -2.598401    0.383890   -1.687347
     24          1           0       -0.608895    1.428262   -1.606509
     25          1           0       -0.053094   -1.049762   -1.913139
     26          1           0        3.033651    0.903849   -0.372742
     27          1           0        2.658547    0.018925   -1.855949
     28          1           0        1.688042    1.412353   -1.402359
     29          1           0        1.523968   -2.498553    0.491353
     30          1           0        2.448363   -2.106986   -0.957003
     31          1           0        2.984173   -1.509527    0.618008
 ---------------------------------------------------------------------

 SCF Done:  E(UB3LYP) =  -485.523098137     A.U. after   28 cycles

 The electronic state is 2-A.
 Alpha  occ. eigenvalues --  -14.18239 -10.08237 -10.07668 -10.07216 -10.06184
 Alpha  occ. eigenvalues --  -10.06088 -10.06076 -10.05619 -10.05471 -10.05393
 Alpha  occ. eigenvalues --  -10.05026 -10.04741  -0.81554  -0.74579  -0.66608
 Alpha  occ. eigenvalues --   -0.65583  -0.60626  -0.59350  -0.57437  -0.53005
 Alpha  occ. eigenvalues --   -0.51627  -0.44549  -0.42947  -0.42211  -0.40715
 Alpha  occ. eigenvalues --   -0.37947  -0.34833  -0.33427  -0.32845  -0.31019
 Alpha  occ. eigenvalues --   -0.30642  -0.29635  -0.29194  -0.28414  -0.27467
 Alpha  occ. eigenvalues --   -0.26271  -0.25549  -0.23846  -0.23548  -0.21844
 Alpha  occ. eigenvalues --   -0.21013  -0.20679  -0.20301  -0.18813  -0.18738
 Alpha  occ. eigenvalues --   -0.11574   0.04747
 Alpha virt. eigenvalues --    0.07153   0.07561   0.07968   0.09425   0.09563
 Alpha virt. eigenvalues --    0.09869   0.09964   0.10339   0.12109   0.12374
 Alpha virt. eigenvalues --    0.12604   0.12811   0.13296   0.13507   0.13683

  Beta  occ. eigenvalues --  -14.18222 -10.08226 -10.07648 -10.07214 -10.06175
  Beta  occ. eigenvalues --  -10.06077 -10.06074 -10.05605 -10.05459 -10.05374
  Beta  occ. eigenvalues --  -10.05002 -10.04711  -0.81520  -0.74556  -0.66584
  Beta  occ. eigenvalues --   -0.65551  -0.60587  -0.59314  -0.57383  -0.52962
  Beta  occ. eigenvalues --   -0.51579  -0.44505  -0.42913  -0.42167  -0.40633
  Beta  occ. eigenvalues --   -0.37907  -0.34802  -0.33384  -0.32817  -0.30993
  Beta  occ. eigenvalues --   -0.30615  -0.29611  -0.29165  -0.28371  -0.27439
  Beta  occ. eigenvalues --   -0.26237  -0.25512  -0.23820  -0.23515  -0.21813
  Beta  occ. eigenvalues --   -0.20985  -0.20651  -0.20271  -0.18779  -0.18714
  Beta  occ. eigenvalues --   -0.11551
  Beta virt. eigenvalues --    0.07005   0.07995   0.08364   0.08408   0.10078
  Beta virt. eigenvalues --    0.10083   0.10300   0.10460   0.10692   0.12679
  Beta virt. eigenvalues --    0.12834   0.13039   0.13191   0.13614   0.13745

 Mulliken charges and spin densities:
               1          2
     1  C    0.552176  -1.264479
     2  C   -0.245332   0.159066
     3  C   -0.132589   0.585517
     4  C    0.024670  -0.740061
     5  C   -0.114879   0.265398
     6  C    0.728253  -1.421616
     7  N   -0.233195   0.194863
     8  C    0.524108  -0.970230
     9  C    0.141678  -0.240107
    10  C   -1.139303   1.136781
    11  C    0.419237  -0.973640
    12  C    0.660533  -1.139934
    13  H   -0.024612   0.150048
    14  H   -0.033529   0.172797
    15  H    0.173166  -0.041058
    16  H    0.256329  -0.038396
    17  H   -0.049039   0.304741
    18  H   -0.022092   0.136839
    19  H   -0.231557   0.372536
    20  H   -0.285279   0.517225
    21  H    0.187542  -0.036976
    22  H   -0.652952   0.813622
    23  H   -0.095272   0.327632
    24  H   -0.152674   0.395675
    25  H   -0.494397   0.757703
    26  H   -0.096008   0.240900
    27  H   -0.143378   0.277991
    28  H   -0.060406   0.179463
    29  H   -0.086762   0.227628
    30  H   -0.090251   0.225500
    31  H   -0.284185   0.424573
 Sum of Mulliken charges =  -1.00000   1.00000

 Dipole moment (field-independent basis, Debye):
    X=              0.5407    Y=              3.3129    Z=              3.2553  Tot=              4.6760
 Quadrupole moment (field-independent basis, Debye-Ang):
   XX=           -127.5082   YY=           -121.8344   ZZ=           -117.0688
   XY=             -0.3000   XZ=             -7.6126   YZ=             -1.6578

 Summary of Natural Population Analysis:

                                       Natural Population
                Natural  -----------------------------------------------
    Atom  No    Charge         Core      Valence    Rydberg      Total
 -----------------------------------------------------------------------
      C    1   -0.27939      0.99964     2.27509    0.00466     3.27939
      C    2   -0.11676      0.99957     2.10615    0.01104     3.11676
      C    3   -0.10243      0.99955     2.09053    0.01235     3.10243
      C    4   -0.18809      0.99962     2.17879    0.00968     3.18809
      C    5   -0.12087      0.99960     2.10863    0.01265     3.12087
      C    6   -0.08698      0.99961     2.07573    0.01164     3.08698
      N    7   -0.34394      0.99974     2.83187    0.01233     3.84394
      C    8   -0.00633      0.99957     1.99091    0.01585     3.00633
      C    9   -0.11159      0.99954     2.09714    0.01491     3.11159
      C   10   -0.04378      0.99954     2.02934    0.01489     3.04378
      C   11   -0.28378      0.99961     2.27724    0.00693     3.28378
      C   12   -0.28371      0.99962     2.27693    0.00716     3.28371
      H   13    0.09579      0.00000     0.40331    0.00090     0.40421
      H   14    0.09831      0.00000     0.40073    0.00095     0.40169
      H   15    0.09759      0.00000     0.40139    0.00102     0.40241
      H   16    0.10006      0.00000     0.39817    0.00178     0.39994
      H   17    0.10090      0.00000     0.39783    0.00126     0.39910
      H   18    0.09607      0.00000     0.40265    0.00128     0.40393
      H   19    0.10174      0.00000     0.39715    0.00111     0.39826
      H   20    0.10851      0.00000     0.38957    0.00192     0.39149
      H   21    0.08549      0.00000     0.41304    0.00146     0.41451
      H   22    0.09536      0.00000     0.40265    0.00199     0.40464
      H   23    0.17653      0.00000     0.32018    0.00329     0.32347
      H   24    0.10011      0.00000     0.39851    0.00138     0.39989
      H   25    0.10951      0.00000     0.38746    0.00303     0.39049
      H   26    0.09918      0.00000     0.39985    0.00096     0.40082
      H   27    0.10100      0.00000     0.39805    0.00095     0.39900
      H   28    0.09973      0.00000     0.39909    0.00118     0.40027
      H   29    0.10199      0.00000     0.39672    0.00129     0.39801
      H   30    0.10064      0.00000     0.39831    0.00105     0.39936
      H   31    0.09913      0.00000     0.39977    0.00110     0.40087
 =======================================================================
   * Total *   -0.00000     11.99520    33.84279    0.16201    46.00000

 Normal termination of Gaussian 16 at Wed Dec  9 17:20:11 2020.
