 Gaussian 16, Revision A.03,

 -----------------------------------------------------------
 # opt freq B3LYP/6-31G(d) empiricaldispersion=gd3bj scf=xqc
 -----------------------------------------------------------

 ------------------------------
 CID_13388958_JID_6673_neutraal
 ------------------------------
 Symbolic Z-matrix:
 Charge =  0 Multiplicity = 1

 SCF Done:  E(RB3LYP) =  -786.313133724     A.U. after   14 cycles
 SCF Done:  E(RB3LYP) =  -786.315041184     A.U. after   13 cycles
 SCF Done:  E(RB3LYP) =  -786.313099317     A.U. after   13 cycles
 SCF Done:  E(RB3LYP) =  -786.319386265     A.U. after   11 cycles
 SCF Done:  E(RB3LYP) =  -786.319244895     A.U. after   13 cycles
 SCF Done:  E(RB3LYP) =  -786.321234253     A.U. after   13 cycles
 SCF Done:  E(RB3LYP) =  -786.321142251     A.U. after   13 cycles
 SCF Done:  E(RB3LYP) =  -786.321454194     A.U. after   12 cycles
 SCF Done:  E(RB3LYP) =  -786.321661510     A.U. after   11 cycles
 SCF Done:  E(RB3LYP) =  -786.321778560     A.U. after   10 cycles
 SCF Done:  E(RB3LYP) =  -786.321875526     A.U. after    8 cycles
 SCF Done:  E(RB3LYP) =  -786.321879826     A.U. after   10 cycles
 SCF Done:  E(RB3LYP) =  -786.321881631     A.U. after    9 cycles
 SCF Done:  E(RB3LYP) =  -786.321881963     A.U. after    7 cycles
 SCF Done:  E(RB3LYP) =  -786.321882063     A.U. after    7 cycles
 Optimization completed.
    -- Stationary point found.
 Normal termination of Gaussian 16 at Fri Dec 11 00:19:48 2020.

 --------------------------------------------------------------------
 #N Geom=AllCheck Guess=TCheck SCRF=Check GenChk RB3LYP/6-31G(d) Freq
 --------------------------------------------------------------------

 Structure from the checkpoint file:  "JID_6673.chk"
 ------------------------------
 CID_13388958_JID_6673_neutraal
 ------------------------------
 Charge =  0 Multiplicity = 1

 SCF Done:  E(RB3LYP) =  -786.321882063     A.U. after    1 cycles

  Exact polarizability: 141.791  -7.002 127.668   1.171   2.518 115.171
 Approx polarizability: 177.724 -10.511 173.181   5.577   9.286 189.492

                      1                      2                      3
                      A                      A                      A
 Frequencies --     32.8500                42.8403                59.3917
 Red. masses --      3.3506                 4.3439                 3.3083
 Frc consts  --      0.0021                 0.0047                 0.0069
 IR Inten    --      0.1700                 1.0804                 0.6149

                      4                      5                      6
                      A                      A                      A
 Frequencies --     71.0427                80.7541               109.1635
 Red. masses --      3.0242                 2.9556                 2.7724
 Frc consts  --      0.0090                 0.0114                 0.0195
 IR Inten    --      1.8753                 1.0650                 1.0787

                      7                      8                      9
                      A                      A                      A
 Frequencies --    124.4504               143.0376               148.8915
 Red. masses --      3.1803                 4.9571                 1.4948
 Frc consts  --      0.0290                 0.0598                 0.0195
 IR Inten    --      0.2248                 1.9977                 1.5382

                     10                     11                     12
                      A                      A                      A
 Frequencies --    156.8973               183.0098               208.0396
 Red. masses --      2.5322                 2.8328                 2.5119
 Frc consts  --      0.0367                 0.0559                 0.0641
 IR Inten    --      0.6755                 3.4672                 0.1206

                     13                     14                     15
                      A                      A                      A
 Frequencies --    229.2067               256.8135               267.9330
 Red. masses --      1.9415                 2.1094                 1.6435
 Frc consts  --      0.0601                 0.0820                 0.0695
 IR Inten    --      3.8905                 7.6790                 1.1812

                     16                     17                     18
                      A                      A                      A
 Frequencies --    309.1531               333.2338               343.8479
 Red. masses --      2.2132                 2.7726                 3.4138
 Frc consts  --      0.1246                 0.1814                 0.2378
 IR Inten    --      2.2008                16.2200                 6.4891

                     19                     20                     21
                      A                      A                      A
 Frequencies --    388.8115               422.4544               431.8124
 Red. masses --      2.2862                 3.6008                 5.9332
 Frc consts  --      0.2036                 0.3786                 0.6518
 IR Inten    --      1.4845                 3.0934                 2.0271

                     22                     23                     24
                      A                      A                      A
 Frequencies --    447.7959               498.7158               600.4395
 Red. masses --      4.3707                 3.9657                 2.8433
 Frc consts  --      0.5164                 0.5811                 0.6040
 IR Inten    --      4.7937                 7.7950                 4.9879

                     25                     26                     27
                      A                      A                      A
 Frequencies --    623.5113               688.5871               728.3118
 Red. masses --      2.3224                 2.6946                 3.8735
 Frc consts  --      0.5320                 0.7528                 1.2106
 IR Inten    --      2.5583                 3.6329                12.3823

                     28                     29                     30
                      A                      A                      A
 Frequencies --    759.6286               777.8057               789.3347
 Red. masses --      5.1077                 5.0601                 1.5019
 Frc consts  --      1.7365                 1.8036                 0.5513
 IR Inten    --     20.3761                14.8737                 5.4242

                     31                     32                     33
                      A                      A                      A
 Frequencies --    816.6725               854.1798               860.4513
 Red. masses --      2.1893                 2.1313                 2.6255
 Frc consts  --      0.8603                 0.9162                 1.1453
 IR Inten    --      1.9313                 1.7389                 8.5609

                     34                     35                     36
                      A                      A                      A
 Frequencies --    880.3954               907.9240               916.9638
 Red. masses --      2.7377                 2.4389                 2.1746
 Frc consts  --      1.2502                 1.1845                 1.0773
 IR Inten    --     12.6547                11.9187                 5.7783

                     37                     38                     39
                      A                      A                      A
 Frequencies --    918.0623               981.2748              1004.6627
 Red. masses --      2.7249                 2.2570                 2.5401
 Frc consts  --      1.3531                 1.2805                 1.5106
 IR Inten    --      0.5449                 0.9816                 3.7725

                     40                     41                     42
                      A                      A                      A
 Frequencies --   1019.9970              1053.6109              1065.3376
 Red. masses --      2.4487                 2.6652                 3.9370
 Frc consts  --      1.5010                 1.7432                 2.6326
 IR Inten    --      5.6418                33.7853                21.5575

                     43                     44                     45
                      A                      A                      A
 Frequencies --   1080.9844              1087.4510              1106.9613
 Red. masses --      2.8038                 3.2254                 2.2011
 Frc consts  --      1.9304                 2.2473                 1.5891
 IR Inten    --     17.6491                53.5916                74.1325

                     46                     47                     48
                      A                      A                      A
 Frequencies --   1133.5669              1136.6782              1175.0591
 Red. masses --      2.0559                 2.0243                 2.3966
 Frc consts  --      1.5565                 1.5410                 1.9497
 IR Inten    --     53.5568                 7.6143                55.5119

                     49                     50                     51
                      A                      A                      A
 Frequencies --   1191.0011              1210.5427              1222.2859
 Red. masses --      1.2871                 1.7312                 1.4484
 Frc consts  --      1.0757                 1.4947                 1.2750
 IR Inten    --      0.2817                 7.3175                 4.3141

                     52                     53                     54
                      A                      A                      A
 Frequencies --   1228.1864              1252.6556              1273.0945
 Red. masses --      1.4385                 1.5439                 1.2420
 Frc consts  --      1.2785                 1.4274                 1.1861
 IR Inten    --      0.7763                42.9939                20.3859

                     55                     56                     57
                      A                      A                      A
 Frequencies --   1302.2298              1311.8750              1316.2982
 Red. masses --      3.5275                 1.6496                 1.9973
 Frc consts  --      3.5244                 1.6727                 2.0389
 IR Inten    --    170.7734                77.0694               166.2169

                     58                     59                     60
                      A                      A                      A
 Frequencies --   1341.5980              1342.0442              1356.2643
 Red. masses --      1.2652                 1.4097                 1.3752
 Frc consts  --      1.3417                 1.4960                 1.4904
 IR Inten    --     42.8178                 8.8517                12.9471

                     61                     62                     63
                      A                      A                      A
 Frequencies --   1367.0075              1374.4507              1391.1558
 Red. masses --      1.3233                 1.2323                 1.3328
 Frc consts  --      1.4569                 1.3716                 1.5198
 IR Inten    --     10.8444                20.8912                 7.3000

                     64                     65                     66
                      A                      A                      A
 Frequencies --   1404.2501              1418.4482              1429.8625
 Red. masses --      1.4168                 1.2916                 1.2465
 Frc consts  --      1.6461                 1.5311                 1.5015
 IR Inten    --     13.5118                 8.8710                 6.7898

                     67                     68                     69
                      A                      A                      A
 Frequencies --   1444.4508              1489.3900              1510.4161
 Red. masses --      1.3632                 1.2157                 1.0464
 Frc consts  --      1.6758                 1.5889                 1.4065
 IR Inten    --     11.3871                13.9285                 2.2814

                     70                     71                     72
                      A                      A                      A
 Frequencies --   1515.7463              1518.9785              1520.1517
 Red. masses --      1.0488                 1.0744                 1.0772
 Frc consts  --      1.4197                 1.4605                 1.4667
 IR Inten    --      8.1691                 4.3580                 1.2547

                     73                     74                     75
                      A                      A                      A
 Frequencies --   1522.9557              1528.8354              1529.8194
 Red. masses --      1.0681                 1.0476                 1.0675
 Frc consts  --      1.4597                 1.4427                 1.4720
 IR Inten    --      7.6589                 4.8033                 5.9308

                     76                     77                     78
                      A                      A                      A
 Frequencies --   1540.4531              1541.3980              1554.1254
 Red. masses --      1.0616                 1.0855                 1.0738
 Frc consts  --      1.4842                 1.5195                 1.5280
 IR Inten    --      5.7046                 3.5831                 5.7942

                     79                     80                     81
                      A                      A                      A
 Frequencies --   1796.9313              1817.6667              3018.2736
 Red. masses --     10.4263                11.0225                 1.0830
 Frc consts  --     19.8355                21.4565                 5.8132
 IR Inten    --    167.2042               225.0638                22.3042

                     82                     83                     84
                      A                      A                      A
 Frequencies --   3044.0583              3060.2242              3065.2482
 Red. masses --      1.0756                 1.0366                 1.0569
 Frc consts  --      5.8721                 5.7195                 5.8510
 IR Inten    --     32.0368                20.1968                41.4635

                     85                     86                     87
                      A                      A                      A
 Frequencies --   3066.6205              3069.4579              3085.4998
 Red. masses --      1.0396                 1.0845                 1.0286
 Frc consts  --      5.7605                 6.0203                 5.7699
 IR Inten    --      6.1853                16.9352                30.6305

                     88                     89                     90
                      A                      A                      A
 Frequencies --   3088.4161              3101.5818              3110.7141
 Red. masses --      1.0704                 1.0606                 1.0996
 Frc consts  --      6.0153                 6.0116                 6.2692
 IR Inten    --     26.9416                15.3574                40.0240

                     91                     92                     93
                      A                      A                      A
 Frequencies --   3125.5002              3134.9920              3143.8236
 Red. masses --      1.0998                 1.1024                 1.1033
 Frc consts  --      6.3301                 6.3838                 6.4249
 IR Inten    --     30.0043                20.6945                 4.8683

                     94                     95                     96
                      A                      A                      A
 Frequencies --   3148.0035              3151.9454              3163.7524
 Red. masses --      1.1041                 1.0998                 1.1081
 Frc consts  --      6.4468                 6.4377                 6.5347
 IR Inten    --     12.8551                19.5645                27.6885

                     97                     98                     99
                      A                      A                      A
 Frequencies --   3165.4743              3171.9716              3189.2881
 Red. masses --      1.0914                 1.1074                 1.1084
 Frc consts  --      6.4436                 6.5648                 6.6423
 IR Inten    --     24.9733                 9.2097                12.8796

 - Thermochemistry -
 -------------------
 Temperature   298.150 Kelvin.  Pressure   1.00000 Atm.
 Atom     1 has atomic number  6 and mass  12.00000

 Molecular mass:   229.13141 amu.
 Principal axes and moments of inertia in atomic units:
                           1         2         3
     Eigenvalues --  2503.188153921.656945195.28816
           X            0.99991  -0.01176   0.00586
           Y            0.01172   0.99992   0.00560
           Z           -0.00593  -0.00553   0.99997
 This molecule is an asymmetric top.
 Rotational symmetry number  1.
 Warning -- assumption of classical behavior for rotation
           may cause significant error
 Rotational temperatures (Kelvin)      0.03460     0.02209     0.01667
 Rotational constants (GHZ):           0.72098     0.46020     0.34738
 Zero-point vibrational energy     795082.5 (Joules/Mol)
                                  190.02928 (Kcal/Mol)
 Warning -- explicit consideration of  24 degrees of freedom as
           vibrations may cause significant error
 Vibrational temperatures:     47.26    61.64    85.45   102.21   116.19
          (Kelvin)            157.06   179.06   205.80   214.22   225.74
                              263.31   299.32   329.78   369.50   385.50
                              444.80   479.45   494.72   559.41   607.82
                              621.28   644.28   717.54   863.90   897.09
                              990.72  1047.88  1092.94  1119.09  1135.68
                             1175.01  1228.97  1238.00  1266.69  1306.30
                             1319.31  1320.89  1411.84  1445.49  1467.55
                             1515.91  1532.78  1555.30  1564.60  1592.67
                             1630.95  1635.43  1690.65  1713.58  1741.70
                             1758.60  1767.09  1802.29  1831.70  1873.62
                             1887.50  1893.86  1930.26  1930.90  1951.36
                             1966.82  1977.53  2001.56  2020.40  2040.83
                             2057.25  2078.24  2142.90  2173.15  2180.82
                             2185.47  2187.16  2191.19  2199.65  2201.07
                             2216.37  2217.73  2236.04  2585.38  2615.22
                             4342.62  4379.72  4402.98  4410.21  4412.18
                             4416.27  4439.35  4443.54  4462.48  4475.62
                             4496.90  4510.55  4523.26  4529.27  4534.95
                             4551.93  4554.41  4563.76  4588.67

 Zero-point correction=                           0.302831 (Hartree/Particle)
 Thermal correction to Energy=                    0.319986
 Thermal correction to Enthalpy=                  0.320930
 Thermal correction to Gibbs Free Energy=         0.257152
 Sum of electronic and zero-point Energies=           -786.019051
 Sum of electronic and thermal Energies=              -786.001896
 Sum of electronic and thermal Enthalpies=            -786.000952
 Sum of electronic and thermal Free Energies=         -786.064730

                     E (Thermal)             CV                S
                      KCal/Mol        Cal/Mol-Kelvin    Cal/Mol-Kelvin
 Total                  200.794             62.417            134.231
 Electronic               0.000              0.000              0.000
 Translational            0.889              2.981             42.189
 Rotational               0.889              2.981             32.300
 Vibrational            199.017             56.455             59.742
 Vibration     1          0.594              1.983              5.649
 Vibration     2          0.595              1.980              5.123
 Vibration     3          0.597              1.974              4.477
 Vibration     4          0.598              1.968              4.124
 Vibration     5          0.600              1.962              3.872
 Vibration     6          0.606              1.942              3.284
 Vibration     7          0.610              1.929              3.030
 Vibration     8          0.616              1.910              2.763
 Vibration     9          0.618              1.904              2.686
 Vibration    10          0.621              1.895              2.587
 Vibration    11          0.631              1.863              2.297
 Vibration    12          0.641              1.828              2.061
 Vibration    13          0.652              1.796              1.885
 Vibration    14          0.666              1.751              1.683
 Vibration    15          0.673              1.732              1.610
 Vibration    16          0.699              1.656              1.367
 Vibration    17          0.715              1.609              1.244
 Vibration    18          0.723              1.588              1.194
 Vibration    19          0.757              1.494              1.005
 Vibration    20          0.785              1.421              0.884
 Vibration    21          0.793              1.401              0.853
 Vibration    22          0.807              1.366              0.802
 Vibration    23          0.854              1.253              0.661
 Vibration    24          0.959              1.031              0.449

                           ! Non-Optimized Parameters !
 Normal termination of Gaussian 16 at Fri Dec 11 00:32:17 2020.

 ----------------------------------------------------------------------
 # B3LYP/6-311++G(d,p) empiricaldispersion=gd3bj scf=xqc pop=npa geom=c
 heck
 ----------------------------------------------------------------------

 --------------------------------------
 CID_13388958_JID_6673_Energie_neutraal
 --------------------------------------
 Structure from the checkpoint file:  "JID_6673.chk"
 Charge =  0 Multiplicity = 1

 SCF Done:  E(RB3LYP) =  -786.548509185     A.U. after   15 cycles
 Normal termination of Gaussian 16 at Fri Dec 11 00:37:24 2020.

 ----------------------------------------------------------------------
 # B3LYP/6-311++G(d,p) empiricaldispersion=gd3bj scf=xqc pop=npa geom=c
 heck
 ----------------------------------------------------------------------

 ------------------------------------
 CID_13388958_JID_6673_Energie_kation
 ------------------------------------
 Structure from the checkpoint file:  "JID_6673.chk"
 Charge =  1 Multiplicity = 2

 SCF Done:  E(UB3LYP) =  -786.247623140     A.U. after   22 cycles
 Normal termination of Gaussian 16 at Fri Dec 11 00:47:32 2020.
 Gaussian 16:  ES64L-G16RevA.03 25-Dec-2016

 ----------------------------------------------------------------------
 # B3LYP/6-311++G(d,p) empiricaldispersion=gd3bj scf=xqc pop=npa geom=c
 heck
 ----------------------------------------------------------------------

 -----------------------------------
 CID_13388958_JID_6673_Energie_anion
 -----------------------------------
 Structure from the checkpoint file:  "JID_6673.chk"
 Charge = -1 Multiplicity = 2

                         Standard orientation:
 ---------------------------------------------------------------------
 Center     Atomic      Atomic             Coordinates (Angstroms)
 Number     Number       Type             X           Y           Z
 ---------------------------------------------------------------------
      1          6           0       -4.140998   -0.882163   -0.262737
      2          6           0       -2.997631   -0.152685   -0.948613
      3          8           0       -1.722073   -0.762568   -0.643186
      4          6           0       -1.151361   -0.401436    0.510669
      5          8           0       -1.676615    0.304297    1.351326
      6          6           0        0.231850   -1.036949    0.698595
      7          6           0       -0.011558   -2.478875    1.168954
      8          7           0        1.004280   -0.970421   -0.551306
      9          6           0        2.199450   -1.822665   -0.620746
     10          6           0        3.328165   -1.065165    0.112706
     11          6           0        2.958484    0.423387   -0.105877
     12          6           0        1.586976    0.366501   -0.840944
     13          6           0        0.626298    1.519109   -0.570797
     14          8           0       -0.216355    1.894150   -1.358011
     15          8           0        0.807494    2.066348    0.645900
     16          6           0       -0.137497    3.088201    1.012913
     17          1           0       -4.136203   -1.944621   -0.527854
     18          1           0       -5.099025   -0.453487   -0.578374
     19          1           0       -4.059564   -0.786021    0.822885
     20          1           0       -3.067972   -0.219705   -2.036081
     21          1           0       -2.954754    0.899043   -0.657399
     22          1           0        0.689768   -0.474178    1.525277
     23          1           0       -0.398105   -3.086810    0.345724
     24          1           0        0.902217   -2.936592    1.557315
     25          1           0       -0.747143   -2.474872    1.979202
     26          1           0        2.455914   -1.931102   -1.682596
     27          1           0        2.004245   -2.822296   -0.234269
     28          1           0        3.323498   -1.311445    1.180307
     29          1           0        4.318524   -1.320773   -0.276258
     30          1           0        2.867448    0.957097    0.840904
     31          1           0        3.697153    0.955318   -0.713176
     32          1           0        1.752267    0.389455   -1.923415
     33          1           0       -0.164545    3.870352    0.251073
     34          1           0       -1.125814    2.639830    1.128571
     35          1           0        0.219464    3.482364    1.964320
 ---------------------------------------------------------------------

 SCF Done:  E(UB3LYP) =  -786.532369707     A.U. after   33 cycles
 SCF Done:  E(UB3LYP) =  -786.532369707     a.u. after    1 cycles

 The electronic state is 2-A.
 Alpha  occ. eigenvalues --  -19.08273 -19.07044 -19.02450 -19.01720 -14.21575
 Alpha  occ. eigenvalues --  -10.21270 -10.20460 -10.13399 -10.13196 -10.11965
 Alpha  occ. eigenvalues --  -10.11712 -10.09322 -10.07476 -10.07355 -10.06998
 Alpha  occ. eigenvalues --  -10.06598  -1.02314  -1.01350  -0.93371  -0.92599
 Alpha  occ. eigenvalues --   -0.84647  -0.71167  -0.67816  -0.66679  -0.64566
 Alpha  occ. eigenvalues --   -0.61837  -0.57922  -0.55319  -0.51647  -0.48341
 Alpha  occ. eigenvalues --   -0.47806  -0.46000  -0.43829  -0.41176  -0.40863
 Alpha  occ. eigenvalues --   -0.39499  -0.38458  -0.37507  -0.37367  -0.36185
 Alpha  occ. eigenvalues --   -0.35115  -0.34274  -0.33996  -0.31689  -0.31432
 Alpha  occ. eigenvalues --   -0.30684  -0.30083  -0.29940  -0.29128  -0.27596
 Alpha  occ. eigenvalues --   -0.27102  -0.26987  -0.26457  -0.25363  -0.24880
 Alpha  occ. eigenvalues --   -0.24507  -0.22652  -0.22095  -0.21213  -0.18895
 Alpha  occ. eigenvalues --   -0.18421  -0.12931   0.04461
 Alpha virt. eigenvalues --    0.05915   0.06602   0.06775   0.07336   0.08283
 Alpha virt. eigenvalues --    0.08673   0.09235   0.09449   0.09749   0.10335
 Alpha virt. eigenvalues --    0.10429   0.10948   0.11435   0.11936   0.12240

  Beta  occ. eigenvalues --  -19.08269 -19.07035 -19.02447 -19.01713 -14.21576
  Beta  occ. eigenvalues --  -10.21267 -10.20461 -10.13391 -10.13180 -10.11955
  Beta  occ. eigenvalues --  -10.11707 -10.09300 -10.07450 -10.07319 -10.06980
  Beta  occ. eigenvalues --  -10.06563  -1.02308  -1.01340  -0.93365  -0.92589
  Beta  occ. eigenvalues --   -0.84636  -0.71141  -0.67792  -0.66651  -0.64524
  Beta  occ. eigenvalues --   -0.61803  -0.57873  -0.55269  -0.51605  -0.48278
  Beta  occ. eigenvalues --   -0.47772  -0.45975  -0.43813  -0.41150  -0.40844
  Beta  occ. eigenvalues --   -0.39479  -0.38442  -0.37476  -0.37335  -0.36165
  Beta  occ. eigenvalues --   -0.35088  -0.34243  -0.33952  -0.31654  -0.31407
  Beta  occ. eigenvalues --   -0.30663  -0.30052  -0.29913  -0.29099  -0.27565
  Beta  occ. eigenvalues --   -0.27081  -0.26958  -0.26417  -0.25333  -0.24858
  Beta  occ. eigenvalues --   -0.24468  -0.22617  -0.22086  -0.21187  -0.18887
  Beta  occ. eigenvalues --   -0.18409  -0.12919
  Beta virt. eigenvalues --    0.06308   0.06692   0.07134   0.07278   0.07996
  Beta virt. eigenvalues --    0.08755   0.09179   0.09515   0.09803   0.10058
  Beta virt. eigenvalues --    0.10521   0.10823   0.11300   0.11766   0.12297

 Mulliken charges and spin densities:
               1          2
     1  C    0.329803  -0.786709
     2  C   -0.083488   0.076233
     3  O    0.185379   0.010797
     4  C   -0.958778  -0.091281
     5  O   -0.111290   0.010259
     6  C   -0.868640   0.827539
     7  C    1.554922  -2.314355
     8  N    0.390289   0.040411
     9  C    0.250227  -0.406935
    10  C    0.429032  -0.740224
    11  C    0.785523  -1.249090
    12  C   -0.722375   0.756078
    13  C   -0.525507   0.093998
    14  O   -0.143232  -0.003680
    15  O    0.027746   0.030571
    16  C    0.124127  -0.293997
    17  H   -0.007066   0.147113
    18  H   -0.290370   0.430099
    19  H   -0.025229   0.205482
    20  H   -0.042583   0.216724
    21  H    0.232028  -0.066308
    22  H    0.173026   0.103075
    23  H    0.011273   0.197196
    24  H   -0.244628   0.416677
    25  H   -0.099056   0.276332
    26  H   -0.093610   0.233189
    27  H   -0.242027   0.421956
    28  H   -0.178546   0.316768
    29  H   -0.530538   0.713339
    30  H    0.028575   0.141212
    31  H   -0.299914   0.448882
    32  H   -0.072406   0.333150
    33  H   -0.024902   0.183006
    34  H    0.150417   0.058177
    35  H   -0.108186   0.264316
 Sum of Mulliken charges =  -1.00000   1.00000

 Dipole moment (field-independent basis, Debye):
    X=             -3.1094    Y=              3.3304    Z=             -0.0881  Tot=              4.5572
 Quadrupole moment (field-independent basis, Debye-Ang):
   XX=           -176.4731   YY=           -142.9983   ZZ=           -135.1690
   XY=              4.9834   XZ=              1.3831   YZ=              3.1245

 Summary of Natural Population Analysis:

                                       Natural Population
                Natural  -----------------------------------------------
    Atom  No    Charge         Core      Valence    Rydberg      Total
 -----------------------------------------------------------------------
      C    1   -0.29853      0.99966     2.29476    0.00411     3.29853
      C    2   -0.01644      0.99957     2.00502    0.01185     3.01644
      O    3   -0.27006      0.99985     3.26087    0.00935     4.27006
      C    4    0.40934      0.99966     1.56144    0.02956     2.59066
      O    5   -0.31787      0.99987     3.31208    0.00592     4.31787
      C    6   -0.05281      0.99953     2.03890    0.01438     3.05281
      C    7   -0.28646      0.99964     2.28104    0.00578     3.28646
      N    8   -0.26779      0.99972     2.75634    0.01173     3.76779
      C    9   -0.08691      0.99962     2.07574    0.01156     3.08691
      C   10   -0.20181      0.99964     2.19441    0.00776     3.20181
      C   11   -0.20022      0.99962     2.19223    0.00837     3.20022
      C   12   -0.04864      0.99954     2.03526    0.01385     3.04864
      C   13    0.40589      0.99964     1.56756    0.02690     2.59411
      O   14   -0.30021      0.99987     3.29449    0.00585     4.30021
      O   15   -0.27398      0.99986     3.26537    0.00875     4.27398
      C   16   -0.10613      0.99958     2.09867    0.00788     3.10613
      H   17    0.09998      0.00000     0.39865    0.00137     0.40002
      H   18    0.10076      0.00000     0.39792    0.00131     0.39924
      H   19    0.10653      0.00000     0.39226    0.00122     0.39347
      H   20    0.09111      0.00000     0.40782    0.00107     0.40889
      H   21    0.09568      0.00000     0.40289    0.00143     0.40432
      H   22    0.10035      0.00000     0.39730    0.00235     0.39965
      H   23    0.10589      0.00000     0.39264    0.00147     0.39411
      H   24    0.10542      0.00000     0.39327    0.00131     0.39458
      H   25    0.10655      0.00000     0.39250    0.00095     0.39345
      H   26    0.09412      0.00000     0.40447    0.00140     0.40588
      H   27    0.10369      0.00000     0.39495    0.00136     0.39631
      H   28    0.09769      0.00000     0.40071    0.00160     0.40231
      H   29    0.10392      0.00000     0.39346    0.00261     0.39608
      H   30    0.10715      0.00000     0.39090    0.00195     0.39285
      H   31    0.10219      0.00000     0.39638    0.00143     0.39781
      H   32    0.10779      0.00000     0.39091    0.00130     0.39221
      H   33    0.09016      0.00000     0.40859    0.00125     0.40984
      H   34    0.10250      0.00000     0.39616    0.00133     0.39750
      H   35    0.09114      0.00000     0.40777    0.00109     0.40886
 =======================================================================
   * Total *    0.00000     15.99486    45.79374    0.21140    62.00000

 Normal termination of Gaussian 16 at Fri Dec 11 01:03:01 2020.
