 Gaussian 16, Revision A.03,

 -----------------------------------------------------------
 # opt freq B3LYP/6-31G(d) empiricaldispersion=gd3bj scf=xqc
 -----------------------------------------------------------

 -------------------------------
 CID_114088696_JID_7764_neutraal
 -------------------------------
 Symbolic Z-matrix:
 Charge =  0 Multiplicity = 1

 SCF Done:  E(RB3LYP) =  -706.816253213     A.U. after   15 cycles
 SCF Done:  E(RB3LYP) =  -706.822083822     A.U. after   13 cycles
 SCF Done:  E(RB3LYP) =  -706.823915208     A.U. after   13 cycles
 SCF Done:  E(RB3LYP) =  -706.825303814     A.U. after   14 cycles
 SCF Done:  E(RB3LYP) =  -706.825746797     A.U. after   12 cycles
 SCF Done:  E(RB3LYP) =  -706.826118036     A.U. after   12 cycles
 SCF Done:  E(RB3LYP) =  -706.826579031     A.U. after   12 cycles
 SCF Done:  E(RB3LYP) =  -706.826586617     A.U. after   12 cycles
 SCF Done:  E(RB3LYP) =  -706.827428270     A.U. after   12 cycles
 SCF Done:  E(RB3LYP) =  -706.828410043     A.U. after   15 cycles
 SCF Done:  E(RB3LYP) =  -706.829191484     A.U. after   11 cycles
 SCF Done:  E(RB3LYP) =  -706.829209195     A.U. after   10 cycles
 SCF Done:  E(RB3LYP) =  -706.829220814     A.U. after   10 cycles
 SCF Done:  E(RB3LYP) =  -706.829222940     A.U. after   10 cycles
 SCF Done:  E(RB3LYP) =  -706.829223478     A.U. after    8 cycles
 SCF Done:  E(RB3LYP) =  -706.829223595     A.U. after    8 cycles
 Optimization completed.
    -- Stationary point found.
 Normal termination of Gaussian 16 at Fri Dec 11 13:18:33 2020.

 --------------------------------------------------------------------
 #N Geom=AllCheck Guess=TCheck SCRF=Check GenChk RB3LYP/6-31G(d) Freq
 --------------------------------------------------------------------

 Structure from the checkpoint file:  "JID_7764.chk"
 -------------------------------
 CID_114088696_JID_7764_neutraal
 -------------------------------
 Charge =  0 Multiplicity = 1

 SCF Done:  E(RB3LYP) =  -706.829223595     A.U. after    1 cycles

  Exact polarizability: 239.539  -0.597 192.017 -18.460   0.830  83.244
 Approx polarizability: 379.084  -7.536 327.252 -43.920   4.898 126.057

                      1                      2                      3
                      A                      A                      A
 Frequencies --     27.6240                38.4593                81.9155
 Red. masses --      4.7498                 3.3164                 4.5192
 Frc consts  --      0.0021                 0.0029                 0.0179
 IR Inten    --      1.2613                 0.0704                 0.3856

                      4                      5                      6
                      A                      A                      A
 Frequencies --     99.9131               109.6076               136.1441
 Red. masses --      3.7820                 4.3335                 6.6034
 Frc consts  --      0.0222                 0.0307                 0.0721
 IR Inten    --      3.0670                 2.9022                 2.7224

                      7                      8                      9
                      A                      A                      A
 Frequencies --    146.3431               183.9604               203.5198
 Red. masses --      3.5439                 2.5402                 1.9194
 Frc consts  --      0.0447                 0.0506                 0.0468
 IR Inten    --      1.3463                 0.6094                 1.1060

                     10                     11                     12
                      A                      A                      A
 Frequencies --    244.4695               272.1863               283.9629
 Red. masses --      2.6601                 1.7355                 4.4578
 Frc consts  --      0.0937                 0.0758                 0.2118
 IR Inten    --      1.0559                 1.5640                 9.2195

                     13                     14                     15
                      A                      A                      A
 Frequencies --    306.1414               356.7749               420.7017
 Red. masses --      4.8009                 2.1241                 4.5638
 Frc consts  --      0.2651                 0.1593                 0.4759
 IR Inten    --     10.1628                20.4785                19.8951

                     16                     17                     18
                      A                      A                      A
 Frequencies --    426.6777               437.4340               472.5018
 Red. masses --      3.2413                 4.7097                 3.1832
 Frc consts  --      0.3477                 0.5310                 0.4187
 IR Inten    --      6.2438                21.2925                22.1439

                     19                     20                     21
                      A                      A                      A
 Frequencies --    479.9617               508.2794               528.5929
 Red. masses --      3.4236                 5.0277                 2.5956
 Frc consts  --      0.4647                 0.7653                 0.4273
 IR Inten    --     12.5316                 9.1897                90.2821

                     22                     23                     24
                      A                      A                      A
 Frequencies --    556.0459               604.3174               628.2003
 Red. masses --      2.8662                 5.3617                 3.2969
 Frc consts  --      0.5221                 1.1537                 0.7666
 IR Inten    --     40.0715                 0.5522                 3.5902

                     25                     26                     27
                      A                      A                      A
 Frequencies --    633.9032               658.2877               684.5003
 Red. masses --      5.4695                 3.5256                 1.2181
 Frc consts  --      1.2949                 0.9001                 0.3363
 IR Inten    --      3.6813                 5.3985               174.6695

                     28                     29                     30
                      A                      A                      A
 Frequencies --    707.6211               774.9324               778.7463
 Red. masses --      6.1429                 1.5421                 3.1838
 Frc consts  --      1.8123                 0.5456                 1.1376
 IR Inten    --      1.8704                42.5676                 9.6765

                     31                     32                     33
                      A                      A                      A
 Frequencies --    794.1688               813.8452               830.0280
 Red. masses --      2.7802                 3.1602                 1.6673
 Frc consts  --      1.0331                 1.2332                 0.6768
 IR Inten    --      4.5086                 6.0085                19.4551

                     34                     35                     36
                      A                      A                      A
 Frequencies --    867.1848               880.0190               907.0801
 Red. masses --      2.4128                 1.6153                 2.2581
 Frc consts  --      1.0690                 0.7371                 1.0947
 IR Inten    --      1.6104                 2.2056                28.4859

                     37                     38                     39
                      A                      A                      A
 Frequencies --    944.7503               951.5925               996.2853
 Red. masses --      1.3323                 1.3275                 1.2873
 Frc consts  --      0.7006                 0.7082                 0.7528
 IR Inten    --      0.6483                 1.2471                 0.3334

                     40                     41                     42
                      A                      A                      A
 Frequencies --   1010.3812              1035.6119              1062.2232
 Red. masses --      2.0225                 3.5841                 1.9625
 Frc consts  --      1.2165                 2.2648                 1.3046
 IR Inten    --      4.6248                 2.8716                 6.2969

                     43                     44                     45
                      A                      A                      A
 Frequencies --   1069.9182              1081.3640              1151.5561
 Red. masses --      2.6176                 2.4458                 1.9894
 Frc consts  --      1.7654                 1.6850                 1.5543
 IR Inten    --      1.6122                 5.2129                14.6725

                     46                     47                     48
                      A                      A                      A
 Frequencies --   1168.8879              1180.7093              1193.2325
 Red. masses --      1.6001                 2.4730                 1.5349
 Frc consts  --      1.2881                 2.0312                 1.2876
 IR Inten    --      4.6276                44.8824                 2.2869

                     49                     50                     51
                      A                      A                      A
 Frequencies --   1203.3709              1213.7505              1219.5300
 Red. masses --      1.3139                 1.7028                 1.6364
 Frc consts  --      1.1211                 1.4780                 1.4339
 IR Inten    --      4.8729                 8.1279                 2.5464

                     52                     53                     54
                      A                      A                      A
 Frequencies --   1264.7000              1273.2119              1301.4318
 Red. masses --      2.1548                 1.3397                 1.8259
 Frc consts  --      2.0307                 1.2796                 1.8221
 IR Inten    --      4.3488                50.4968                 9.3232

                     55                     56                     57
                      A                      A                      A
 Frequencies --   1316.5649              1344.8898              1390.1969
 Red. masses --      1.8536                 1.4715                 2.2970
 Frc consts  --      1.8930                 1.5681                 2.6156
 IR Inten    --      3.1470                15.2051                83.2064

                     58                     59                     60
                      A                      A                      A
 Frequencies --   1397.5015              1411.3985              1416.9265
 Red. masses --      1.8874                 1.5822                 2.8606
 Frc consts  --      2.1717                 1.8571                 3.3837
 IR Inten    --     35.3459                 7.6328                28.2543

                     61                     62                     63
                      A                      A                      A
 Frequencies --   1437.8058              1481.1224              1488.0982
 Red. masses --      2.2835                 1.2020                 1.9736
 Frc consts  --      2.7813                 1.5536                 2.5749
 IR Inten    --     24.2191                 1.7095                16.9217

                     64                     65                     66
                      A                      A                      A
 Frequencies --   1498.3422              1501.4582              1507.6339
 Red. masses --      2.0044                 1.1961                 1.2093
 Frc consts  --      2.6513                 1.5886                 1.6195
 IR Inten    --     13.9643                 5.7490                 5.1811

                     67                     68                     69
                      A                      A                      A
 Frequencies --   1522.5183              1543.1657              1544.6587
 Red. masses --      1.0743                 1.0841                 2.0465
 Frc consts  --      1.4672                 1.5210                 2.8770
 IR Inten    --      3.6651                69.8769                82.1555

                     70                     71                     72
                      A                      A                      A
 Frequencies --   1555.7492              1583.3417              1639.4972
 Red. masses --      1.0615                 2.9470                 5.2186
 Frc consts  --      1.5137                 4.3530                 8.2647
 IR Inten    --     34.4166               199.3309               144.5498

                     73                     74                     75
                      A                      A                      A
 Frequencies --   1640.0443              1678.6284              2333.2825
 Red. masses --      5.5949                 5.5232                12.6764
 Frc consts  --      8.8665                 9.1696                40.6613
 IR Inten    --     82.1637                 5.1722               101.7962

                     76                     77                     78
                      A                      A                      A
 Frequencies --   2974.2099              2995.5384              3047.9408
 Red. masses --      1.0594                 1.0696                 1.0641
 Frc consts  --      5.5216                 5.6549                 5.8245
 IR Inten    --     64.1939                53.0353                37.4683

                     79                     80                     81
                      A                      A                      A
 Frequencies --   3073.6622              3077.0207              3102.3289
 Red. masses --      1.0904                 1.0766                 1.1028
 Frc consts  --      6.0696                 6.0060                 6.2535
 IR Inten    --     37.6569                48.8772                30.4914

                     82                     83                     84
                      A                      A                      A
 Frequencies --   3125.6899              3188.6403              3198.7708
 Red. masses --      1.1022                 1.0849                 1.0884
 Frc consts  --      6.3443                 6.4992                 6.5614
 IR Inten    --     23.2366                 0.7814                13.5896

                     85                     86                     87
                      A                      A                      A
 Frequencies --   3209.3552              3211.1768              3217.9796
 Red. masses --      1.0931                 1.0898                 1.0972
 Frc consts  --      6.6338                 6.6209                 6.6945
 IR Inten    --     18.1139                 9.1187                16.9377

                     88                     89                     90
                      A                      A                      A
 Frequencies --   3235.6974              3522.4313              3594.1786
 Red. masses --      1.0918                 1.0748                 1.0738
 Frc consts  --      6.7350                 7.8570                 8.1731
 IR Inten    --     11.5876                 3.3248                33.2111

 - Thermochemistry -
 -------------------
 Temperature   298.150 Kelvin.  Pressure   1.00000 Atm.
 Atom     1 has atomic number  6 and mass  12.00000

 Molecular mass:   225.12660 amu.
 Principal axes and moments of inertia in atomic units:
                           1         2         3
     Eigenvalues --  2144.549926849.708428444.90293
           X            0.99986   0.01576   0.00635
           Y           -0.01572   0.99986  -0.00627
           Z           -0.00645   0.00617   0.99996
 This molecule is an asymmetric top.
 Rotational symmetry number  1.
 Warning -- assumption of classical behavior for rotation
           may cause significant error
 Rotational temperatures (Kelvin)      0.04039     0.01264     0.01026
 Rotational constants (GHZ):           0.84155     0.26348     0.21371
 Zero-point vibrational energy     701095.4 (Joules/Mol)
                                  167.56583 (Kcal/Mol)
 Warning -- explicit consideration of  23 degrees of freedom as
           vibrations may cause significant error
 Vibrational temperatures:     39.74    55.33   117.86   143.75   157.70
          (Kelvin)            195.88   210.56   264.68   292.82   351.74
                              391.62   408.56   440.47   513.32   605.30
                              613.89   629.37   679.82   690.56   731.30
                              760.53   800.03   869.48   903.84   912.05
                              947.13   984.84  1018.11  1114.95  1120.44
                             1142.63  1170.94  1194.23  1247.69  1266.15
                             1305.09  1359.28  1369.13  1433.43  1453.71
                             1490.01  1528.30  1539.37  1555.84  1656.83
                             1681.77  1698.78  1716.80  1731.38  1746.32
                             1754.63  1819.62  1831.87  1872.47  1894.24
                             1935.00  2000.18  2010.69  2030.69  2038.64
                             2068.68  2131.00  2141.04  2155.78  2160.26
                             2169.15  2190.56  2220.27  2222.42  2238.38
                             2278.08  2358.87  2359.66  2415.17  3357.07
                             4279.22  4309.91  4385.31  4422.31  4427.15
                             4463.56  4497.17  4587.74  4602.32  4617.55
                             4620.17  4629.95  4655.45  5067.99  5171.22

 Zero-point correction=                           0.267033 (Hartree/Particle)
 Thermal correction to Energy=                    0.282304
 Thermal correction to Enthalpy=                  0.283248
 Thermal correction to Gibbs Free Energy=         0.223646
 Sum of electronic and zero-point Energies=           -706.562190
 Sum of electronic and thermal Energies=              -706.546920
 Sum of electronic and thermal Enthalpies=            -706.545976
 Sum of electronic and thermal Free Energies=         -706.605578

                     E (Thermal)             CV                S
                      KCal/Mol        Cal/Mol-Kelvin    Cal/Mol-Kelvin
 Total                  177.148             58.923            125.443
 Electronic               0.000              0.000              0.000
 Translational            0.889              2.981             42.137
 Rotational               0.889              2.981             33.183
 Vibrational            175.371             52.962             50.122
 Vibration     1          0.593              1.984              5.993
 Vibration     2          0.594              1.982              5.337
 Vibration     3          0.600              1.962              3.844
 Vibration     4          0.604              1.949              3.456
 Vibration     5          0.606              1.942              3.276
 Vibration     6          0.614              1.917              2.857
 Vibration     7          0.617              1.907              2.719
 Vibration     8          0.631              1.862              2.288
 Vibration     9          0.639              1.835              2.101
 Vibration    10          0.660              1.772              1.770
 Vibration    11          0.675              1.725              1.582
 Vibration    12          0.682              1.703              1.510
 Vibration    13          0.697              1.662              1.383
 Vibration    14          0.732              1.561              1.136
 Vibration    15          0.783              1.425              0.890
 Vibration    16          0.788              1.412              0.870
 Vibration    17          0.798              1.389              0.835
 Vibration    18          0.829              1.311              0.731
 Vibration    19          0.836              1.294              0.710
 Vibration    20          0.863              1.232              0.638
 Vibration    21          0.884              1.187              0.590
 Vibration    22          0.912              1.126              0.532
 Vibration    23          0.963              1.023              0.442

                           ! Non-Optimized Parameters !
 Normal termination of Gaussian 16 at Fri Dec 11 13:29:12 2020.

 ----------------------------------------------------------------------
 # B3LYP/6-311++G(d,p) empiricaldispersion=gd3bj scf=xqc pop=npa geom=c
 heck
 ----------------------------------------------------------------------

 ---------------------------------------
 CID_114088696_JID_7764_Energie_neutraal
 ---------------------------------------
 Structure from the checkpoint file:  "JID_7764.chk"
 Charge =  0 Multiplicity = 1

 SCF Done:  E(RB3LYP) =  -707.018933389     A.U. after   15 cycles
 Normal termination of Gaussian 16 at Fri Dec 11 13:34:21 2020.

 ----------------------------------------------------------------------
 # B3LYP/6-311++G(d,p) empiricaldispersion=gd3bj scf=xqc pop=npa geom=c
 heck
 ----------------------------------------------------------------------

 -------------------------------------
 CID_114088696_JID_7764_Energie_kation
 -------------------------------------
 Structure from the checkpoint file:  "JID_7764.chk"
 Charge =  1 Multiplicity = 2

 SCF Done:  E(UB3LYP) =  -706.744307131     A.U. after   24 cycles
 Normal termination of Gaussian 16 at Fri Dec 11 13:45:39 2020.
 Gaussian 16:  ES64L-G16RevA.03 25-Dec-2016

 ----------------------------------------------------------------------
 # B3LYP/6-311++G(d,p) empiricaldispersion=gd3bj scf=xqc pop=npa geom=c
 heck
 ----------------------------------------------------------------------

 ------------------------------------
 CID_114088696_JID_7764_Energie_anion
 ------------------------------------
 Structure from the checkpoint file:  "JID_7764.chk"
 Charge = -1 Multiplicity = 2

                         Standard orientation:
 ---------------------------------------------------------------------
 Center     Atomic      Atomic             Coordinates (Angstroms)
 Number     Number       Type             X           Y           Z
 ---------------------------------------------------------------------
      1          6           0       -4.351123    0.218367   -1.634674
      2          7           0       -4.459236    0.538395   -0.217434
      3          6           0       -4.100384   -0.529233    0.706425
      4          6           0       -2.722470   -1.185931    0.510632
      5          7           0       -1.674156   -0.183872    0.570242
      6          6           0       -0.346139   -0.495732    0.364076
      7          6           0        0.092625   -1.815100    0.292790
      8          6           0        1.444063   -2.114263    0.072904
      9          6           0        2.386483   -1.112826   -0.094129
     10          6           0        1.986114    0.262280   -0.008668
     11          6           0        2.916424    1.320315   -0.160203
     12          6           0        2.520510    2.634395   -0.047613
     13          6           0        1.175009    2.946618    0.238834
     14          6           0        0.248349    1.937030    0.384300
     15          6           0        0.615731    0.574532    0.246750
     16          6           0        3.750008   -1.447912   -0.344532
     17          7           0        4.866893   -1.706994   -0.550761
     18          1           0       -5.002119   -0.635417   -1.856418
     19          1           0       -3.335923   -0.037668   -1.984711
     20          1           0       -4.707892    1.069311   -2.222979
     21          1           0       -3.982525    1.407121    0.006206
     22          1           0       -4.162418   -0.123325    1.722100
     23          1           0       -4.857461   -1.320141    0.626032
     24          1           0       -2.568926   -1.918877    1.311387
     25          1           0       -2.693797   -1.739600   -0.442013
     26          1           0       -1.958811    0.705988    0.183979
     27          1           0       -0.614460   -2.629605    0.388301
     28          1           0        1.755865   -3.151929    0.012739
     29          1           0        3.954043    1.073393   -0.361883
     30          1           0        3.248291    3.431720   -0.165458
     31          1           0        0.871162    3.982547    0.356072
     32          1           0       -0.770731    2.198533    0.650971
 ---------------------------------------------------------------------

 SCF Done:  E(UB3LYP) =  -707.033346151     A.U. after   32 cycles

 The electronic state is 2-A.
 Alpha  occ. eigenvalues --  -14.22374 -14.20379 -14.15468 -10.11478 -10.11308
 Alpha  occ. eigenvalues --  -10.10335 -10.06511 -10.05775 -10.04986 -10.04585
 Alpha  occ. eigenvalues --  -10.03843 -10.03338 -10.03332 -10.03259 -10.03040
 Alpha  occ. eigenvalues --  -10.02934 -10.02108  -0.83852  -0.81124  -0.75795
 Alpha  occ. eigenvalues --   -0.72979  -0.68433  -0.66174  -0.62583  -0.60748
 Alpha  occ. eigenvalues --   -0.59204  -0.58388  -0.52309  -0.50028  -0.47898
 Alpha  occ. eigenvalues --   -0.46981  -0.42493  -0.41206  -0.40279  -0.38257
 Alpha  occ. eigenvalues --   -0.37518  -0.36086  -0.35503  -0.33529  -0.32466
 Alpha  occ. eigenvalues --   -0.30938  -0.29927  -0.29172  -0.28864  -0.28425
 Alpha  occ. eigenvalues --   -0.28195  -0.26583  -0.26043  -0.25947  -0.22356
 Alpha  occ. eigenvalues --   -0.22214  -0.21071  -0.20783  -0.20381  -0.18240
 Alpha  occ. eigenvalues --   -0.16513  -0.14914  -0.12518  -0.11617  -0.07150
 Alpha  occ. eigenvalues --    0.04048
 Alpha virt. eigenvalues --    0.06053   0.07324   0.07863   0.09085   0.09623
 Alpha virt. eigenvalues --    0.10398   0.10917   0.11240   0.11463   0.11762
 Alpha virt. eigenvalues --    0.12401   0.12786   0.12884   0.13725   0.14586

  Beta  occ. eigenvalues --  -14.22370 -14.20313 -14.15332 -10.11476 -10.11307
  Beta  occ. eigenvalues --  -10.10334 -10.06077 -10.05774 -10.05034 -10.04674
  Beta  occ. eigenvalues --  -10.03639 -10.03269 -10.03194 -10.03137 -10.03080
  Beta  occ. eigenvalues --  -10.02695 -10.01871  -0.83763  -0.80937  -0.75569
  Beta  occ. eigenvalues --   -0.72739  -0.68037  -0.65977  -0.62287  -0.60534
  Beta  occ. eigenvalues --   -0.58975  -0.58112  -0.52200  -0.49475  -0.47668
  Beta  occ. eigenvalues --   -0.46752  -0.42457  -0.41068  -0.40091  -0.38117
  Beta  occ. eigenvalues --   -0.37380  -0.35935  -0.35330  -0.33451  -0.32406
  Beta  occ. eigenvalues --   -0.30858  -0.29805  -0.29112  -0.28751  -0.28225
  Beta  occ. eigenvalues --   -0.28008  -0.26100  -0.25890  -0.25622  -0.22068
  Beta  occ. eigenvalues --   -0.21445  -0.20832  -0.20379  -0.19662  -0.18133
  Beta  occ. eigenvalues --   -0.15642  -0.14864  -0.11432  -0.10962  -0.05729
  Beta virt. eigenvalues --    0.06006   0.07249   0.07776   0.09011   0.09387
  Beta virt. eigenvalues --    0.09568   0.10379   0.10887   0.11177   0.11647
  Beta virt. eigenvalues --    0.11743   0.12382   0.12738   0.13672   0.14213

 Mulliken charges and spin densities:
               1          2
     1  C   -0.406747  -0.011019
     2  N   -0.178231   0.002764
     3  C   -0.829576  -0.020108
     4  C    0.142576  -0.029210
     5  N    0.134558   0.029740
     6  C    0.083318   0.248123
     7  C    0.043734  -0.064858
     8  C   -0.603723   0.250726
     9  C    1.526166   0.127420
    10  C    0.681919  -0.002841
    11  C   -0.815348   0.136402
    12  C   -0.518945   0.051263
    13  C   -0.395934   0.063380
    14  C   -0.159487   0.192177
    15  C    0.420093  -0.088109
    16  C   -1.743291  -0.016426
    17  N   -0.296144   0.073933
    18  H    0.142735   0.000836
    19  H    0.152554   0.003537
    20  H    0.125824   0.008396
    21  H    0.229508   0.006521
    22  H    0.169458   0.012076
    23  H    0.144683   0.010612
    24  H    0.120166   0.021924
    25  H    0.121217   0.016505
    26  H    0.080349   0.023399
    27  H    0.089419   0.011661
    28  H    0.146679  -0.013687
    29  H    0.084846  -0.014169
    30  H    0.114836  -0.004581
    31  H    0.102130  -0.001512
    32  H    0.090657  -0.024876
 Sum of Mulliken charges =  -1.00000   1.00000

 Dipole moment (field-independent basis, Debye):
    X=            -11.0947    Y=              1.2915    Z=              0.0090  Tot=             11.1696
 Quadrupole moment (field-independent basis, Debye-Ang):
   XX=           -173.6626   YY=           -121.2134   ZZ=           -113.5054
   XY=             14.9185   XZ=              5.8937   YZ=             -2.3557

 Summary of Natural Population Analysis:

                                       Natural Population
                Natural  -----------------------------------------------
    Atom  No    Charge         Core      Valence    Rydberg      Total
 -----------------------------------------------------------------------
      C    1   -0.18335      0.99967     2.17598    0.00770     3.18335
      N    2   -0.34346      0.99976     2.83059    0.01311     3.84346
      C    3   -0.08740      0.99963     2.07765    0.01012     3.08740
      C    4   -0.09495      0.99964     2.08734    0.00797     3.09495
      N    5   -0.30796      0.99966     2.79703    0.01126     3.80796
      C    6    0.16059      0.99954     1.82448    0.01539     2.83941
      C    7   -0.16753      0.99954     2.15955    0.00844     3.16753
      C    8   -0.01771      0.99955     2.00938    0.00878     3.01771
      C    9   -0.08768      0.99938     2.07731    0.01098     3.08768
      C   10   -0.02838      0.99954     2.01454    0.01430     3.02838
      C   11   -0.05793      0.99954     2.05056    0.00784     3.05793
      C   12   -0.09398      0.99957     2.08470    0.00971     3.09398
      C   13   -0.10274      0.99957     2.09348    0.00968     3.10274
      C   14   -0.07781      0.99959     2.06271    0.01550     3.07781
      C   15    0.00550      0.99947     1.98368    0.01135     2.99450
      C   16    0.15938      0.99965     1.82215    0.01883     2.84062
      N   17   -0.20232      0.99979     2.69093    0.01161     3.70232
      H   18    0.08866      0.00000     0.41042    0.00091     0.41134
      H   19    0.08577      0.00000     0.41268    0.00155     0.41423
      H   20    0.09301      0.00000     0.40622    0.00076     0.40699
      H   21    0.17300      0.00000     0.32485    0.00216     0.32700
      H   22    0.09597      0.00000     0.40298    0.00105     0.40403
      H   23    0.08744      0.00000     0.41152    0.00104     0.41256
      H   24    0.09431      0.00000     0.40371    0.00198     0.40569
      H   25    0.08110      0.00000     0.41560    0.00330     0.41890
      H   26    0.18156      0.00000     0.31529    0.00315     0.31844
      H   27    0.09353      0.00000     0.40514    0.00133     0.40647
      H   28    0.09241      0.00000     0.40665    0.00094     0.40759
      H   29    0.09879      0.00000     0.39973    0.00148     0.40121
      H   30    0.08978      0.00000     0.40922    0.00100     0.41022
      H   31    0.08967      0.00000     0.40966    0.00067     0.41033
      H   32    0.08509      0.00000     0.41302    0.00189     0.41491
 =======================================================================
   * Total *    0.00235     16.99310    42.78878    0.21577    59.99765

 Normal termination of Gaussian 16 at Fri Dec 11 14:00:38 2020.
