 Gaussian 16, Revision A.03,

 -----------------------------------------------------------
 # opt freq B3LYP/6-31G(d) empiricaldispersion=gd3bj scf=xqc
 -----------------------------------------------------------

 -------------------------------
 CID_114976896_JID_1285_neutraal
 -------------------------------
 Symbolic Z-matrix:
 Charge =  0 Multiplicity = 1

 SCF Done:  E(RB3LYP) =  -447.210651752     A.U. after   14 cycles
 SCF Done:  E(RB3LYP) =  -447.228984312     A.U. after   12 cycles
 SCF Done:  E(RB3LYP) =  -447.230305142     A.U. after   12 cycles
 SCF Done:  E(RB3LYP) =  -447.228772825     A.U. after   12 cycles
 SCF Done:  E(RB3LYP) =  -447.231195177     A.U. after   12 cycles
 SCF Done:  E(RB3LYP) =  -447.231493197     A.U. after   12 cycles
 SCF Done:  E(RB3LYP) =  -447.231258108     A.U. after   11 cycles
 SCF Done:  E(RB3LYP) =  -447.231594763     A.U. after   11 cycles
 SCF Done:  E(RB3LYP) =  -447.231749985     A.U. after   10 cycles
 SCF Done:  E(RB3LYP) =  -447.231752166     A.U. after    9 cycles
 SCF Done:  E(RB3LYP) =  -447.231756326     A.U. after    9 cycles
 SCF Done:  E(RB3LYP) =  -447.231757210     A.U. after    9 cycles
 SCF Done:  E(RB3LYP) =  -447.231757433     A.U. after    7 cycles
 SCF Done:  E(RB3LYP) =  -447.231757548     A.U. after    7 cycles
 SCF Done:  E(RB3LYP) =  -447.231757581     A.U. after    7 cycles
 Optimization completed.
    -- Stationary point found.
 Normal termination of Gaussian 16 at Tue Dec  8 19:39:30 2020.

 --------------------------------------------------------------------
 #N Geom=AllCheck Guess=TCheck SCRF=Check GenChk RB3LYP/6-31G(d) Freq
 --------------------------------------------------------------------

 Structure from the checkpoint file:  "JID_1285.chk"
 -------------------------------
 CID_114976896_JID_1285_neutraal
 -------------------------------
 Charge =  0 Multiplicity = 1

 SCF Done:  E(RB3LYP) =  -447.231757581     A.U. after    1 cycles

  Exact polarizability: 114.654   3.478 111.223  -0.481 -10.000  97.196
 Approx polarizability: 137.041   5.266 158.154  -3.047 -24.188 155.436

                      1                      2                      3
                      A                      A                      A
 Frequencies --     46.1399                55.2079                66.9563
 Red. masses --      3.7785                 2.8990                 2.6872
 Frc consts  --      0.0047                 0.0052                 0.0071
 IR Inten    --      0.1189                 0.0421                 0.6989

                      4                      5                      6
                      A                      A                      A
 Frequencies --    108.6638               125.2618               138.5827
 Red. masses --      2.3473                 2.4785                 2.6808
 Frc consts  --      0.0163                 0.0229                 0.0303
 IR Inten    --      0.3683                 0.0565                 0.1983

                      7                      8                      9
                      A                      A                      A
 Frequencies --    176.9256               219.5268               239.8869
 Red. masses --      1.6605                 1.3929                 1.2232
 Frc consts  --      0.0306                 0.0396                 0.0415
 IR Inten    --      0.4368                 0.2257                 0.5226

                     10                     11                     12
                      A                      A                      A
 Frequencies --    249.1961               285.3135               307.2886
 Red. masses --      1.4698                 3.2957                 1.7836
 Frc consts  --      0.0538                 0.1581                 0.0992
 IR Inten    --      0.3073                 1.5296                 0.4807

                     13                     14                     15
                      A                      A                      A
 Frequencies --    328.5063               366.8144               374.2525
 Red. masses --      2.6253                 2.9399                 3.6385
 Frc consts  --      0.1669                 0.2331                 0.3003
 IR Inten    --      0.5786                 2.5549                 5.7854

                     16                     17                     18
                      A                      A                      A
 Frequencies --    403.7986               432.6424               457.7441
 Red. masses --      2.3741                 2.2188                 2.5093
 Frc consts  --      0.2281                 0.2447                 0.3098
 IR Inten    --      0.2389                 0.6819                 0.2016

                     19                     20                     21
                      A                      A                      A
 Frequencies --    541.3778               599.6665               616.7181
 Red. masses --      2.4745                 1.2208                 1.2407
 Frc consts  --      0.4273                 0.2586                 0.2780
 IR Inten    --      3.4613                48.6604                43.0373

                     22                     23                     24
                      A                      A                      A
 Frequencies --    678.0291               746.3095               780.2171
 Red. masses --      2.8336                 1.6384                 1.5876
 Frc consts  --      0.7675                 0.5377                 0.5694
 IR Inten    --      2.7728                28.7128                51.4370

                     25                     26                     27
                      A                      A                      A
 Frequencies --    848.7960               869.1777               871.7541
 Red. masses --      1.9387                 1.9734                 1.8749
 Frc consts  --      0.8229                 0.8784                 0.8395
 IR Inten    --     18.6507                 2.0218                17.3743

                     28                     29                     30
                      A                      A                      A
 Frequencies --    896.9416               928.5715               960.7820
 Red. masses --      1.6075                 1.6535                 1.9946
 Frc consts  --      0.7619                 0.8400                 1.0848
 IR Inten    --      0.9480                 3.7893                 2.3736

                     31                     32                     33
                      A                      A                      A
 Frequencies --   1013.1665              1028.1384              1035.0718
 Red. masses --      2.5301                 1.3601                 1.4936
 Frc consts  --      1.5302                 0.8471                 0.9428
 IR Inten    --      6.3308                10.6977                 6.6768

                     34                     35                     36
                      A                      A                      A
 Frequencies --   1060.4302              1084.2514              1127.9011
 Red. masses --      1.7470                 2.6106                 1.9552
 Frc consts  --      1.1575                 1.8082                 1.4655
 IR Inten    --      8.4760                 1.0108                14.1092

                     37                     38                     39
                      A                      A                      A
 Frequencies --   1151.9266              1161.2956              1177.1064
 Red. masses --      1.9262                 1.8958                 1.7043
 Frc consts  --      1.5059                 1.5064                 1.3913
 IR Inten    --     14.3917                 0.9336                26.0770

                     40                     41                     42
                      A                      A                      A
 Frequencies --   1195.6396              1209.4924              1261.0348
 Red. masses --      1.9582                 1.9219                 1.2558
 Frc consts  --      1.6493                 1.6565                 1.1766
 IR Inten    --     13.1011                 0.5943                 7.3441

                     43                     44                     45
                      A                      A                      A
 Frequencies --   1270.9539              1297.5965              1313.3419
 Red. masses --      1.3874                 1.2875                 1.3446
 Frc consts  --      1.3204                 1.2772                 1.3665
 IR Inten    --      7.5187                 1.7382                 2.9349

                     46                     47                     48
                      A                      A                      A
 Frequencies --   1342.6081              1373.8921              1383.4580
 Red. masses --      1.3254                 1.3219                 1.2997
 Frc consts  --      1.4076                 1.4701                 1.4656
 IR Inten    --      2.8193                 2.7454                 9.8070

                     49                     50                     51
                      A                      A                      A
 Frequencies --   1396.2817              1404.2196              1421.2171
 Red. masses --      1.3582                 1.3496                 1.3898
 Frc consts  --      1.5601                 1.5679                 1.6539
 IR Inten    --      6.7224                 5.2161                 4.1343

                     52                     53                     54
                      A                      A                      A
 Frequencies --   1432.1087              1444.0469              1482.4729
 Red. masses --      1.3052                 1.2636                 1.1650
 Frc consts  --      1.5772                 1.5525                 1.5085
 IR Inten    --      8.2296                 6.0247                 3.2756

                     55                     56                     57
                      A                      A                      A
 Frequencies --   1502.6362              1515.0295              1519.5601
 Red. masses --      1.0935                 1.0730                 1.1749
 Frc consts  --      1.4548                 1.4511                 1.5984
 IR Inten    --      7.5297                 2.1845                11.9835

                     58                     59                     60
                      A                      A                      A
 Frequencies --   1522.3314              1525.5205              1529.8695
 Red. masses --      1.0692                 1.0541                 1.0764
 Frc consts  --      1.4598                 1.4453                 1.4843
 IR Inten    --      0.6956                 2.0606                24.8334

                     61                     62                     63
                      A                      A                      A
 Frequencies --   1535.1808              1541.1698              1547.6620
 Red. masses --      1.0508                 1.0686                 1.0553
 Frc consts  --      1.4591                 1.4955                 1.4893
 IR Inten    --      0.4172                 1.9530                 8.7853

                     64                     65                     66
                      A                      A                      A
 Frequencies --   1550.5733              2234.0006              2963.1282
 Red. masses --      1.0529                 5.9952                 1.0600
 Frc consts  --      1.4915                17.6288                 5.4834
 IR Inten    --     10.6397                 2.7088                91.1777

                     67                     68                     69
                      A                      A                      A
 Frequencies --   3013.1886              3024.8093              3034.9549
 Red. masses --      1.0670                 1.0807                 1.0689
 Frc consts  --      5.7077                 5.8257                 5.8008
 IR Inten    --     20.8780                 3.9840                 9.6906

                     70                     71                     72
                      A                      A                      A
 Frequencies --   3042.0777              3045.5802              3046.6429
 Red. masses --      1.0598                 1.0536                 1.0430
 Frc consts  --      5.7786                 5.7579                 5.7037
 IR Inten    --     14.0146                42.9208                44.7846

                     73                     74                     75
                      A                      A                      A
 Frequencies --   3057.8238              3065.3156              3073.0658
 Red. masses --      1.0641                 1.0980                 1.0733
 Frc consts  --      5.8620                 6.0786                 5.9718
 IR Inten    --     44.1490                 8.0238                45.5563

                     76                     77                     78
                      A                      A                      A
 Frequencies --   3081.7269              3089.9588              3109.6203
 Red. masses --      1.0990                 1.0976                 1.0972
 Frc consts  --      6.1497                 6.1745                 6.2511
 IR Inten    --     47.7861                19.1373                23.4121

                     79                     80                     81
                      A                      A                      A
 Frequencies --   3111.9131              3117.4636              3118.4886
 Red. masses --      1.0988                 1.1015                 1.1027
 Frc consts  --      6.2691                 6.3073                 6.3182
 IR Inten    --     69.0836                52.6424                32.2265

                     82                     83                     84
                      A                      A                      A
 Frequencies --   3151.1119              3483.6621              3495.9214
 Red. masses --      1.0996                 1.0733                 1.1590
 Frc consts  --      6.4331                 7.6745                 8.3457
 IR Inten    --     13.4273                 0.4707                56.4589

 - Thermochemistry -
 -------------------
 Temperature   298.150 Kelvin.  Pressure   1.00000 Atm.
 Atom     1 has atomic number  6 and mass  12.00000

 Molecular mass:   153.15175 amu.
 Principal axes and moments of inertia in atomic units:
                           1         2         3
     Eigenvalues --  1311.142962536.737623274.98006
           X            0.99980   0.01861  -0.00718
           Y           -0.01865   0.99981  -0.00525
           Z            0.00708   0.00538   0.99996
 This molecule is an asymmetric top.
 Rotational symmetry number  1.
 Warning -- assumption of classical behavior for rotation
           may cause significant error
 Rotational temperatures (Kelvin)      0.06606     0.03414     0.02645
 Rotational constants (GHZ):           1.37646     0.71144     0.55107
 Zero-point vibrational energy     720383.3 (Joules/Mol)
                                  172.17575 (Kcal/Mol)
 Warning -- explicit consideration of  21 degrees of freedom as
           vibrations may cause significant error
 Vibrational temperatures:     66.39    79.43    96.34   156.34   180.22
          (Kelvin)            199.39   254.56   315.85   345.14   358.54
                              410.50   442.12   472.65   527.76   538.47
                              580.98   622.48   658.59   778.92   862.79
                              887.32   975.53  1073.77  1122.56  1221.23
                             1250.55  1254.26  1290.50  1336.01  1382.35
                             1457.72  1479.26  1489.24  1525.72  1560.00
                             1622.80  1657.37  1670.85  1693.59  1720.26
                             1740.19  1814.35  1828.62  1866.95  1889.61
                             1931.71  1976.72  1990.49  2008.94  2020.36
                             2044.81  2060.49  2077.66  2132.95  2161.96
                             2179.79  2186.31  2190.30  2194.88  2201.14
                             2208.78  2217.40  2226.74  2230.93  3214.23
                             4263.28  4335.31  4352.03  4366.62  4376.87
                             4381.91  4383.44  4399.53  4410.31  4421.46
                             4433.92  4445.76  4474.05  4477.35  4485.33
                             4486.81  4533.75  5012.21  5029.85

 Zero-point correction=                           0.274380 (Hartree/Particle)
 Thermal correction to Energy=                    0.288187
 Thermal correction to Enthalpy=                  0.289131
 Thermal correction to Gibbs Free Energy=         0.234194
 Sum of electronic and zero-point Energies=           -446.957378
 Sum of electronic and thermal Energies=              -446.943570
 Sum of electronic and thermal Enthalpies=            -446.942626
 Sum of electronic and thermal Free Energies=         -446.997564

                     E (Thermal)             CV                S
                      KCal/Mol        Cal/Mol-Kelvin    Cal/Mol-Kelvin
 Total                  180.840             50.931            115.626
 Electronic               0.000              0.000              0.000
 Translational            0.889              2.981             40.989
 Rotational               0.889              2.981             30.766
 Vibrational            179.063             44.969             43.871
 Vibration     1          0.595              1.979              4.976
 Vibration     2          0.596              1.975              4.622
 Vibration     3          0.598              1.970              4.241
 Vibration     4          0.606              1.942              3.293
 Vibration     5          0.610              1.928              3.018
 Vibration     6          0.614              1.915              2.823
 Vibration     7          0.628              1.871              2.361
 Vibration     8          0.647              1.811              1.963
 Vibration     9          0.657              1.779              1.804
 Vibration    10          0.662              1.764              1.736
 Vibration    11          0.683              1.701              1.502
 Vibration    12          0.697              1.660              1.377
 Vibration    13          0.712              1.619              1.267
 Vibration    14          0.740              1.541              1.093
 Vibration    15          0.745              1.525              1.062
 Vibration    16          0.769              1.462              0.949
 Vibration    17          0.794              1.399              0.850
 Vibration    18          0.816              1.344              0.773
 Vibration    19          0.896              1.159              0.562
 Vibration    20          0.958              1.033              0.450
 Vibration    21          0.976              0.997              0.422

 Optimization completed.
    -- Stationary point found.
 Normal termination of Gaussian 16 at Tue Dec  8 19:46:08 2020.

 ----------------------------------------------------------------------
 # B3LYP/6-311++G(d,p) empiricaldispersion=gd3bj scf=xqc pop=npa geom=c
 heck
 ----------------------------------------------------------------------

 ---------------------------------------
 CID_114976896_JID_1285_Energie_neutraal
 ---------------------------------------
 Structure from the checkpoint file:  "JID_1285.chk"
 Charge =  0 Multiplicity = 1

 SCF Done:  E(RB3LYP) =  -447.364022900     A.U. after   14 cycles
 Normal termination of Gaussian 16 at Tue Dec  8 19:49:02 2020.

 ----------------------------------------------------------------------
 # B3LYP/6-311++G(d,p) empiricaldispersion=gd3bj scf=xqc pop=npa geom=c
 heck
 ----------------------------------------------------------------------

 -------------------------------------
 CID_114976896_JID_1285_Energie_kation
 -------------------------------------
 Structure from the checkpoint file:  "JID_1285.chk"
 Charge =  1 Multiplicity = 2

 SCF Done:  E(UB3LYP) =  -447.060056212     A.U. after   21 cycles
 Normal termination of Gaussian 16 at Tue Dec  8 19:54:26 2020.
 Gaussian 16:  ES64L-G16RevA.03 25-Dec-2016

 ----------------------------------------------------------------------
 # B3LYP/6-311++G(d,p) empiricaldispersion=gd3bj scf=xqc pop=npa geom=c
 heck
 ----------------------------------------------------------------------

 ------------------------------------
 CID_114976896_JID_1285_Energie_anion
 ------------------------------------
 Structure from the checkpoint file:  "JID_1285.chk"
 Charge = -1 Multiplicity = 2

                         Standard orientation:
 ---------------------------------------------------------------------
 Center     Atomic      Atomic             Coordinates (Angstroms)
 Number     Number       Type             X           Y           Z
 ---------------------------------------------------------------------
      1          6           0        3.299856    0.523661   -0.811906
      2          6           0        2.975282   -0.207815    0.494109
      3          6           0        1.508166   -0.068236    0.928148
      4          6           0        0.472989   -0.601375   -0.079875
      5          6           0        0.757644   -2.055229   -0.477716
      6          6           0       -0.977076   -0.478263    0.445536
      7          6           0       -1.293984    0.915116    1.068953
      8          6           0       -1.111351    2.000242    0.107979
      9          6           0       -0.953004    2.853157   -0.733323
     10          7           0       -1.903347   -0.837279   -0.627353
     11          6           0       -3.279634   -1.076577   -0.217190
     12          1           0        2.768079    0.085951   -1.663893
     13          1           0        4.371963    0.479924   -1.033842
     14          1           0        3.010962    1.580202   -0.751568
     15          1           0        3.242525   -1.267434    0.399708
     16          1           0        3.608284    0.192797    1.296819
     17          1           0        1.370017   -0.587995    1.888462
     18          1           0        1.318166    0.995620    1.114709
     19          1           0        0.528337    0.023276   -0.982431
     20          1           0        0.842481   -2.690971    0.414070
     21          1           0       -0.056445   -2.440060   -1.095715
     22          1           0        1.693429   -2.144608   -1.038331
     23          1           0       -1.115727   -1.216428    1.248592
     24          1           0       -2.331598    0.913876    1.424895
     25          1           0       -0.671522    1.087018    1.954079
     26          1           0       -0.813546    3.626907   -1.453208
     27          1           0       -1.873913   -0.105264   -1.336135
     28          1           0       -3.787144   -0.222731    0.266966
     29          1           0       -3.870380   -1.358931   -1.094724
     30          1           0       -3.303874   -1.918284    0.484721
 ---------------------------------------------------------------------

 SCF Done:  E(UB3LYP) =  -447.346685958     A.U. after   33 cycles
 SCF Done:  E(UB3LYP) =  -447.346685958     a.u. after    1 cycles

 The electronic state is 2-A.
 Alpha  occ. eigenvalues --  -14.19605 -10.10359 -10.09031 -10.08533 -10.07892
 Alpha  occ. eigenvalues --  -10.06956 -10.06505 -10.06485 -10.06090 -10.05875
 Alpha  occ. eigenvalues --  -10.05036  -0.81162  -0.71485  -0.68728  -0.65498
 Alpha  occ. eigenvalues --   -0.61922  -0.58342  -0.57231  -0.52934  -0.49890
 Alpha  occ. eigenvalues --   -0.45575  -0.43067  -0.38492  -0.37925  -0.36934
 Alpha  occ. eigenvalues --   -0.36039  -0.34776  -0.32876  -0.32425  -0.30675
 Alpha  occ. eigenvalues --   -0.29659  -0.29373  -0.28092  -0.26695  -0.25921
 Alpha  occ. eigenvalues --   -0.25255  -0.24600  -0.21959  -0.21744  -0.21380
 Alpha  occ. eigenvalues --   -0.18008  -0.17656  -0.12626   0.04557
 Alpha virt. eigenvalues --    0.06433   0.06700   0.07609   0.08470   0.08993
 Alpha virt. eigenvalues --    0.09517   0.09630   0.10792   0.11192   0.11422
 Alpha virt. eigenvalues --    0.11884   0.12293   0.12819   0.13078   0.13532

  Beta  occ. eigenvalues --  -14.19598 -10.10347 -10.09007 -10.08495 -10.07893
  Beta  occ. eigenvalues --  -10.06954 -10.06483 -10.06470 -10.06074 -10.05854
  Beta  occ. eigenvalues --  -10.05023  -0.81144  -0.71462  -0.68698  -0.65472
  Beta  occ. eigenvalues --   -0.61892  -0.58292  -0.57176  -0.52880  -0.49844
  Beta  occ. eigenvalues --   -0.45524  -0.43014  -0.38458  -0.37892  -0.36902
  Beta  occ. eigenvalues --   -0.36012  -0.34736  -0.32841  -0.32384  -0.30642
  Beta  occ. eigenvalues --   -0.29631  -0.29341  -0.28061  -0.26660  -0.25887
  Beta  occ. eigenvalues --   -0.25232  -0.24566  -0.21932  -0.21713  -0.21356
  Beta  occ. eigenvalues --   -0.17981  -0.17636  -0.12607
  Beta virt. eigenvalues --    0.06659   0.07343   0.07558   0.08196   0.08947
  Beta virt. eigenvalues --    0.09527   0.09903   0.10171   0.11045   0.11528
  Beta virt. eigenvalues --    0.11750   0.12258   0.12499   0.13077   0.13319

 Mulliken charges and spin densities:
               1          2
     1  C    0.259393  -0.873377
     2  C    0.116912  -0.471018
     3  C   -0.632071   0.251373
     4  C   -1.091471   1.323105
     5  C    0.327510  -0.949051
     6  C    0.667622  -1.014219
     7  C   -0.957758   0.753987
     8  C    2.690714  -2.679931
     9  C   -0.735692   0.433135
    10  N   -0.154079   0.125997
    11  C    1.052946  -1.368800
    12  H   -0.162182   0.314142
    13  H   -0.344350   0.482706
    14  H    0.097535   0.043311
    15  H    0.119592   0.013653
    16  H   -0.446485   0.612052
    17  H   -0.227322   0.393912
    18  H    0.353379  -0.252768
    19  H    0.392082  -0.264214
    20  H   -0.069492   0.217241
    21  H    0.081988   0.084293
    22  H    0.038425   0.087054
    23  H   -0.096592   0.289361
    24  H   -0.370254   0.571891
    25  H   -0.370222   0.549111
    26  H   -0.896699   1.084370
    27  H    0.136843   0.075609
    28  H   -0.085480   0.197736
    29  H   -0.243864   0.376408
    30  H   -0.450930   0.592930
 Sum of Mulliken charges =  -1.00000   1.00000

 Dipole moment (field-independent basis, Debye):
    X=              1.1494    Y=             -1.3341    Z=             -1.4052  Tot=              2.2529
 Quadrupole moment (field-independent basis, Debye-Ang):
   XX=           -143.1737   YY=           -121.3290   ZZ=           -108.3809
   XY=             -4.4607   XZ=              2.1571   YZ=              3.7211

 Summary of Natural Population Analysis:

                                       Natural Population
                Natural  -----------------------------------------------
    Atom  No    Charge         Core      Valence    Rydberg      Total
 -----------------------------------------------------------------------
      C    1   -0.28806      0.99967     2.28292    0.00547     3.28806
      C    2   -0.18863      0.99964     2.18105    0.00794     3.18863
      C    3   -0.18933      0.99961     2.18012    0.00961     3.18933
      C    4   -0.11793      0.99958     2.10706    0.01129     3.11793
      C    5   -0.28716      0.99964     2.28249    0.00502     3.28716
      C    6    0.00554      0.99957     1.98100    0.01389     2.99446
      C    7   -0.24481      0.99955     2.23410    0.01116     3.24481
      C    8    0.00070      0.99938     1.99053    0.00940     2.99930
      C    9   -0.12736      0.99925     2.12415    0.00395     3.12736
      N   10   -0.34252      0.99974     2.83135    0.01143     3.84252
      C   11   -0.17758      0.99966     2.16968    0.00825     3.17758
      H   12    0.09540      0.00000     0.40368    0.00092     0.40460
      H   13    0.09782      0.00000     0.40125    0.00093     0.40218
      H   14    0.09801      0.00000     0.40081    0.00118     0.40199
      H   15    0.09294      0.00000     0.40591    0.00115     0.40706
      H   16    0.09578      0.00000     0.40307    0.00116     0.40422
      H   17    0.09624      0.00000     0.40232    0.00143     0.40376
      H   18    0.09878      0.00000     0.39941    0.00181     0.40122
      H   19    0.09760      0.00000     0.40007    0.00234     0.40240
      H   20    0.09461      0.00000     0.40440    0.00099     0.40539
      H   21    0.11083      0.00000     0.38792    0.00125     0.38917
      H   22    0.09647      0.00000     0.40271    0.00082     0.40353
      H   23    0.09463      0.00000     0.40330    0.00207     0.40537
      H   24    0.11689      0.00000     0.38141    0.00170     0.38311
      H   25    0.11761      0.00000     0.38074    0.00165     0.38239
      H   26    0.11221      0.00000     0.38600    0.00180     0.38779
      H   27    0.17450      0.00000     0.32275    0.00275     0.32550
      H   28    0.07938      0.00000     0.41874    0.00188     0.42062
      H   29    0.09441      0.00000     0.40468    0.00091     0.40559
      H   30    0.09303      0.00000     0.40549    0.00148     0.40697
 =======================================================================
   * Total *    0.00000     10.99528    31.87910    0.12562    43.00000

 Normal termination of Gaussian 16 at Tue Dec  8 20:02:56 2020.
