 Gaussian 16, Revision A.03,

 -----------------------------------------------------------
 # opt freq B3LYP/6-31G(d) empiricaldispersion=gd3bj scf=xqc
 -----------------------------------------------------------

 -------------------------------
 CID_116191534_JID_6669_neutraal
 -------------------------------
 Symbolic Z-matrix:
 Charge =  0 Multiplicity = 1

 SCF Done:  E(RB3LYP) =  -658.679082677     A.U. after   12 cycles
 SCF Done:  E(RB3LYP) =  -658.691238589     A.U. after   11 cycles
 SCF Done:  E(RB3LYP) =  -658.692854687     A.U. after   11 cycles
 SCF Done:  E(RB3LYP) =  -658.693414801     A.U. after   11 cycles
 SCF Done:  E(RB3LYP) =  -658.693609712     A.U. after   10 cycles
 SCF Done:  E(RB3LYP) =  -658.693826798     A.U. after   10 cycles
 SCF Done:  E(RB3LYP) =  -658.693885790     A.U. after    9 cycles
 SCF Done:  E(RB3LYP) =  -658.693936175     A.U. after   10 cycles
 SCF Done:  E(RB3LYP) =  -658.694014071     A.U. after   10 cycles
 SCF Done:  E(RB3LYP) =  -658.694101933     A.U. after   10 cycles
 SCF Done:  E(RB3LYP) =  -658.695395827     A.U. after   10 cycles
 SCF Done:  E(RB3LYP) =  -658.695402720     A.U. after    8 cycles
 SCF Done:  E(RB3LYP) =  -658.695403823     A.U. after   10 cycles
 SCF Done:  E(RB3LYP) =  -658.695405429     A.U. after    8 cycles
 SCF Done:  E(RB3LYP) =  -658.695405629     A.U. after    7 cycles
 SCF Done:  E(RB3LYP) =  -658.695405880     A.U. after    7 cycles
 Optimization completed.
    -- Stationary point found.
 Normal termination of Gaussian 16 at Fri Dec 11 00:41:33 2020.

 --------------------------------------------------------------------
 #N Geom=AllCheck Guess=TCheck SCRF=Check GenChk RB3LYP/6-31G(d) Freq
 --------------------------------------------------------------------

 Structure from the checkpoint file:  "JID_6669.chk"
 -------------------------------
 CID_116191534_JID_6669_neutraal
 -------------------------------
 Charge =  0 Multiplicity = 1

 SCF Done:  E(RB3LYP) =  -658.695405880     A.U. after    1 cycles

  Exact polarizability: 191.800  -1.648 143.470   3.795   0.057 130.442
 Approx polarizability: 217.296  -0.374 209.540   0.308   0.532 206.552

                      1                      2                      3
                      A                      A                      A
 Frequencies --     16.9054                21.7098                48.3863
 Red. masses --      3.0593                 3.7296                 3.5577
 Frc consts  --      0.0005                 0.0010                 0.0049
 IR Inten    --      0.1298                 0.0387                 0.1542

                      4                      5                      6
                      A                      A                      A
 Frequencies --     88.3222               139.5591               147.4574
 Red. masses --      3.2669                 2.8140                 2.3629
 Frc consts  --      0.0150                 0.0323                 0.0303
 IR Inten    --      0.0464                 0.7421                 0.5686

                      7                      8                      9
                      A                      A                      A
 Frequencies --    163.0594               196.1329               223.1915
 Red. masses --      2.2413                 2.2286                 2.9275
 Frc consts  --      0.0351                 0.0505                 0.0859
 IR Inten    --      0.7490                 1.0411                 0.0868

                     10                     11                     12
                      A                      A                      A
 Frequencies --    252.8518               268.3402               312.1841
 Red. masses --      2.4288                 1.0840                 2.3980
 Frc consts  --      0.0915                 0.0460                 0.1377
 IR Inten    --      0.2251                 0.2100                 0.1887

                     13                     14                     15
                      A                      A                      A
 Frequencies --    323.8124               346.4603               359.1532
 Red. masses --      1.7329                 2.0046                 2.3283
 Frc consts  --      0.1071                 0.1418                 0.1770
 IR Inten    --      0.1438                 1.2852                 1.1330

                     16                     17                     18
                      A                      A                      A
 Frequencies --    371.9415               419.2955               446.8418
 Red. masses --      2.5418                 2.8047                 2.6606
 Frc consts  --      0.2072                 0.2905                 0.3130
 IR Inten    --      0.5328                 2.4048                 1.5674

                     19                     20                     21
                      A                      A                      A
 Frequencies --    447.6038               488.4674               491.0326
 Red. masses --      2.6803                 2.4488                 3.0079
 Frc consts  --      0.3164                 0.3443                 0.4273
 IR Inten    --      9.3649                 2.0808                 0.8483

                     22                     23                     24
                      A                      A                      A
 Frequencies --    526.6085               590.3771               613.9287
 Red. masses --      2.4132                 2.0681                 2.5569
 Frc consts  --      0.3943                 0.4247                 0.5678
 IR Inten    --      8.3266                12.1400                12.1891

                     25                     26                     27
                      A                      A                      A
 Frequencies --    660.4598               730.4749               765.3556
 Red. masses --      2.2917                 1.8578                 1.3522
 Frc consts  --      0.5890                 0.5841                 0.4667
 IR Inten    --      1.8623                 3.3489                54.6607

                     28                     29                     30
                      A                      A                      A
 Frequencies --    796.2398               797.6849               813.0029
 Red. masses --      1.9548                 2.1425                 1.2876
 Frc consts  --      0.7302                 0.8032                 0.5014
 IR Inten    --     46.5177                 6.1377                 3.2284

                     31                     32                     33
                      A                      A                      A
 Frequencies --    849.0853               857.3133               873.4673
 Red. masses --      2.4875                 1.5868                 1.9131
 Frc consts  --      1.0566                 0.6871                 0.8600
 IR Inten    --      0.9255                 3.1846                 0.7489

                     34                     35                     36
                      A                      A                      A
 Frequencies --    886.2521               899.5713               919.7209
 Red. masses --      1.9776                 1.9141                 2.0034
 Frc consts  --      0.9152                 0.9126                 0.9985
 IR Inten    --      5.6590                15.8159                 2.1184

                     37                     38                     39
                      A                      A                      A
 Frequencies --    925.4119               930.5855               946.0766
 Red. masses --      1.6422                 1.8888                 1.9663
 Frc consts  --      0.8286                 0.9637                 1.0369
 IR Inten    --      0.3719                 4.1399                 2.1771

                     40                     41                     42
                      A                      A                      A
 Frequencies --    950.4697               953.5197               989.6473
 Red. masses --      2.3585                 1.8328                 1.8491
 Frc consts  --      1.2554                 0.9818                 1.0670
 IR Inten    --      1.5153                 2.3429                 1.2086

                     43                     44                     45
                      A                      A                      A
 Frequencies --    997.6152              1006.2743              1045.8628
 Red. masses --      2.0647                 1.8498                 2.1916
 Frc consts  --      1.2107                 1.1036                 1.4124
 IR Inten    --      0.7770                 0.8022                 3.5199

                     46                     47                     48
                      A                      A                      A
 Frequencies --   1065.9819              1072.5003              1073.7765
 Red. masses --      1.4440                 1.4596                 1.7494
 Frc consts  --      0.9667                 0.9892                 1.1884
 IR Inten    --      5.3975                 0.2798                 0.8483

                     49                     50                     51
                      A                      A                      A
 Frequencies --   1091.6214              1120.9081              1124.8395
 Red. masses --      1.7628                 2.5665                 2.4179
 Frc consts  --      1.2376                 1.8999                 1.8024
 IR Inten    --      5.0687                 1.4994                17.0889

                     52                     53                     54
                      A                      A                      A
 Frequencies --   1129.4300              1135.6054              1162.0483
 Red. masses --      2.1589                 2.3053                 2.0407
 Frc consts  --      1.6225                 1.7516                 1.6236
 IR Inten    --     13.1240                11.7195                13.8576

                     55                     56                     57
                      A                      A                      A
 Frequencies --   1170.2699              1192.9753              1202.9320
 Red. masses --      1.9830                 1.9076                 2.1432
 Frc consts  --      1.6001                 1.5996                 1.8273
 IR Inten    --      2.1365                 9.3494                 4.6968

                     58                     59                     60
                      A                      A                      A
 Frequencies --   1215.4172              1222.8821              1234.9652
 Red. masses --      1.5791                 1.4156                 1.4817
 Frc consts  --      1.3744                 1.2472                 1.3314
 IR Inten    --      3.3136                 2.4124                11.4615

                     61                     62                     63
                      A                      A                      A
 Frequencies --   1241.8687              1270.6207              1274.0745
 Red. masses --      2.0129                 1.2678                 1.3114
 Frc consts  --      1.8290                 1.2060                 1.2543
 IR Inten    --     37.2717                 0.1729                11.7196

                     64                     65                     66
                      A                      A                      A
 Frequencies --   1283.9169              1285.0137              1296.3750
 Red. masses --      1.2869                 1.2572                 1.4485
 Frc consts  --      1.2499                 1.2231                 1.4343
 IR Inten    --      8.3400                 2.9586                26.7854

                     67                     68                     69
                      A                      A                      A
 Frequencies --   1299.7233              1303.7361              1323.8590
 Red. masses --      1.6479                 1.3693                 1.2777
 Frc consts  --      1.6402                 1.3713                 1.3193
 IR Inten    --      2.7927                 0.9318                 2.3868

                     70                     71                     72
                      A                      A                      A
 Frequencies --   1332.3144              1342.1484              1353.5553
 Red. masses --      1.9050                 1.3713                 1.3155
 Frc consts  --      1.9923                 1.4554                 1.4200
 IR Inten    --     37.4182                 4.5377                 4.3791

                     73                     74                     75
                      A                      A                      A
 Frequencies --   1366.8333              1378.5134              1388.5906
 Red. masses --      1.2721                 1.3028                 1.4327
 Frc consts  --      1.4003                 1.4586                 1.6276
 IR Inten    --      4.2704                17.6633                 1.6277

                     76                     77                     78
                      A                      A                      A
 Frequencies --   1395.2242              1397.1257              1414.6095
 Red. masses --      1.3548                 1.3405                 1.4283
 Frc consts  --      1.5539                 1.5416                 1.6840
 IR Inten    --     10.1989                 2.3515                 1.3124

                     79                     80                     81
                      A                      A                      A
 Frequencies --   1423.8109              1434.5012              1435.9904
 Red. masses --      1.5297                 1.5191                 1.2684
 Frc consts  --      1.8271                 1.8417                 1.5410
 IR Inten    --      3.9569                 8.6930                 8.5214

                     82                     83                     84
                      A                      A                      A
 Frequencies --   1457.7230              1497.9169              1501.9465
 Red. masses --      1.4978                 1.1478                 1.1639
 Frc consts  --      1.8752                 1.5174                 1.5470
 IR Inten    --     28.8870                 9.8039                 4.8964

                     85                     86                     87
                      A                      A                      A
 Frequencies --   1509.6465              1515.4048              1516.6013
 Red. masses --      1.0788                 1.0956                 1.0905
 Frc consts  --      1.4486                 1.4824                 1.4778
 IR Inten    --      0.7498                 1.7974                 4.7056

                     88                     89                     90
                      A                      A                      A
 Frequencies --   1522.0347              1522.3852              1526.0983
 Red. masses --      1.0903                 1.0770                 1.0926
 Frc consts  --      1.4881                 1.4707                 1.4992
 IR Inten    --      2.6788                 2.7915                 4.2520

                     91                     92                     93
                      A                      A                      A
 Frequencies --   1530.1759              1533.6659              1535.6429
 Red. masses --      1.0741                 1.0990                 1.1020
 Frc consts  --      1.4817                 1.5231                 1.5311
 IR Inten    --      1.2952                 1.5001                12.1518

                     94                     95                     96
                      A                      A                      A
 Frequencies --   1538.6330              2886.7729              2940.0069
 Red. masses --      1.1258                 1.0792                 1.0716
 Frc consts  --      1.5702                 5.2987                 5.4574
 IR Inten    --      3.7184                41.8774                58.9219

                     97                     98                     99
                      A                      A                      A
 Frequencies --   3016.8796              3024.2704              3025.2715
 Red. masses --      1.0779                 1.0704                 1.0674
 Frc consts  --      5.7802                 5.7684                 5.7557
 IR Inten    --      4.4087                18.9266                10.5651

                    100                    101                    102
                      A                      A                      A
 Frequencies --   3030.5498              3036.8102              3037.0394
 Red. masses --      1.0622                 1.0561                 1.0432
 Frc consts  --      5.7475                 5.7383                 5.6693
 IR Inten    --     27.5993                 8.6453                29.6470

                    103                    104                    105
                      A                      A                      A
 Frequencies --   3038.4962              3050.8221              3061.7189
 Red. masses --      1.0692                 1.0831                 1.0873
 Frc consts  --      5.8160                 5.9396                 6.0053
 IR Inten    --     67.9041                28.7070                37.8310

                    106                    107                    108
                      A                      A                      A
 Frequencies --   3066.7008              3070.3508              3070.8568
 Red. masses --      1.0590                 1.0595                 1.0973
 Frc consts  --      5.8677                 5.8850                 6.0965
 IR Inten    --     62.7012                24.8092                58.3871

                    109                    110                    111
                      A                      A                      A
 Frequencies --   3074.1137              3076.4089              3078.7392
 Red. masses --      1.0990                 1.0982                 1.0622
 Frc consts  --      6.1191                 6.1236                 5.9320
 IR Inten    --     31.2345                51.1605                27.3827

                    112                    113                    114
                      A                      A                      A
 Frequencies --   3084.4698              3101.1303              3107.5174
 Red. masses --      1.1035                 1.0996                 1.0967
 Frc consts  --      6.1856                 6.2308                 6.2398
 IR Inten    --     88.6176                34.4915                48.3821

                    115                    116                    117
                      A                      A                      A
 Frequencies --   3113.9556              3115.2581              3125.8675
 Red. masses --      1.1076                 1.1017                 1.1083
 Frc consts  --      6.3282                 6.2996                 6.3802
 IR Inten    --     20.6413                31.8859                 6.4250

                    118                    119                    120
                      A                      A                      A
 Frequencies --   3137.8259              3455.4178              3501.7836
 Red. masses --      1.1070                 1.0728                 1.0746
 Frc consts  --      6.4220                 7.5469                 7.7635
 IR Inten    --     65.2792                 4.2959                 6.9045

 - Thermochemistry -
 -------------------
 Temperature   298.150 Kelvin.  Pressure   1.00000 Atm.
 Atom     1 has atomic number  6 and mass  12.00000

 Molecular mass:   222.20960 amu.
 Principal axes and moments of inertia in atomic units:
                           1         2         3
     Eigenvalues --  1177.746059239.744209609.81164
           X            1.00000   0.00021  -0.00062
           Y           -0.00022   0.99995  -0.01002
           Z            0.00061   0.01002   0.99995
 This molecule is an asymmetric top.
 Rotational symmetry number  1.
 Warning -- assumption of classical behavior for rotation
           may cause significant error
 Rotational temperatures (Kelvin)      0.07354     0.00937     0.00901
 Rotational constants (GHZ):           1.53237     0.19532     0.18780
 Zero-point vibrational energy    1025158.9 (Joules/Mol)
                                  245.01885 (Kcal/Mol)
 Warning -- explicit consideration of  24 degrees of freedom as
           vibrations may cause significant error
 Vibrational temperatures:     24.32    31.24    69.62   127.08   200.79
          (Kelvin)            212.16   234.61   282.19   321.12   363.80
                              386.08   449.16   465.89   498.48   516.74
                              535.14   603.27   642.91   644.00   702.80
                              706.49   757.67   849.42   883.31   950.25
                             1050.99  1101.18  1145.61  1147.69  1169.73
                             1221.64  1233.48  1256.72  1275.12  1294.28
                             1323.27  1331.46  1338.90  1361.19  1367.51
                             1371.90  1423.88  1435.35  1447.80  1504.76
                             1533.71  1543.09  1544.92  1570.60  1612.74
                             1618.39  1625.00  1633.88  1671.93  1683.76
                             1716.43  1730.75  1748.71  1759.45  1776.84
                             1786.77  1828.14  1833.11  1847.27  1848.85
                             1865.19  1870.01  1875.79  1904.74  1916.90
                             1931.05  1947.46  1966.57  1983.37  1997.87
                             2007.42  2010.15  2035.31  2048.55  2063.93
                             2066.07  2097.34  2155.17  2160.97  2172.04
                             2180.33  2182.05  2189.87  2190.37  2195.72
                             2201.58  2206.60  2209.45  2213.75  4153.42
                             4230.01  4340.62  4351.25  4352.69  4360.29
                             4369.29  4369.62  4371.72  4389.45  4405.13
                             4412.30  4417.55  4418.28  4422.96  4426.27
                             4429.62  4437.86  4461.83  4471.02  4480.29
                             4482.16  4497.43  4514.63  4971.58  5038.29

 Zero-point correction=                           0.390462 (Hartree/Particle)
 Thermal correction to Energy=                    0.406173
 Thermal correction to Enthalpy=                  0.407117
 Thermal correction to Gibbs Free Energy=         0.345956
 Sum of electronic and zero-point Energies=           -658.304943
 Sum of electronic and thermal Energies=              -658.289233
 Sum of electronic and thermal Enthalpies=            -658.288289
 Sum of electronic and thermal Free Energies=         -658.349450

                     E (Thermal)             CV                S
                      KCal/Mol        Cal/Mol-Kelvin    Cal/Mol-Kelvin
 Total                  254.877             63.133            128.725
 Electronic               0.000              0.000              0.000
 Translational            0.889              2.981             42.098
 Rotational               0.889              2.981             33.014
 Vibrational            253.100             57.171             53.613
 Vibration     1          0.593              1.986              6.968
 Vibration     2          0.593              1.985              6.471
 Vibration     3          0.595              1.978              4.882
 Vibration     4          0.601              1.957              3.697
 Vibration     5          0.615              1.914              2.810
 Vibration     6          0.617              1.905              2.705
 Vibration     7          0.623              1.888              2.514
 Vibration     8          0.636              1.845              2.169
 Vibration     9          0.649              1.806              1.933
 Vibration    10          0.664              1.758              1.711
 Vibration    11          0.673              1.731              1.607
 Vibration    12          0.701              1.650              1.351
 Vibration    13          0.708              1.628              1.291
 Vibration    14          0.724              1.582              1.182
 Vibration    15          0.734              1.556              1.126
 Vibration    16          0.744              1.530              1.072
 Vibration    17          0.782              1.428              0.894
 Vibration    18          0.806              1.368              0.805
 Vibration    19          0.807              1.366              0.803
 Vibration    20          0.844              1.276              0.688
 Vibration    21          0.847              1.270              0.681
 Vibration    22          0.882              1.191              0.595
 Vibration    23          0.948              1.052              0.467
 Vibration    24          0.973              1.002              0.426

                           ! Non-Optimized Parameters !
 Normal termination of Gaussian 16 at Fri Dec 11 00:57:22 2020.

 ----------------------------------------------------------------------
 # B3LYP/6-311++G(d,p) empiricaldispersion=gd3bj scf=xqc pop=npa geom=c
 heck
 ----------------------------------------------------------------------

 ---------------------------------------
 CID_116191534_JID_6669_Energie_neutraal
 ---------------------------------------
 Structure from the checkpoint file:  "JID_6669.chk"
 Charge =  0 Multiplicity = 1

 SCF Done:  E(RB3LYP) =  -658.877355284     A.U. after   14 cycles
 Normal termination of Gaussian 16 at Fri Dec 11 01:06:01 2020.

 ----------------------------------------------------------------------
 # B3LYP/6-311++G(d,p) empiricaldispersion=gd3bj scf=xqc pop=npa geom=c
 heck
 ----------------------------------------------------------------------

 -------------------------------------
 CID_116191534_JID_6669_Energie_kation
 -------------------------------------
 Structure from the checkpoint file:  "JID_6669.chk"
 Charge =  1 Multiplicity = 2

 SCF Done:  E(UB3LYP) =  -658.594302341     A.U. after   19 cycles
 Normal termination of Gaussian 16 at Fri Dec 11 01:22:35 2020.
 Gaussian 16:  ES64L-G16RevA.03 25-Dec-2016

 ----------------------------------------------------------------------
 # B3LYP/6-311++G(d,p) empiricaldispersion=gd3bj scf=xqc pop=npa geom=c
 heck
 ----------------------------------------------------------------------

 ------------------------------------
 CID_116191534_JID_6669_Energie_anion
 ------------------------------------
 Structure from the checkpoint file:  "JID_6669.chk"
 Charge = -1 Multiplicity = 2

                         Standard orientation:
 ---------------------------------------------------------------------
 Center     Atomic      Atomic             Coordinates (Angstroms)
 Number     Number       Type             X           Y           Z
 ---------------------------------------------------------------------
      1          6           0       -3.218294   -0.985634    1.578922
      2          6           0       -3.316738   -0.301604    0.209521
      3          6           0       -4.081754    1.053826    0.275975
      4          6           0       -5.371480    0.317476   -0.170416
      5          6           0       -4.490499   -0.868885   -0.640037
      6          7           0       -2.053864   -0.236684   -0.526305
      7          6           0       -0.985340    0.514485    0.126605
      8          6           0        0.235386    0.673144   -0.785374
      9          6           0        1.282899    1.641005   -0.162361
     10          6           0        2.612203    0.889739   -0.290501
     11          6           0        3.761043    1.208762    0.660001
     12          6           0        4.922474    0.232012    0.391444
     13          6           0        4.479994   -1.242230    0.445114
     14          6           0        3.279619   -1.533700   -0.476047
     15          6           0        2.156257   -0.561925   -0.137770
     16          7           0        0.988939   -0.589429   -1.016449
     17          1           0       -2.544604   -0.443810    2.251751
     18          1           0       -4.198263   -1.041651    2.066825
     19          1           0       -2.841496   -2.011180    1.470377
     20          1           0       -4.099590    1.573901    1.239384
     21          1           0       -3.714042    1.734881   -0.496758
     22          1           0       -5.987198    0.809703   -0.928116
     23          1           0       -6.012976    0.051237    0.675431
     24          1           0       -4.249382   -0.803871   -1.704791
     25          1           0       -4.832576   -1.882560   -0.404548
     26          1           0       -1.743620   -1.190861   -0.713461
     27          1           0       -1.382106    1.512000    0.356269
     28          1           0       -0.649759    0.081249    1.088148
     29          1           0       -0.125465    1.045706   -1.751519
     30          1           0        1.285537    2.618132   -0.654612
     31          1           0        1.053187    1.809910    0.898834
     32          1           0        2.973659    0.997344   -1.323680
     33          1           0        3.418549    1.106564    1.700269
     34          1           0        4.100658    2.245158    0.538570
     35          1           0        5.735465    0.401766    1.108050
     36          1           0        5.335053    0.443887   -0.605296
     37          1           0        5.323084   -1.892804    0.183239
     38          1           0        4.202992   -1.493907    1.479134
     39          1           0        3.557304   -1.399421   -1.529653
     40          1           0        2.955165   -2.576167   -0.358193
     41          1           0        1.887124   -0.716623    0.928372
     42          1           0        0.413161   -1.414630   -0.865201
 ---------------------------------------------------------------------

 SCF Done:  E(UB3LYP) =  -658.862764556     A.U. after   30 cycles

 The electronic state is 2-A.
 Alpha  occ. eigenvalues --  -14.20002 -14.19677 -10.10955 -10.10043 -10.09382
 Alpha  occ. eigenvalues --  -10.09309 -10.07598 -10.07446 -10.07401 -10.07372
 Alpha  occ. eigenvalues --  -10.07349 -10.07213 -10.07018 -10.06921 -10.06762
 Alpha  occ. eigenvalues --  -10.05884  -0.83259  -0.81274  -0.73926  -0.72578
 Alpha  occ. eigenvalues --   -0.67887  -0.64412  -0.63081  -0.61559  -0.57559
 Alpha  occ. eigenvalues --   -0.56319  -0.52309  -0.51319  -0.49173  -0.48244
 Alpha  occ. eigenvalues --   -0.46154  -0.43630  -0.41069  -0.39865  -0.38929
 Alpha  occ. eigenvalues --   -0.37745  -0.36542  -0.35979  -0.35219  -0.34155
 Alpha  occ. eigenvalues --   -0.32545  -0.32034  -0.30815  -0.29762  -0.29566
 Alpha  occ. eigenvalues --   -0.28951  -0.28551  -0.28422  -0.27187  -0.26234
 Alpha  occ. eigenvalues --   -0.25554  -0.24824  -0.24194  -0.23543  -0.23192
 Alpha  occ. eigenvalues --   -0.22899  -0.22261  -0.21086  -0.20493  -0.20316
 Alpha  occ. eigenvalues --   -0.13516  -0.12504   0.04280
 Alpha virt. eigenvalues --    0.05816   0.06660   0.07156   0.07368   0.07850
 Alpha virt. eigenvalues --    0.08032   0.09110   0.09355   0.09594   0.09748
 Alpha virt. eigenvalues --    0.10184   0.10754   0.11117   0.11306   0.11770

  Beta  occ. eigenvalues --  -14.19991 -14.19664 -10.10954 -10.10041 -10.09371
  Beta  occ. eigenvalues --  -10.09296 -10.07584 -10.07434 -10.07399 -10.07365
  Beta  occ. eigenvalues --  -10.07337 -10.07195 -10.07003 -10.06908 -10.06751
  Beta  occ. eigenvalues --  -10.05844  -0.83240  -0.81257  -0.73908  -0.72555
  Beta  occ. eigenvalues --   -0.67868  -0.64387  -0.63051  -0.61509  -0.57525
  Beta  occ. eigenvalues --   -0.56283  -0.52264  -0.51278  -0.49135  -0.48216
  Beta  occ. eigenvalues --   -0.46117  -0.43582  -0.41036  -0.39836  -0.38904
  Beta  occ. eigenvalues --   -0.37698  -0.36516  -0.35940  -0.35198  -0.34129
  Beta  occ. eigenvalues --   -0.32515  -0.32007  -0.30782  -0.29735  -0.29531
  Beta  occ. eigenvalues --   -0.28932  -0.28525  -0.28393  -0.27161  -0.26211
  Beta  occ. eigenvalues --   -0.25526  -0.24801  -0.24166  -0.23516  -0.23170
  Beta  occ. eigenvalues --   -0.22871  -0.22235  -0.21059  -0.20472  -0.20291
  Beta  occ. eigenvalues --   -0.13498  -0.12488
  Beta virt. eigenvalues --    0.06217   0.06508   0.07183   0.07518   0.07758
  Beta virt. eigenvalues --    0.08195   0.08355   0.09373   0.09639   0.09865
  Beta virt. eigenvalues --    0.10060   0.10431   0.10977   0.11316   0.11506

 Mulliken charges and spin densities:
               1          2
     1  C    2.056611  -2.708933
     2  C   -2.081075   1.961682
     3  C    0.367022  -0.360628
     4  C    0.178760  -0.788915
     5  C    0.095382  -0.102734
     6  N    0.307530  -0.057039
     7  C   -1.133913   0.014063
     8  C    0.411098   0.340164
     9  C   -0.078444  -1.121164
    10  C   -0.029272   0.881437
    11  C   -0.157354  -0.287010
    12  C   -0.187144  -0.159264
    13  C    0.325967  -0.814363
    14  C   -0.050882  -0.150463
    15  C   -0.089682  -0.792033
    16  N    0.042448   0.006653
    17  H   -0.196303   0.343791
    18  H   -0.168993   0.323235
    19  H   -0.465601   0.629523
    20  H   -0.191418   0.346362
    21  H    0.112725   0.001280
    22  H    0.056084   0.075148
    23  H   -0.044902   0.182120
    24  H    0.066597   0.052520
    25  H   -0.205689   0.363718
    26  H    0.116643   0.082942
    27  H    0.050288   0.144164
    28  H    0.038062   0.129324
    29  H    0.139464   0.078088
    30  H    0.081016   0.064432
    31  H   -0.039061   0.193701
    32  H    0.111210   0.091218
    33  H   -0.073966   0.215788
    34  H   -0.013794   0.157998
    35  H   -0.310693   0.496037
    36  H    0.107780  -0.002862
    37  H   -0.182202   0.360065
    38  H   -0.024971   0.151715
    39  H    0.152608  -0.000246
    40  H   -0.291710   0.446455
    41  H    0.017238   0.177378
    42  H    0.182535   0.034652
 Sum of Mulliken charges =  -1.00000   1.00000

 Dipole moment (field-independent basis, Debye):
    X=              0.6240    Y=              3.8254    Z=             -4.2854  Tot=              5.7782
 Quadrupole moment (field-independent basis, Debye-Ang):
   XX=           -208.1316   YY=           -144.4243   ZZ=           -142.5924
   XY=             -1.0003   XZ=              0.9735   YZ=              2.6591

 Summary of Natural Population Analysis:

                                       Natural Population
                Natural  -----------------------------------------------
    Atom  No    Charge         Core      Valence    Rydberg      Total
 -----------------------------------------------------------------------
      C    1   -0.29491      0.99961     2.28817    0.00713     3.29491
      C    2    0.06074      0.99956     1.92431    0.01539     2.93926
      C    3   -0.19125      0.99959     2.18330    0.00837     3.19125
      C    4   -0.19051      0.99965     2.18364    0.00722     3.19051
      C    5   -0.18743      0.99959     2.17934    0.00850     3.18743
      N    6   -0.34342      0.99971     2.83261    0.01110     3.84342
      C    7   -0.09387      0.99958     2.08370    0.01060     3.09387
      C    8   -0.00958      0.99960     1.99722    0.01276     3.00958
      C    9   -0.18785      0.99960     2.18033    0.00792     3.18785
      C   10   -0.10997      0.99956     2.10101    0.00940     3.10997
      C   11   -0.18772      0.99961     2.17932    0.00879     3.18772
      C   12   -0.18762      0.99963     2.17957    0.00841     3.18762
      C   13   -0.18909      0.99963     2.18136    0.00810     3.18909
      C   14   -0.19044      0.99960     2.18056    0.01028     3.19044
      C   15   -0.00939      0.99954     1.99650    0.01334     3.00939
      N   16   -0.34284      0.99973     2.83294    0.01016     3.84284
      H   17    0.10175      0.00000     0.39697    0.00128     0.39825
      H   18    0.10118      0.00000     0.39723    0.00160     0.39882
      H   19    0.10187      0.00000     0.39621    0.00192     0.39813
      H   20    0.09779      0.00000     0.40120    0.00101     0.40221
      H   21    0.10138      0.00000     0.39740    0.00122     0.39862
      H   22    0.09344      0.00000     0.40546    0.00110     0.40656
      H   23    0.09590      0.00000     0.40239    0.00170     0.40410
      H   24    0.10142      0.00000     0.39724    0.00134     0.39858
      H   25    0.09730      0.00000     0.40168    0.00102     0.40270
      H   26    0.17056      0.00000     0.32639    0.00306     0.32944
      H   27    0.09408      0.00000     0.40447    0.00145     0.40592
      H   28    0.08354      0.00000     0.41459    0.00187     0.41646
      H   29    0.09270      0.00000     0.40597    0.00133     0.40730
      H   30    0.10022      0.00000     0.39900    0.00078     0.39978
      H   31    0.09744      0.00000     0.40133    0.00123     0.40256
      H   32    0.09527      0.00000     0.40297    0.00176     0.40473
      H   33    0.09650      0.00000     0.40216    0.00134     0.40350
      H   34    0.09740      0.00000     0.40174    0.00086     0.40260
      H   35    0.09944      0.00000     0.39949    0.00107     0.40056
      H   36    0.09043      0.00000     0.40842    0.00115     0.40957
      H   37    0.09845      0.00000     0.40061    0.00094     0.40155
      H   38    0.09582      0.00000     0.40271    0.00147     0.40418
      H   39    0.09544      0.00000     0.40315    0.00141     0.40456
      H   40    0.10066      0.00000     0.39827    0.00108     0.39934
      H   41    0.08057      0.00000     0.41669    0.00274     0.41943
      H   42    0.17462      0.00000     0.32260    0.00279     0.32538
 =======================================================================
   * Total *   -0.00000     15.99379    45.81024    0.19597    62.00000

 Normal termination of Gaussian 16 at Fri Dec 11 01:48:19 2020.
