 Gaussian 16, Revision A.03,

 -----------------------------------------------------------
 # opt freq B3LYP/6-31G(d) empiricaldispersion=gd3bj scf=xqc
 -----------------------------------------------------------

 ------------------------------
 CID_63281443_JID_5910_neutraal
 ------------------------------
 Symbolic Z-matrix:
 Charge =  0 Multiplicity = 1

 SCF Done:  E(RB3LYP) =  -720.896007688     A.U. after   15 cycles
 SCF Done:  E(RB3LYP) =  -720.904685953     A.U. after   13 cycles
 SCF Done:  E(RB3LYP) =  -720.905490028     A.U. after   13 cycles
 SCF Done:  E(RB3LYP) =  -720.906028466     A.U. after   12 cycles
 SCF Done:  E(RB3LYP) =  -720.906390596     A.U. after   13 cycles
 SCF Done:  E(RB3LYP) =  -720.906822816     A.U. after   13 cycles
 SCF Done:  E(RB3LYP) =  -720.907015243     A.U. after   12 cycles
 SCF Done:  E(RB3LYP) =  -720.907131807     A.U. after   11 cycles
 SCF Done:  E(RB3LYP) =  -720.907185266     A.U. after   11 cycles
 SCF Done:  E(RB3LYP) =  -720.907196872     A.U. after   10 cycles
 SCF Done:  E(RB3LYP) =  -720.909647723     A.U. after   10 cycles
 SCF Done:  E(RB3LYP) =  -720.909647792     A.U. after   10 cycles
 SCF Done:  E(RB3LYP) =  -720.909647957     A.U. after   10 cycles
 SCF Done:  E(RB3LYP) =  -720.909650313     A.U. after    9 cycles
 SCF Done:  E(RB3LYP) =  -720.909651118     A.U. after    9 cycles
 Optimization completed.
    -- Stationary point found.
 Normal termination of Gaussian 16 at Thu Dec 10 18:13:33 2020.

 --------------------------------------------------------------------
 #N Geom=AllCheck Guess=TCheck SCRF=Check GenChk RB3LYP/6-31G(d) Freq
 --------------------------------------------------------------------

 Structure from the checkpoint file:  "JID_5910.chk"
 ------------------------------
 CID_63281443_JID_5910_neutraal
 ------------------------------
 Charge =  0 Multiplicity = 1

 SCF Done:  E(RB3LYP) =  -720.909651118     A.U. after    1 cycles

  Exact polarizability: 179.250  -0.165  99.216 -10.636 -11.061  98.887
 Approx polarizability: 246.711   3.739 149.831 -31.186 -34.468 165.049

                      1                      2                      3
                      A                      A                      A
 Frequencies --     21.2988                33.7121                40.6505
 Red. masses --      4.2116                 5.4081                 1.8034
 Frc consts  --      0.0011                 0.0036                 0.0018
 IR Inten    --      0.7272                 0.0905                 0.1432

                      4                      5                      6
                      A                      A                      A
 Frequencies --     81.1778               106.3795               140.8337
 Red. masses --      4.3717                 4.9235                 6.4964
 Frc consts  --      0.0170                 0.0328                 0.0759
 IR Inten    --      0.0403                 0.6859                 0.9033

                      7                      8                      9
                      A                      A                      A
 Frequencies --    143.6214               195.4252               230.1059
 Red. masses --      3.1198                 3.2707                 1.0955
 Frc consts  --      0.0379                 0.0736                 0.0342
 IR Inten    --      0.4025                 2.2101                 0.0158

                     10                     11                     12
                      A                      A                      A
 Frequencies --    288.7098               314.1944               359.9288
 Red. masses --      9.2271                 4.0692                 3.4877
 Frc consts  --      0.4531                 0.2367                 0.2662
 IR Inten    --      0.9788                 2.8363                 0.4730

                     13                     14                     15
                      A                      A                      A
 Frequencies --    372.8103               391.6745               412.8960
 Red. masses --      3.3716                 5.2191                 4.2713
 Frc consts  --      0.2761                 0.4717                 0.4290
 IR Inten    --      8.1820                12.1702                13.0751

                     16                     17                     18
                      A                      A                      A
 Frequencies --    505.5709               521.9968               538.1444
 Red. masses --      2.7470                 3.9388                 6.2210
 Frc consts  --      0.4137                 0.6323                 1.0615
 IR Inten    --      0.2574                 7.3404                21.5831

                     19                     20                     21
                      A                      A                      A
 Frequencies --    558.3645               563.9728               611.6265
 Red. masses --      3.2462                 1.4470                 3.2790
 Frc consts  --      0.5963                 0.2712                 0.7227
 IR Inten    --     22.0522                63.6707                20.6320

                     22                     23                     24
                      A                      A                      A
 Frequencies --    642.7723               695.9599               711.4879
 Red. masses --      3.4086                 1.5259                 2.7729
 Frc consts  --      0.8297                 0.4355                 0.8270
 IR Inten    --     51.3021                76.4271                29.0352

                     25                     26                     27
                      A                      A                      A
 Frequencies --    720.9480               730.1742               777.4679
 Red. masses --      3.1771                 3.6642                 1.3474
 Frc consts  --      0.9730                 1.1510                 0.4798
 IR Inten    --     28.5899               120.3184                 3.5758

                     28                     29                     30
                      A                      A                      A
 Frequencies --    781.3239               843.8936               848.8341
 Red. masses --      5.4897                 2.0864                 4.2661
 Frc consts  --      1.9745                 0.8754                 1.8110
 IR Inten    --      6.5042                 9.7117                 7.6845

                     31                     32                     33
                      A                      A                      A
 Frequencies --    896.2062               919.2882               942.7629
 Red. masses --      1.8969                 1.7744                 2.1231
 Frc consts  --      0.8977                 0.8835                 1.1118
 IR Inten    --      0.6052                 0.3754                 5.2550

                     34                     35                     36
                      A                      A                      A
 Frequencies --    996.1079              1011.1586              1027.1339
 Red. masses --      1.4619                 3.3488                 1.5672
 Frc consts  --      0.8546                 2.0173                 0.9742
 IR Inten    --      8.2197                50.5221                 2.7249

                     37                     38                     39
                      A                      A                      A
 Frequencies --   1033.5573              1087.3660              1125.1442
 Red. masses --      2.6680                 1.9433                 3.2531
 Frc consts  --      1.6792                 1.3538                 2.4264
 IR Inten    --      6.5506                 3.3632                13.9840

                     40                     41                     42
                      A                      A                      A
 Frequencies --   1141.0007              1164.6167              1180.2083
 Red. masses --      2.7375                 2.6732                 2.0508
 Frc consts  --      2.0998                 2.1362                 1.6830
 IR Inten    --      7.7285                21.7376                 0.3730

                     43                     44                     45
                      A                      A                      A
 Frequencies --   1221.6868              1240.5538              1267.9178
 Red. masses --      1.4188                 1.9792                 2.7221
 Frc consts  --      1.2476                 1.7946                 2.5783
 IR Inten    --      6.1828                 3.3674               111.4109

                     46                     47                     48
                      A                      A                      A
 Frequencies --   1287.5572              1299.9749              1326.4481
 Red. masses --      1.2853                 1.3406                 1.3219
 Frc consts  --      1.2554                 1.3348                 1.3703
 IR Inten    --     20.6342                 1.1546                26.2472

                     49                     50                     51
                      A                      A                      A
 Frequencies --   1341.0379              1346.2492              1355.3237
 Red. masses --      1.3609                 1.3654                 5.6160
 Frc consts  --      1.4420                 1.4580                 6.0780
 IR Inten    --      0.8092                 8.7792               238.2134

                     52                     53                     54
                      A                      A                      A
 Frequencies --   1368.8549              1398.8064              1410.4899
 Red. masses --      1.3155                 1.3647                 1.6175
 Frc consts  --      1.4523                 1.5733                 1.8960
 IR Inten    --      5.9968                 4.8336                 4.9561

                     55                     56                     57
                      A                      A                      A
 Frequencies --   1413.9002              1439.8232              1449.4972
 Red. masses --      1.6907                 1.2696                 1.9267
 Frc consts  --      1.9914                 1.5508                 2.3850
 IR Inten    --     28.4958                 3.2111                21.9428

                     58                     59                     60
                      A                      A                      A
 Frequencies --   1499.5662              1513.7622              1517.2459
 Red. masses --      1.7127                 2.5498                 1.0849
 Frc consts  --      2.2691                 3.4425                 1.4715
 IR Inten    --      8.8439                67.2740                 1.7891

                     61                     62                     63
                      A                      A                      A
 Frequencies --   1523.0605              1527.4778              1530.2857
 Red. masses --      1.0778                 1.0624                 1.0530
 Frc consts  --      1.4730                 1.4605                 1.4529
 IR Inten    --      1.5780                 7.8374                 7.8878

                     64                     65                     66
                      A                      A                      A
 Frequencies --   1546.0482              1661.2621              1796.3658
 Red. masses --      1.1054                 5.7329                 9.4828
 Frc consts  --      1.5568                 9.3219                18.0292
 IR Inten    --      2.9196               198.4817               399.3324

                     67                     68                     69
                      A                      A                      A
 Frequencies --   1842.3114              2978.6394              3044.6772
 Red. masses --      8.3977                 1.0822                 1.0436
 Frc consts  --     16.7934                 5.6572                 5.6997
 IR Inten    --    688.5191                28.3364                 9.0209

                     70                     71                     72
                      A                      A                      A
 Frequencies --   3048.5236              3049.6183              3073.9157
 Red. masses --      1.0633                 1.0617                 1.0636
 Frc consts  --      5.8223                 5.8174                 5.9213
 IR Inten    --     64.9894                 7.0220                39.2546

                     73                     74                     75
                      A                      A                      A
 Frequencies --   3095.3313              3104.9575              3111.2255
 Red. masses --      1.0981                 1.0986                 1.1015
 Frc consts  --      6.1988                 6.2402                 6.2823
 IR Inten    --     25.2894                10.0259                26.9042

                     76                     77                     78
                      A                      A                      A
 Frequencies --   3119.3531              3120.1090              3139.1128
 Red. masses --      1.1032                 1.1023                 1.0872
 Frc consts  --      6.3248                 6.3225                 6.3119
 IR Inten    --     59.6569                28.4805                17.6811

                     79                     80                     81
                      A                      A                      A
 Frequencies --   3529.7790              3602.2801              3652.3043
 Red. masses --      1.0738                 1.0775                 1.0791
 Frc consts  --      7.8829                 8.2379                 8.4811
 IR Inten    --     14.3255                67.6121                82.5604

 - Thermochemistry -
 -------------------
 Temperature   298.150 Kelvin.  Pressure   1.00000 Atm.
 Atom     1 has atomic number  6 and mass  12.00000

 Molecular mass:   210.11168 amu.
 Principal axes and moments of inertia in atomic units:
                           1         2         3
     Eigenvalues --  1220.357076124.531436273.50301
           X            1.00000  -0.00051  -0.00124
           Y            0.00072   0.98486   0.17333
           Z            0.00113  -0.17333   0.98486
 This molecule is an asymmetric top.
 Rotational symmetry number  1.
 Warning -- assumption of classical behavior for rotation
           may cause significant error
 Rotational temperatures (Kelvin)      0.07097     0.01414     0.01381
 Rotational constants (GHZ):           1.47886     0.29467     0.28768
 Zero-point vibrational energy     637046.4 (Joules/Mol)
                                  152.25774 (Kcal/Mol)
 Warning -- explicit consideration of  21 degrees of freedom as
           vibrations may cause significant error
 Vibrational temperatures:     30.64    48.50    58.49   116.80   153.06
          (Kelvin)            202.63   206.64   281.17   331.07   415.39
                              452.06   517.86   536.39   563.53   594.07
                              727.40   751.04   774.27   803.36   811.43
                              879.99   924.81  1001.33  1023.67  1037.28
                             1050.56  1118.60  1124.15  1214.17  1221.28
                             1289.44  1322.65  1356.43  1433.18  1454.83
                             1477.82  1487.06  1564.48  1618.83  1641.65
                             1675.62  1698.06  1757.73  1784.88  1824.25
                             1852.51  1870.37  1908.46  1929.45  1936.95
                             1950.01  1969.48  2012.57  2029.38  2034.29
                             2071.58  2085.50  2157.54  2177.97  2182.98
                             2191.34  2197.70  2201.74  2224.42  2390.19
                             2584.57  2650.68  4285.60  4380.61  4386.15
                             4387.72  4422.68  4453.49  4467.34  4476.36
                             4488.05  4489.14  4516.48  5078.56  5182.88
                             5254.85

 Zero-point correction=                           0.242638 (Hartree/Particle)
 Thermal correction to Energy=                    0.256711
 Thermal correction to Enthalpy=                  0.257655
 Thermal correction to Gibbs Free Energy=         0.199558
 Sum of electronic and zero-point Energies=           -720.667013
 Sum of electronic and thermal Energies=              -720.652940
 Sum of electronic and thermal Enthalpies=            -720.651996
 Sum of electronic and thermal Free Energies=         -720.710093

                     E (Thermal)             CV                S
                      KCal/Mol        Cal/Mol-Kelvin    Cal/Mol-Kelvin
 Total                  161.089             52.793            122.276
 Electronic               0.000              0.000              0.000
 Translational            0.889              2.981             41.931
 Rotational               0.889              2.981             32.217
 Vibrational            159.311             46.832             48.129
 Vibration     1          0.593              1.985              6.509
 Vibration     2          0.594              1.983              5.598
 Vibration     3          0.594              1.981              5.227
 Vibration     4          0.600              1.962              3.862
 Vibration     5          0.605              1.944              3.334
 Vibration     6          0.615              1.912              2.793
 Vibration     7          0.616              1.910              2.755
 Vibration     8          0.636              1.846              2.176
 Vibration     9          0.652              1.795              1.878
 Vibration    10          0.685              1.695              1.482
 Vibration    11          0.702              1.647              1.340
 Vibration    12          0.734              1.555              1.122
 Vibration    13          0.744              1.528              1.068
 Vibration    14          0.759              1.488              0.994
 Vibration    15          0.777              1.442              0.916
 Vibration    16          0.861              1.238              0.644
 Vibration    17          0.877              1.201              0.605
 Vibration    18          0.893              1.166              0.569
 Vibration    19          0.914              1.121              0.527
 Vibration    20          0.920              1.109              0.516
 Vibration    21          0.971              1.007              0.430

 Optimization completed.
    -- Stationary point found.
 Normal termination of Gaussian 16 at Thu Dec 10 18:21:27 2020.

 ----------------------------------------------------------------------
 # B3LYP/6-311++G(d,p) empiricaldispersion=gd3bj scf=xqc pop=npa geom=c
 heck
 ----------------------------------------------------------------------

 --------------------------------------
 CID_63281443_JID_5910_Energie_neutraal
 --------------------------------------
 Structure from the checkpoint file:  "JID_5910.chk"
 Charge =  0 Multiplicity = 1

 SCF Done:  E(RB3LYP) =  -721.120665830     A.U. after   15 cycles
 Normal termination of Gaussian 16 at Thu Dec 10 18:24:36 2020.

 ----------------------------------------------------------------------
 # B3LYP/6-311++G(d,p) empiricaldispersion=gd3bj scf=xqc pop=npa geom=c
 heck
 ----------------------------------------------------------------------

 ------------------------------------
 CID_63281443_JID_5910_Energie_kation
 ------------------------------------
 Structure from the checkpoint file:  "JID_5910.chk"
 Charge =  1 Multiplicity = 2

 SCF Done:  E(UB3LYP) =  -720.821502502     A.U. after   23 cycles
 Normal termination of Gaussian 16 at Thu Dec 10 18:31:15 2020.
 Gaussian 16:  ES64L-G16RevA.03 25-Dec-2016

 ----------------------------------------------------------------------
 # B3LYP/6-311++G(d,p) empiricaldispersion=gd3bj scf=xqc pop=npa geom=c
 heck
 ----------------------------------------------------------------------

 -----------------------------------
 CID_63281443_JID_5910_Energie_anion
 -----------------------------------
 Structure from the checkpoint file:  "JID_5910.chk"
 Charge = -1 Multiplicity = 2

                         Standard orientation:
 ---------------------------------------------------------------------
 Center     Atomic      Atomic             Coordinates (Angstroms)
 Number     Number       Type             X           Y           Z
 ---------------------------------------------------------------------
      1          6           0       -3.172518    1.703153    1.132829
      2          6           0       -2.933722    0.725091   -0.012731
      3          6           0       -3.933360   -0.440581   -0.092616
      4          6           0       -3.237930   -1.530727   -0.952957
      5          6           0       -1.733327   -1.149633   -0.980258
      6          6           0       -1.589686   -0.014554    0.054494
      7          7           0       -0.468869    0.904333   -0.168861
      8          6           0        0.851718    0.516061   -0.173680
      9          7           0        1.653734    1.085519   -1.025277
     10          7           0        2.989822    0.813096   -0.935160
     11          6           0        3.608263   -0.074361   -0.091315
     12          8           0        4.803902   -0.305832   -0.081046
     13          7           0        2.694616   -0.689239    0.769982
     14          6           0        1.329244   -0.468213    0.845094
     15          8           0        0.630454   -1.043451    1.663338
     16          1           0       -4.141089    2.205709    1.032231
     17          1           0       -3.163879    1.176262    2.094824
     18          1           0       -2.391071    2.469848    1.166008
     19          1           0       -2.964193    1.274607   -0.969398
     20          1           0       -4.116039   -0.817977    0.921781
     21          1           0       -4.902457   -0.131525   -0.496902
     22          1           0       -3.647698   -1.553483   -1.967682
     23          1           0       -3.396540   -2.526449   -0.528282
     24          1           0       -1.446542   -0.770016   -1.969050
     25          1           0       -1.070996   -1.989875   -0.750569
     26          1           0       -1.468905   -0.440117    1.051717
     27          1           0       -0.639091    1.561191   -0.926226
     28          1           0        3.570123    1.288877   -1.610576
     29          1           0        3.086312   -1.346176    1.435840
 ---------------------------------------------------------------------

 SCF Done:  E(UB3LYP) =  -721.127736383     A.U. after   33 cycles
 SCF Done:  E(UB3LYP) =  -721.127736383     a.u. after    1 cycles

 The electronic state is 2-A.
 Alpha  occ. eigenvalues --  -18.96634 -18.93739 -14.23948 -14.21313 -14.18512
 Alpha  occ. eigenvalues --  -14.17518 -10.17612 -10.11350 -10.08244 -10.07689
 Alpha  occ. eigenvalues --  -10.06627 -10.06517 -10.06337 -10.05332 -10.05020
 Alpha  occ. eigenvalues --   -0.94125  -0.89605  -0.87002  -0.80503  -0.78318
 Alpha  occ. eigenvalues --   -0.73062  -0.68009  -0.64126  -0.59015  -0.55388
 Alpha  occ. eigenvalues --   -0.53813  -0.52219  -0.47184  -0.46532  -0.43988
 Alpha  occ. eigenvalues --   -0.42884  -0.37822  -0.36349  -0.35644  -0.34168
 Alpha  occ. eigenvalues --   -0.33534  -0.32998  -0.31653  -0.30522  -0.29899
 Alpha  occ. eigenvalues --   -0.28587  -0.27567  -0.26682  -0.26237  -0.24914
 Alpha  occ. eigenvalues --   -0.23504  -0.23178  -0.22158  -0.21730  -0.21003
 Alpha  occ. eigenvalues --   -0.19061  -0.16168  -0.14928  -0.14158  -0.11329
 Alpha  occ. eigenvalues --   -0.07731   0.04885
 Alpha virt. eigenvalues --    0.06548   0.08176   0.09032   0.09587   0.10262
 Alpha virt. eigenvalues --    0.11146   0.11335   0.11678   0.11945   0.13060
 Alpha virt. eigenvalues --    0.13634   0.14930   0.15115   0.15269   0.15536

  Beta  occ. eigenvalues --  -18.96651 -18.93382 -14.23875 -14.21173 -14.18500
  Beta  occ. eigenvalues --  -14.16898 -10.17631 -10.11008 -10.08103 -10.07685
  Beta  occ. eigenvalues --  -10.06626 -10.06516 -10.06325 -10.05315 -10.05017
  Beta  occ. eigenvalues --   -0.93987  -0.89046  -0.86488  -0.80392  -0.77940
  Beta  occ. eigenvalues --   -0.72975  -0.67571  -0.64108  -0.58914  -0.55249
  Beta  occ. eigenvalues --   -0.53332  -0.51789  -0.47125  -0.46478  -0.43832
  Beta  occ. eigenvalues --   -0.42653  -0.37754  -0.36270  -0.35573  -0.33413
  Beta  occ. eigenvalues --   -0.33282  -0.32963  -0.31574  -0.30468  -0.29784
  Beta  occ. eigenvalues --   -0.28165  -0.27399  -0.26370  -0.25369  -0.23651
  Beta  occ. eigenvalues --   -0.23451  -0.22903  -0.21916  -0.21674  -0.20924
  Beta  occ. eigenvalues --   -0.18687  -0.15842  -0.13848  -0.13534  -0.10850
  Beta  occ. eigenvalues --   -0.06205
  Beta virt. eigenvalues --    0.06963   0.08254   0.08923   0.09683   0.10335
  Beta virt. eigenvalues --    0.11115   0.11264   0.11624   0.11776   0.12320
  Beta virt. eigenvalues --    0.13125   0.13647   0.14960   0.15141   0.15350

 Mulliken charges and spin densities:
               1          2
     1  C   -0.177600  -0.377732
     2  C   -0.585471   0.830571
     3  C    0.018510  -0.547714
     4  C   -0.396629  -0.008100
     5  C   -0.190908  -0.058183
     6  C   -0.051804  -0.502345
     7  N    0.163091   0.003439
     8  C   -0.293688   0.014383
     9  N   -0.115095   0.301825
    10  N   -0.366056   0.019543
    11  C    0.378689  -0.002199
    12  O   -0.433190  -0.004619
    13  N   -0.388892   0.040280
    14  C    0.281621   0.237409
    15  O   -0.426894   0.132271
    16  H   -0.227471   0.368167
    17  H    0.067956   0.060900
    18  H    0.073509   0.071062
    19  H    0.083118   0.045410
    20  H    0.137316  -0.008267
    21  H   -0.206572   0.354487
    22  H    0.076036   0.052732
    23  H    0.130092  -0.001481
    24  H    0.167380  -0.014376
    25  H    0.170458  -0.005522
    26  H    0.258773  -0.006095
    27  H    0.223995   0.011236
    28  H    0.310663  -0.001928
    29  H    0.319063  -0.005153
 Sum of Mulliken charges =  -1.00000   1.00000

 Dipole moment (field-independent basis, Debye):
    X=             -2.7179    Y=             -0.6699    Z=             -2.0442  Tot=              3.4662
 Quadrupole moment (field-independent basis, Debye-Ang):
   XX=           -162.4750   YY=           -105.5029   ZZ=           -104.2506
   XY=              8.2017   XZ=              0.5518   YZ=              0.2993

 Summary of Natural Population Analysis:

                                       Natural Population
                Natural  -----------------------------------------------
    Atom  No    Charge         Core      Valence    Rydberg      Total
 -----------------------------------------------------------------------
      C    1   -0.28474      0.99965     2.27884    0.00625     3.28474
      C    2   -0.11137      0.99958     2.10147    0.01032     3.11137
      C    3   -0.18925      0.99962     2.18086    0.00877     3.18925
      C    4   -0.19432      0.99965     2.18639    0.00828     3.19432
      C    5   -0.19585      0.99962     2.19004    0.00619     3.19585
      C    6   -0.01331      0.99954     1.99924    0.01454     3.01331
      N    7   -0.31651      0.99967     2.80412    0.01272     3.81651
      C    8    0.17621      0.99956     1.80884    0.01538     2.82379
      N    9   -0.09157      0.99964     2.57666    0.01527     3.59157
      N   10   -0.20898      0.99967     2.69834    0.01096     3.70898
      C   11    0.38673      0.99971     1.59026    0.02330     2.61327
      O   12   -0.35262      0.99987     3.34668    0.00606     4.35262
      N   13   -0.30439      0.99965     2.79703    0.00771     3.80439
      C   14    0.35681      0.99966     1.62103    0.02251     2.64319
      O   15   -0.29612      0.99988     3.29013    0.00612     4.29612
      H   16    0.09525      0.00000     0.40380    0.00095     0.40475
      H   17    0.09697      0.00000     0.40219    0.00084     0.40303
      H   18    0.10587      0.00000     0.39304    0.00109     0.39413
      H   19    0.08678      0.00000     0.41118    0.00204     0.41322
      H   20    0.09361      0.00000     0.40537    0.00102     0.40639
      H   21    0.09762      0.00000     0.40126    0.00113     0.40238
      H   22    0.09337      0.00000     0.40571    0.00092     0.40663
      H   23    0.09500      0.00000     0.40414    0.00086     0.40500
      H   24    0.09405      0.00000     0.40480    0.00114     0.40595
      H   25    0.10569      0.00000     0.39339    0.00092     0.39431
      H   26    0.11330      0.00000     0.38426    0.00244     0.38670
      H   27    0.17722      0.00000     0.31842    0.00436     0.32278
      H   28    0.18978      0.00000     0.30838    0.00184     0.31022
      H   29    0.19478      0.00000     0.30214    0.00308     0.30522
 =======================================================================
   * Total *   -0.00000     14.99498    40.80802    0.19700    56.00000

 Normal termination of Gaussian 16 at Thu Dec 10 18:40:47 2020.
