 Gaussian 16, Revision A.03,

 -----------------------------------------------------------
 # opt freq B3LYP/6-31G(d) empiricaldispersion=gd3bj scf=xqc
 -----------------------------------------------------------

 -------------------------------
 CID_115825799_JID_6813_neutraal
 -------------------------------
 Symbolic Z-matrix:
 Charge =  0 Multiplicity = 1

 SCF Done:  E(RB3LYP) =  -750.421712793     A.U. after   14 cycles
 SCF Done:  E(RB3LYP) =  -750.425524247     A.U. after   11 cycles
 SCF Done:  E(RB3LYP) =  -750.425617460     A.U. after   12 cycles
 SCF Done:  E(RB3LYP) =  -750.426026827     A.U. after   12 cycles
 SCF Done:  E(RB3LYP) =  -750.426353433     A.U. after   11 cycles
 SCF Done:  E(RB3LYP) =  -750.426427275     A.U. after   10 cycles
 SCF Done:  E(RB3LYP) =  -750.426443533     A.U. after    9 cycles
 SCF Done:  E(RB3LYP) =  -750.426450528     A.U. after   10 cycles
 SCF Done:  E(RB3LYP) =  -750.426452628     A.U. after    8 cycles
 SCF Done:  E(RB3LYP) =  -750.426455735     A.U. after   10 cycles
 SCF Done:  E(RB3LYP) =  -750.426458894     A.U. after   10 cycles
 SCF Done:  E(RB3LYP) =  -750.426462027     A.U. after   11 cycles
 SCF Done:  E(RB3LYP) =  -750.426462544     A.U. after    9 cycles
 SCF Done:  E(RB3LYP) =  -750.426462587     A.U. after    6 cycles
 Optimization completed.
    -- Stationary point found.
 Normal termination of Gaussian 16 at Thu Dec 10 23:37:49 2020.

 --------------------------------------------------------------------
 #N Geom=AllCheck Guess=TCheck SCRF=Check GenChk RB3LYP/6-31G(d) Freq
 --------------------------------------------------------------------

 Structure from the checkpoint file:  "JID_6813.chk"
 -------------------------------
 CID_115825799_JID_6813_neutraal
 -------------------------------
 Charge =  0 Multiplicity = 1

 SCF Done:  E(RB3LYP) =  -750.426462587     A.U. after    1 cycles

  Exact polarizability: 161.419   1.334 129.039  -2.228  -3.866 116.966
 Approx polarizability: 206.433  -3.823 179.474  -3.451  -8.024 184.762

                      1                      2                      3
                      A                      A                      A
 Frequencies --     18.4149                43.6695                56.3669
 Red. masses --     10.1674                 3.2498                 3.7753
 Frc consts  --      0.0020                 0.0037                 0.0071
 IR Inten    --      2.0324                 0.0891                 0.0395

                      4                      5                      6
                      A                      A                      A
 Frequencies --     87.2102               145.9971               160.9197
 Red. masses --      2.6768                 3.4190                 3.0879
 Frc consts  --      0.0120                 0.0429                 0.0471
 IR Inten    --      0.3163                 1.1306                 0.0020

                      7                      8                      9
                      A                      A                      A
 Frequencies --    170.2951               223.8606               226.7307
 Red. masses --      2.6134                 1.9373                 1.8088
 Frc consts  --      0.0447                 0.0572                 0.0548
 IR Inten    --      0.3015                 0.2103                 0.2801

                     10                     11                     12
                      A                      A                      A
 Frequencies --    244.5504               267.4753               278.3763
 Red. masses --      1.4339                 2.4323                 2.6368
 Frc consts  --      0.0505                 0.1025                 0.1204
 IR Inten    --      0.2579                 0.7330                 3.1316

                     13                     14                     15
                      A                      A                      A
 Frequencies --    306.6230               345.3960               359.4993
 Red. masses --      2.6262                 3.9491                 2.5996
 Frc consts  --      0.1455                 0.2776                 0.1980
 IR Inten    --      3.4147                 0.2019                 1.2467

                     16                     17                     18
                      A                      A                      A
 Frequencies --    380.9195               392.0828               424.4249
 Red. masses --      2.6026                 2.4110                 3.1816
 Frc consts  --      0.2225                 0.2184                 0.3377
 IR Inten    --      1.1061                 5.0705                 0.1804

                     19                     20                     21
                      A                      A                      A
 Frequencies --    430.7151               475.3168               496.8299
 Red. masses --      2.9581                 3.5373                 3.2828
 Frc consts  --      0.3233                 0.4709                 0.4774
 IR Inten    --      0.1027                 4.5042                 2.8416

                     22                     23                     24
                      A                      A                      A
 Frequencies --    535.0343               544.0703               580.6948
 Red. masses --      2.9630                 4.5035                 2.5881
 Frc consts  --      0.4997                 0.7854                 0.5142
 IR Inten    --      4.0660                17.8895                30.9208

                     25                     26                     27
                      A                      A                      A
 Frequencies --    637.3404               668.0994               721.2949
 Red. masses --      1.6118                 2.0521                 3.1668
 Frc consts  --      0.3857                 0.5397                 0.9707
 IR Inten    --     38.0180                 7.3586                71.0524

                     28                     29                     30
                      A                      A                      A
 Frequencies --    752.0187               766.8863               791.7013
 Red. masses --      2.7085                 1.8907                 1.9734
 Frc consts  --      0.9025                 0.6552                 0.7288
 IR Inten    --    100.9489                10.6159                 9.7619

                     31                     32                     33
                      A                      A                      A
 Frequencies --    823.1207               836.3352               869.5165
 Red. masses --      1.8080                 1.7040                 3.9666
 Frc consts  --      0.7217                 0.7022                 1.7670
 IR Inten    --      8.7403                 0.1144                 2.3489

                     34                     35                     36
                      A                      A                      A
 Frequencies --    887.5116               899.7045               923.8650
 Red. masses --      2.1765                 2.0368                 2.2360
 Frc consts  --      1.0101                 0.9714                 1.1245
 IR Inten    --     10.6254                 5.0746                 1.2278

                     37                     38                     39
                      A                      A                      A
 Frequencies --    956.5005               965.5884               982.6524
 Red. masses --      1.8241                 1.9435                 1.7533
 Frc consts  --      0.9833                 1.0676                 0.9975
 IR Inten    --     10.4095                 4.9486                 4.2848

                     40                     41                     42
                      A                      A                      A
 Frequencies --   1035.8249              1047.9118              1056.2393
 Red. masses --      1.6059                 1.9829                 2.6558
 Frc consts  --      1.0152                 1.2829                 1.7457
 IR Inten    --      3.9530                 4.8112                 7.2465

                     43                     44                     45
                      A                      A                      A
 Frequencies --   1067.7542              1073.3548              1087.7427
 Red. masses --      1.7873                 2.0415                 1.4526
 Frc consts  --      1.2006                 1.3858                 1.0126
 IR Inten    --      1.5789                 3.0972                 2.9888

                     46                     47                     48
                      A                      A                      A
 Frequencies --   1107.0342              1122.5840              1141.7168
 Red. masses --      2.0075                 3.5502                 3.0831
 Frc consts  --      1.4496                 2.6360                 2.3679
 IR Inten    --      3.0751                67.7401                96.5344

                     49                     50                     51
                      A                      A                      A
 Frequencies --   1164.1807              1172.3633              1179.8082
 Red. masses --      2.0971                 2.4061                 3.0637
 Frc consts  --      1.6746                 1.9485                 2.5126
 IR Inten    --     16.4334                48.5192                17.9872

                     52                     53                     54
                      A                      A                      A
 Frequencies --   1193.2028              1207.4295              1218.8791
 Red. masses --      2.0881                 1.9540                 2.0396
 Frc consts  --      1.7516                 1.6784                 1.7853
 IR Inten    --      8.1893               106.0343                95.0778

                     55                     56                     57
                      A                      A                      A
 Frequencies --   1246.4492              1274.6777              1302.7548
 Red. masses --      1.5187                 1.3337                 1.3368
 Frc consts  --      1.3902                 1.2767                 1.3367
 IR Inten    --      3.5326                 7.5523                 2.5244

                     58                     59                     60
                      A                      A                      A
 Frequencies --   1309.2221              1316.0044              1335.0756
 Red. masses --      1.3648                 1.3267                 1.3108
 Frc consts  --      1.3783                 1.3538                 1.3766
 IR Inten    --      5.9342                 1.4235                 2.4598

                     61                     62                     63
                      A                      A                      A
 Frequencies --   1337.6316              1354.6162              1364.4070
 Red. masses --      1.2598                 1.2949                 1.2637
 Frc consts  --      1.3280                 1.3999                 1.3860
 IR Inten    --     17.9136                10.9771                 2.4248

                     64                     65                     66
                      A                      A                      A
 Frequencies --   1378.9891              1382.5513              1391.7592
 Red. masses --      1.5916                 1.3849                 1.3769
 Frc consts  --      1.7832                 1.5597                 1.5714
 IR Inten    --     18.6522                 7.9647                10.5749

                     67                     68                     69
                      A                      A                      A
 Frequencies --   1397.0435              1401.3343              1418.7198
 Red. masses --      1.5389                 1.3966                 1.6789
 Frc consts  --      1.7696                 1.6159                 1.9909
 IR Inten    --      5.2166                19.2632                10.1084

                     70                     71                     72
                      A                      A                      A
 Frequencies --   1424.3045              1435.0028              1441.2753
 Red. masses --      1.4513                 1.4112                 1.3389
 Frc consts  --      1.7347                 1.7122                 1.6387
 IR Inten    --      5.9147                22.1170                 2.3012

                     73                     74                     75
                      A                      A                      A
 Frequencies --   1444.0021              1449.3854              1506.8732
 Red. masses --      1.3088                 1.4167                 1.0462
 Frc consts  --      1.6079                 1.7535                 1.3997
 IR Inten    --      4.9634                 3.0513                 4.8906

                     76                     77                     78
                      A                      A                      A
 Frequencies --   1513.0028              1516.5246              1523.8673
 Red. masses --      1.1820                 1.1173                 1.0796
 Frc consts  --      1.5943                 1.5140                 1.4772
 IR Inten    --      0.4899                 1.5941                 7.5793

                     79                     80                     81
                      A                      A                      A
 Frequencies --   1525.4742              1532.3468              1533.2592
 Red. masses --      1.0775                 1.0584                 1.0913
 Frc consts  --      1.4773                 1.4643                 1.5116
 IR Inten    --      3.1683                 1.6591                 6.5220

                     82                     83                     84
                      A                      A                      A
 Frequencies --   1534.8554              1546.4440              1834.6956
 Red. masses --      1.0755                 1.0677                 9.3466
 Frc consts  --      1.4928                 1.5044                18.5366
 IR Inten    --      7.1352                 1.4322               287.8432

                     85                     86                     87
                      A                      A                      A
 Frequencies --   2923.5093              2949.3747              3008.5747
 Red. masses --      1.0816                 1.0827                 1.0738
 Frc consts  --      5.4464                 5.5493                 5.7267
 IR Inten    --     26.2236                69.0070                24.4777

                     88                     89                     90
                      A                      A                      A
 Frequencies --   3018.9640              3033.8031              3038.2990
 Red. masses --      1.0771                 1.0682                 1.0662
 Frc consts  --      5.7838                 5.7927                 5.7991
 IR Inten    --     21.8117                46.9941                43.7839

                     91                     92                     93
                      A                      A                      A
 Frequencies --   3046.2254              3056.6134              3070.9591
 Red. masses --      1.0384                 1.0656                 1.0352
 Frc consts  --      5.6770                 5.8659                 5.7522
 IR Inten    --     25.2581                 7.3663                14.6570

                     94                     95                     96
                      A                      A                      A
 Frequencies --   3075.3942              3077.3431              3096.2176
 Red. masses --      1.0928                 1.0966                 1.0857
 Frc consts  --      6.0895                 6.1185                 6.1324
 IR Inten    --     28.9666                60.7073                15.8689

                     97                     98                     99
                      A                      A                      A
 Frequencies --   3097.7007              3100.0590              3109.7477
 Red. masses --      1.0954                 1.0970                 1.0973
 Frc consts  --      6.1929                 6.2117                 6.2518
 IR Inten    --     48.8865                 9.1832                25.6069

                    100                    101                    102
                      A                      A                      A
 Frequencies --   3114.1932              3122.4882              3144.4994
 Red. masses --      1.0899                 1.1004                 1.1039
 Frc consts  --      6.2278                 6.3212                 6.4308
 IR Inten    --     53.5804                39.0219                20.1067

                    103                    104                    105
                      A                      A                      A
 Frequencies --   3149.5841              3467.1647              3674.2815
 Red. masses --      1.1023                 1.0738                 1.0639
 Frc consts  --      6.4425                 7.6054                 8.4622
 IR Inten    --     17.7175                 0.6996                44.4074

 - Thermochemistry -
 -------------------
 Temperature   298.150 Kelvin.  Pressure   1.00000 Atm.
 Atom     1 has atomic number  6 and mass  12.00000

 Molecular mass:   227.15214 amu.
 Principal axes and moments of inertia in atomic units:
                           1         2         3
     Eigenvalues --  2001.756445076.736556089.31674
           X            0.99953   0.03054  -0.00390
           Y           -0.03056   0.99952  -0.00585
           Z            0.00371   0.00596   0.99998
 This molecule is an asymmetric top.
 Rotational symmetry number  1.
 Warning -- assumption of classical behavior for rotation
           may cause significant error
 Rotational temperatures (Kelvin)      0.04327     0.01706     0.01422
 Rotational constants (GHZ):           0.90158     0.35549     0.29638
 Zero-point vibrational energy     866701.5 (Joules/Mol)
                                  207.14664 (Kcal/Mol)
 Warning -- explicit consideration of  24 degrees of freedom as
           vibrations may cause significant error
 Vibrational temperatures:     26.49    62.83    81.10   125.48   210.06
          (Kelvin)            231.53   245.02   322.09   326.21   351.85
                              384.84   400.52   441.16   496.95   517.24
                              548.06   564.12   610.65   619.70   683.87
                              714.83   769.79   782.80   835.49   916.99
                              961.25  1037.78  1081.99  1103.38  1139.08
                             1184.29  1203.30  1251.04  1276.93  1294.47
                             1329.24  1376.19  1389.27  1413.82  1490.32
                             1507.71  1519.69  1536.26  1544.32  1565.02
                             1592.78  1615.15  1642.68  1675.00  1686.77
                             1697.48  1716.75  1737.22  1753.70  1793.36
                             1833.98  1874.37  1883.68  1893.44  1920.88
                             1924.55  1948.99  1963.08  1984.06  1989.18
                             2002.43  2010.03  2016.21  2041.22  2049.26
                             2064.65  2073.67  2077.60  2085.34  2168.05
                             2176.87  2181.94  2192.51  2194.82  2204.71
                             2206.02  2208.31  2224.99  2639.72  4206.28
                             4243.49  4328.67  4343.62  4364.97  4371.43
                             4382.84  4397.79  4418.43  4424.81  4427.61
                             4454.77  4456.90  4460.29  4474.23  4480.63
                             4492.56  4524.23  4531.55  4988.48  5286.47

 Zero-point correction=                           0.330109 (Hartree/Particle)
 Thermal correction to Energy=                    0.345663
 Thermal correction to Enthalpy=                  0.346607
 Thermal correction to Gibbs Free Energy=         0.286685
 Sum of electronic and zero-point Energies=           -750.096353
 Sum of electronic and thermal Energies=              -750.080800
 Sum of electronic and thermal Enthalpies=            -750.079856
 Sum of electronic and thermal Free Energies=         -750.139777

                     E (Thermal)             CV                S
                      KCal/Mol        Cal/Mol-Kelvin    Cal/Mol-Kelvin
 Total                  216.907             61.124            126.116
 Electronic               0.000              0.000              0.000
 Translational            0.889              2.981             42.164
 Rotational               0.889              2.981             32.492
 Vibrational            215.129             55.162             51.460
 Vibration     1          0.593              1.986              6.798
 Vibration     2          0.595              1.980              5.085
 Vibration     3          0.596              1.975              4.581
 Vibration     4          0.601              1.958              3.722
 Vibration     5          0.617              1.907              2.724
 Vibration     6          0.622              1.890              2.539
 Vibration     7          0.625              1.879              2.432
 Vibration     8          0.649              1.805              1.928
 Vibration     9          0.650              1.800              1.905
 Vibration    10          0.660              1.772              1.770
 Vibration    11          0.673              1.733              1.612
 Vibration    12          0.679              1.714              1.544
 Vibration    13          0.697              1.661              1.380
 Vibration    14          0.724              1.585              1.187
 Vibration    15          0.734              1.556              1.124
 Vibration    16          0.751              1.511              1.036
 Vibration    17          0.760              1.487              0.992
 Vibration    18          0.786              1.417              0.877
 Vibration    19          0.792              1.403              0.856
 Vibration    20          0.832              1.305              0.723
 Vibration    21          0.852              1.257              0.666
 Vibration    22          0.890              1.173              0.576
 Vibration    23          0.899              1.153              0.557
 Vibration    24          0.937              1.073              0.484

 Optimization completed.
    -- Stationary point found.
 Normal termination of Gaussian 16 at Thu Dec 10 23:51:22 2020.

 ----------------------------------------------------------------------
 # B3LYP/6-311++G(d,p) empiricaldispersion=gd3bj scf=xqc pop=npa geom=c
 heck
 ----------------------------------------------------------------------

 ---------------------------------------
 CID_115825799_JID_6813_Energie_neutraal
 ---------------------------------------
 Structure from the checkpoint file:  "JID_6813.chk"
 Charge =  0 Multiplicity = 1

 SCF Done:  E(RB3LYP) =  -750.650016811     A.U. after   15 cycles
 Normal termination of Gaussian 16 at Thu Dec 10 23:57:26 2020.

 ----------------------------------------------------------------------
 # B3LYP/6-311++G(d,p) empiricaldispersion=gd3bj scf=xqc pop=npa geom=c
 heck
 ----------------------------------------------------------------------

 -------------------------------------
 CID_115825799_JID_6813_Energie_kation
 -------------------------------------
 Structure from the checkpoint file:  "JID_6813.chk"
 Charge =  1 Multiplicity = 2

 SCF Done:  E(UB3LYP) =  -750.353923976     A.U. after   21 cycles
 Normal termination of Gaussian 16 at Fri Dec 11 00:09:10 2020.
 Gaussian 16:  ES64L-G16RevA.03 25-Dec-2016

 ----------------------------------------------------------------------
 # B3LYP/6-311++G(d,p) empiricaldispersion=gd3bj scf=xqc pop=npa geom=c
 heck
 ----------------------------------------------------------------------

 ------------------------------------
 CID_115825799_JID_6813_Energie_anion
 ------------------------------------
 Structure from the checkpoint file:  "JID_6813.chk"
 Charge = -1 Multiplicity = 2

                         Standard orientation:
 ---------------------------------------------------------------------
 Center     Atomic      Atomic             Coordinates (Angstroms)
 Number     Number       Type             X           Y           Z
 ---------------------------------------------------------------------
      1          6           0        3.626088    2.126170   -0.308729
      2          6           0        3.252933    0.719032   -0.782340
      3          6           0        2.950241   -0.274669    0.356676
      4          6           0        2.667805   -1.692174   -0.188709
      5          6           0        1.296886   -1.810426   -0.875915
      6          6           0        0.199636   -1.350290    0.072498
      7          6           0        0.444418    0.081086    0.552084
      8          6           0        1.789137    0.171601    1.270522
      9          7           0       -0.645913    0.579632    1.404538
     10          6           0       -1.986432    0.317903    0.862565
     11          6           0       -2.137130   -1.125467    0.294192
     12          8           0       -1.064276   -1.439260   -0.582542
     13          6           0       -3.435016   -1.395321   -0.449319
     14          6           0       -2.434002    1.365947   -0.147586
     15          8           0       -3.588943    1.710278   -0.282084
     16          8           0       -1.442809    1.862758   -0.920765
     17          1           0        2.780971    2.631705    0.170293
     18          1           0        3.946294    2.749831   -1.150593
     19          1           0        4.449739    2.094254    0.415394
     20          1           0        2.400130    0.785474   -1.468641
     21          1           0        4.082037    0.306461   -1.373246
     22          1           0        3.856290   -0.330049    0.977099
     23          1           0        3.461497   -1.988153   -0.885599
     24          1           0        2.704775   -2.405675    0.646409
     25          1           0        1.258213   -1.193119   -1.781402
     26          1           0        1.106150   -2.843279   -1.188398
     27          1           0        0.182500   -2.014370    0.959342
     28          1           0        0.462859    0.721112   -0.333937
     29          1           0        1.765447   -0.482714    2.155920
     30          1           0        1.937356    1.190738    1.641255
     31          1           0       -0.584048    0.118421    2.312288
     32          1           0       -2.704092    0.417803    1.682215
     33          1           0       -2.074872   -1.789324    1.176168
     34          1           0       -3.486469   -2.453714   -0.720607
     35          1           0       -4.300053   -1.140503    0.169920
     36          1           0       -3.487847   -0.801854   -1.365896
     37          1           0       -1.874656    2.498973   -1.522260
 ---------------------------------------------------------------------

 SCF Done:  E(UB3LYP) =  -750.637802197     A.U. after   33 cycles
 SCF Done:  E(UB3LYP) =  -750.637802197     a.u. after    1 cycles

 The electronic state is 2-A.
 Alpha  occ. eigenvalues --  -19.08167 -19.02885 -19.02359 -14.20727 -10.21256
 Alpha  occ. eigenvalues --  -10.13318 -10.12001 -10.11639 -10.09166 -10.07596
 Alpha  occ. eigenvalues --  -10.06992 -10.06923 -10.06915 -10.06861 -10.06560
 Alpha  occ. eigenvalues --  -10.06441  -1.02227  -0.94828  -0.93041  -0.81715
 Alpha  occ. eigenvalues --   -0.74396  -0.69823  -0.66444  -0.64422  -0.61375
 Alpha  occ. eigenvalues --   -0.60274  -0.54038  -0.53573  -0.52230  -0.50278
 Alpha  occ. eigenvalues --   -0.48061  -0.44815  -0.41161  -0.40487  -0.40288
 Alpha  occ. eigenvalues --   -0.39584  -0.38452  -0.36510  -0.35451  -0.35134
 Alpha  occ. eigenvalues --   -0.33613  -0.33182  -0.32395  -0.31816  -0.31130
 Alpha  occ. eigenvalues --   -0.29443  -0.29345  -0.28675  -0.28357  -0.27719
 Alpha  occ. eigenvalues --   -0.26696  -0.25715  -0.24465  -0.24179  -0.23684
 Alpha  occ. eigenvalues --   -0.23001  -0.21847  -0.21194  -0.21083  -0.19275
 Alpha  occ. eigenvalues --   -0.18521  -0.12453   0.04223
 Alpha virt. eigenvalues --    0.05986   0.06210   0.07429   0.07847   0.08404
 Alpha virt. eigenvalues --    0.08684   0.08893   0.09856   0.10393   0.10623
 Alpha virt. eigenvalues --    0.11285   0.11568   0.11975   0.12452   0.12837

  Beta  occ. eigenvalues --  -19.08147 -19.02876 -19.02340 -14.20706 -10.21228
  Beta  occ. eigenvalues --  -10.13297 -10.11991 -10.11626 -10.09165 -10.07588
  Beta  occ. eigenvalues --  -10.06976 -10.06919 -10.06904 -10.06850 -10.06543
  Beta  occ. eigenvalues --  -10.06419  -1.02182  -0.94811  -0.93003  -0.81677
  Beta  occ. eigenvalues --   -0.74368  -0.69793  -0.66416  -0.64393  -0.61342
  Beta  occ. eigenvalues --   -0.60217  -0.53985  -0.53521  -0.52188  -0.50242
  Beta  occ. eigenvalues --   -0.48003  -0.44770  -0.41114  -0.40448  -0.40238
  Beta  occ. eigenvalues --   -0.39526  -0.38403  -0.36471  -0.35422  -0.35101
  Beta  occ. eigenvalues --   -0.33559  -0.33145  -0.32364  -0.31783  -0.31101
  Beta  occ. eigenvalues --   -0.29409  -0.29319  -0.28644  -0.28333  -0.27686
  Beta  occ. eigenvalues --   -0.26657  -0.25687  -0.24429  -0.24146  -0.23624
  Beta  occ. eigenvalues --   -0.22964  -0.21822  -0.21155  -0.21054  -0.19234
  Beta  occ. eigenvalues --   -0.18482  -0.12423
  Beta virt. eigenvalues --    0.06274   0.06896   0.07089   0.07776   0.08336
  Beta virt. eigenvalues --    0.08575   0.09213   0.09389   0.10168   0.10577
  Beta virt. eigenvalues --    0.11083   0.11520   0.11787   0.12189   0.12760

 Mulliken charges and spin densities:
               1          2
     1  C    0.521534  -1.179565
     2  C   -0.545408   0.274735
     3  C    0.499568  -0.083593
     4  C    0.438008  -1.039265
     5  C   -0.769666   0.607830
     6  C   -0.610244   0.170262
     7  C   -0.336342  -0.575734
     8  C   -0.230501  -0.454675
     9  N    0.184983  -0.027562
    10  C    0.120602   0.148266
    11  C    0.724128  -0.673140
    12  O    0.022261   0.014783
    13  C    0.523041  -1.150468
    14  C   -0.230454   0.016712
    15  O   -0.279793   0.014709
    16  O   -0.139490  -0.007950
    17  H   -0.042875   0.188736
    18  H   -0.068661   0.197826
    19  H   -0.126740   0.264413
    20  H   -0.020209   0.116509
    21  H   -0.225688   0.385073
    22  H   -0.256859   0.481456
    23  H   -0.095684   0.262713
    24  H   -0.158280   0.305809
    25  H    0.129547   0.046822
    26  H   -0.039200   0.232717
    27  H    0.043338   0.146558
    28  H    0.800511  -0.378114
    29  H   -0.335531   0.490225
    30  H    0.166222   0.024935
    31  H    0.082076   0.189294
    32  H   -0.426490   0.708007
    33  H   -0.597130   0.767853
    34  H    0.027614   0.120648
    35  H    0.078180   0.081399
    36  H    0.138135   0.047331
    37  H    0.035496   0.264448
 Sum of Mulliken charges =  -1.00000   1.00000

 Dipole moment (field-independent basis, Debye):
    X=             -1.3190    Y=              0.8407    Z=             -3.7115  Tot=              4.0276
 Quadrupole moment (field-independent basis, Debye-Ang):
   XX=           -178.0120   YY=           -142.7514   ZZ=           -137.3052
   XY=              1.2837   XZ=              4.5568   YZ=              4.4175

 Summary of Natural Population Analysis:

                                       Natural Population
                Natural  -----------------------------------------------
    Atom  No    Charge         Core      Valence    Rydberg      Total
 -----------------------------------------------------------------------
      C    1   -0.28417      0.99966     2.28025    0.00425     3.28417
      C    2   -0.19103      0.99962     2.18261    0.00880     3.19103
      C    3   -0.10744      0.99959     2.09597    0.01188     3.10744
      C    4   -0.18628      0.99961     2.17728    0.00940     3.18628
      C    5   -0.19579      0.99960     2.18666    0.00954     3.19579
      C    6    0.06161      0.99948     1.92375    0.01516     2.93839
      C    7   -0.02906      0.99953     2.01693    0.01260     3.02906
      C    8   -0.19235      0.99959     2.18176    0.01099     3.19235
      N    9   -0.33451      0.99973     2.82172    0.01306     3.83451
      C   10   -0.06426      0.99951     2.04990    0.01485     3.06426
      C   11    0.06309      0.99955     1.92184    0.01552     2.93691
      O   12   -0.30531      0.99987     3.29561    0.00983     4.30531
      C   13   -0.29233      0.99964     2.28615    0.00655     3.29233
      C   14    0.41415      0.99968     1.56062    0.02555     2.58585
      O   15   -0.31114      0.99987     3.30533    0.00594     4.31114
      O   16   -0.34026      0.99987     3.33370    0.00668     4.34026
      H   17    0.09787      0.00000     0.40100    0.00113     0.40213
      H   18    0.09748      0.00000     0.40166    0.00086     0.40252
      H   19    0.09588      0.00000     0.40290    0.00121     0.40412
      H   20    0.09398      0.00000     0.40458    0.00144     0.40602
      H   21    0.09574      0.00000     0.40311    0.00115     0.40426
      H   22    0.09853      0.00000     0.39958    0.00189     0.40147
      H   23    0.09946      0.00000     0.39948    0.00106     0.40054
      H   24    0.09862      0.00000     0.40013    0.00125     0.40138
      H   25    0.09795      0.00000     0.40043    0.00162     0.40205
      H   26    0.10248      0.00000     0.39640    0.00112     0.39752
      H   27    0.07970      0.00000     0.41782    0.00248     0.42030
      H   28    0.10379      0.00000     0.39300    0.00321     0.39621
      H   29    0.09914      0.00000     0.39926    0.00159     0.40086
      H   30    0.10580      0.00000     0.39288    0.00131     0.39420
      H   31    0.17772      0.00000     0.31886    0.00341     0.32228
      H   32    0.11577      0.00000     0.38254    0.00169     0.38423
      H   33    0.08542      0.00000     0.41158    0.00300     0.41458
      H   34    0.10283      0.00000     0.39617    0.00099     0.39717
      H   35    0.10542      0.00000     0.39388    0.00070     0.39458
      H   36    0.10267      0.00000     0.39642    0.00091     0.39733
      H   37    0.23882      0.00000     0.25714    0.00405     0.26118
 =======================================================================
   * Total *    0.00000     15.99439    45.78892    0.21669    62.00000

 Normal termination of Gaussian 16 at Fri Dec 11 00:27:31 2020.
