 Gaussian 16, Revision A.03,

 -----------------------------------------------------------
 # opt freq B3LYP/6-31G(d) empiricaldispersion=gd3bj scf=xqc
 -----------------------------------------------------------

 -----------------------------
 CID_71320970_JID_483_neutraal
 -----------------------------
 Symbolic Z-matrix:
 Charge =  0 Multiplicity = 1

 SCF Done:  E(RB3LYP) =  -443.821658953     A.U. after   14 cycles
 SCF Done:  E(RB3LYP) =  -443.823745584     A.U. after   12 cycles
 SCF Done:  E(RB3LYP) =  -443.823014591     A.U. after   12 cycles
 SCF Done:  E(RB3LYP) =  -443.824003983     A.U. after   12 cycles
 SCF Done:  E(RB3LYP) =  -443.824342408     A.U. after   12 cycles
 SCF Done:  E(RB3LYP) =  -443.824424457     A.U. after   11 cycles
 SCF Done:  E(RB3LYP) =  -443.824440088     A.U. after   11 cycles
 SCF Done:  E(RB3LYP) =  -443.824444211     A.U. after   10 cycles
 SCF Done:  E(RB3LYP) =  -443.824445002     A.U. after    8 cycles
 SCF Done:  E(RB3LYP) =  -443.824445336     A.U. after    7 cycles
 SCF Done:  E(RB3LYP) =  -443.824445570     A.U. after    7 cycles
 SCF Done:  E(RB3LYP) =  -443.824445747     A.U. after    8 cycles
 SCF Done:  E(RB3LYP) =  -443.824445976     A.U. after    8 cycles
 SCF Done:  E(RB3LYP) =  -443.824446220     A.U. after    8 cycles
 SCF Done:  E(RB3LYP) =  -443.824446360     A.U. after    7 cycles
 Optimization completed.
    -- Stationary point found.
 Normal termination of Gaussian 16 at Tue Dec  8 10:45:03 2020.

 --------------------------------------------------------------------
 #N Geom=AllCheck Guess=TCheck SCRF=Check GenChk RB3LYP/6-31G(d) Freq
 --------------------------------------------------------------------

 Structure from the checkpoint file:  "JID_483.chk"
 -----------------------------
 CID_71320970_JID_483_neutraal
 -----------------------------
 Charge =  0 Multiplicity = 1

 SCF Done:  E(RB3LYP) =  -443.824446360     A.U. after    2 cycles

  Exact polarizability: 108.109 -16.611 111.844   9.522  -0.950  69.477
 Approx polarizability: 150.607 -42.607 175.482  20.686  -8.328 105.162

                      1                      2                      3
                      A                      A                      A
 Frequencies --     10.0282                51.5055                86.9665
 Red. masses --      2.6471                 2.8937                 3.4724
 Frc consts  --      0.0002                 0.0045                 0.0155
 IR Inten    --      0.0490                 0.0376                 0.0399

                      4                      5                      6
                      A                      A                      A
 Frequencies --    137.5422               145.8813               163.0698
 Red. masses --      2.8441                 2.5230                 2.1377
 Frc consts  --      0.0317                 0.0316                 0.0335
 IR Inten    --      0.0584                 0.1997                 0.1125

                      7                      8                      9
                      A                      A                      A
 Frequencies --    250.1187               267.7682               298.4936
 Red. masses --      1.7575                 2.1627                 2.3095
 Frc consts  --      0.0648                 0.0914                 0.1212
 IR Inten    --      0.5405                 0.8016                 0.7862

                     10                     11                     12
                      A                      A                      A
 Frequencies --    327.8812               357.0610               392.1676
 Red. masses --      2.9175                 2.3005                 1.7789
 Frc consts  --      0.1848                 0.1728                 0.1612
 IR Inten    --      3.6510                 7.5049                10.4165

                     13                     14                     15
                      A                      A                      A
 Frequencies --    436.5855               468.8510               496.2114
 Red. masses --      1.2983                 1.9655                 3.8462
 Frc consts  --      0.1458                 0.2546                 0.5580
 IR Inten    --     73.7099                17.4716                 7.2439

                     16                     17                     18
                      A                      A                      A
 Frequencies --    569.4570               598.6941               723.1970
 Red. masses --      2.1121                 3.0548                 2.0556
 Frc consts  --      0.4035                 0.6451                 0.6334
 IR Inten    --      5.7671                13.9682                 5.0713

                     19                     20                     21
                      A                      A                      A
 Frequencies --    739.2580               782.6957               815.5055
 Red. masses --      1.4183                 1.8901                 2.8363
 Frc consts  --      0.4567                 0.6822                 1.1114
 IR Inten    --      4.7190                 0.3024                 3.3079

                     22                     23                     24
                      A                      A                      A
 Frequencies --    860.9584               902.8630               928.1269
 Red. masses --      1.5237                 2.1599                 1.3530
 Frc consts  --      0.6655                 1.0374                 0.6867
 IR Inten    --      2.1876                 1.7628                46.4656

                     25                     26                     27
                      A                      A                      A
 Frequencies --    961.4927               983.5207              1010.9598
 Red. masses --      1.5965                 2.8802                 2.8919
 Frc consts  --      0.8696                 1.6415                 1.7414
 IR Inten    --      3.9224                81.0504                96.5713

                     28                     29                     30
                      A                      A                      A
 Frequencies --   1027.8848              1042.7330              1049.2241
 Red. masses --      1.7016                 1.1280                 1.4221
 Frc consts  --      1.0592                 0.7226                 0.9224
 IR Inten    --      3.4683                16.3869                 5.1345

                     31                     32                     33
                      A                      A                      A
 Frequencies --   1092.4198              1133.8335              1141.4931
 Red. masses --      2.1041                 1.6553                 1.8993
 Frc consts  --      1.4794                 1.2538                 1.4581
 IR Inten    --      0.8057                 9.5652                 4.0519

                     34                     35                     36
                      A                      A                      A
 Frequencies --   1209.3289              1239.6705              1294.4926
 Red. masses --      1.3365                 1.3863                 1.3846
 Frc consts  --      1.1516                 1.2552                 1.3670
 IR Inten    --      5.3005                 2.7240                 4.8434

                     37                     38                     39
                      A                      A                      A
 Frequencies --   1316.9656              1326.9038              1344.2174
 Red. masses --      1.5338                 1.2993                 1.1868
 Frc consts  --      1.5674                 1.3479                 1.2634
 IR Inten    --     14.7760                 9.2942                 3.5863

                     40                     41                     42
                      A                      A                      A
 Frequencies --   1377.9383              1382.9119              1407.2620
 Red. masses --      1.3779                 1.3890                 1.4413
 Frc consts  --      1.5415                 1.5651                 1.6818
 IR Inten    --     26.5612                 6.3079                 8.1524

                     43                     44                     45
                      A                      A                      A
 Frequencies --   1415.0358              1416.8501              1443.4047
 Red. masses --      1.3602                 1.4401                 1.2671
 Frc consts  --      1.6047                 1.7032                 1.5554
 IR Inten    --     30.1612                 9.0973                 4.2607

                     46                     47                     48
                      A                      A                      A
 Frequencies --   1482.3620              1512.9660              1516.6190
 Red. masses --      1.3489                 1.0800                 1.0841
 Frc consts  --      1.7464                 1.4566                 1.4692
 IR Inten    --      0.2928                 0.4668                 3.4490

                     49                     50                     51
                      A                      A                      A
 Frequencies --   1525.1325              1527.1672              1535.7589
 Red. masses --      1.0737                 1.0843                 1.0687
 Frc consts  --      1.4715                 1.4899                 1.4850
 IR Inten    --     12.2734                 1.6358                 6.6566

                     52                     53                     54
                      A                      A                      A
 Frequencies --   1543.5530              1681.2114              1712.6122
 Red. masses --      1.0674                 6.0522                 4.3112
 Frc consts  --      1.4983                10.0788                 7.4501
 IR Inten    --      4.8963                 2.8238                 5.8663

                     55                     56                     57
                      A                      A                      A
 Frequencies --   3030.4250              3042.6839              3044.3106
 Red. masses --      1.0644                 1.0639                 1.0384
 Frc consts  --      5.7594                 5.8033                 5.6700
 IR Inten    --     24.8963                22.7722                20.1504

                     58                     59                     60
                      A                      A                      A
 Frequencies --   3056.7990              3070.9343              3078.8441
 Red. masses --      1.0684                 1.0944                 1.0701
 Frc consts  --      5.8817                 6.0810                 5.9764
 IR Inten    --     11.5598                15.2149                38.5979

                     61                     62                     63
                      A                      A                      A
 Frequencies --   3079.3401              3107.7368              3110.1432
 Red. masses --      1.0877                 1.0993                 1.1015
 Frc consts  --      6.0770                 6.2554                 6.2777
 IR Inten    --     52.8524                13.1265                46.6294

                     64                     65                     66
                      A                      A                      A
 Frequencies --   3115.7616              3125.4380              3177.4232
 Red. masses --      1.1018                 1.1001                 1.0720
 Frc consts  --      6.3019                 6.3317                 6.3770
 IR Inten    --     57.1607                24.2277                 6.8107

                     67                     68                     69
                      A                      A                      A
 Frequencies --   3187.3848              3261.9415              3760.0397
 Red. masses --      1.0773                 1.1152                 1.0676
 Frc consts  --      6.4482                 6.9911                 8.8933
 IR Inten    --      5.0665                16.3387                92.3864

 - Thermochemistry -
 -------------------
 Temperature   298.150 Kelvin.  Pressure   1.00000 Atm.
 Atom     1 has atomic number  6 and mass  12.00000

 Molecular mass:   141.11536 amu.
 Principal axes and moments of inertia in atomic units:
                           1         2         3
     Eigenvalues --   992.595622243.904982925.81004
           X            0.99993   0.01091   0.00433
           Y           -0.01092   0.99994   0.00258
           Z           -0.00430  -0.00263   0.99999
 This molecule is an asymmetric top.
 Rotational symmetry number  1.
 Warning -- assumption of classical behavior for rotation
           may cause significant error
 Rotational temperatures (Kelvin)      0.08726     0.03860     0.02960
 Rotational constants (GHZ):           1.81820     0.80429     0.61683
 Zero-point vibrational energy     584471.6 (Joules/Mol)
                                  139.69206 (Kcal/Mol)
 Warning -- explicit consideration of  17 degrees of freedom as
           vibrations may cause significant error
 Vibrational temperatures:     14.43    74.10   125.13   197.89   209.89
          (Kelvin)            234.62   359.87   385.26   429.47   471.75
                              513.73   564.24   628.15   674.57   713.94
                              819.32   861.39  1040.52  1063.63  1126.12
                             1173.33  1238.73  1299.02  1335.37  1383.37
                             1415.07  1454.55  1478.90  1500.26  1509.60
                             1571.75  1631.33  1642.35  1739.95  1783.61
                             1862.49  1894.82  1909.12  1934.03  1982.55
                             1989.70  2024.74  2035.92  2038.53  2076.74
                             2132.79  2176.82  2182.08  2194.33  2197.25
                             2209.61  2220.83  2418.89  2464.07  4360.11
                             4377.74  4380.08  4398.05  4418.39  4429.77
                             4430.48  4471.34  4474.80  4482.89  4496.81
                             4571.60  4585.94  4693.21  5409.86

 Zero-point correction=                           0.222613 (Hartree/Particle)
 Thermal correction to Energy=                    0.234367
 Thermal correction to Enthalpy=                  0.235312
 Thermal correction to Gibbs Free Energy=         0.183334
 Sum of electronic and zero-point Energies=           -443.601833
 Sum of electronic and thermal Energies=              -443.590079
 Sum of electronic and thermal Enthalpies=            -443.589135
 Sum of electronic and thermal Free Energies=         -443.641112

                     E (Thermal)             CV                S
                      KCal/Mol        Cal/Mol-Kelvin    Cal/Mol-Kelvin
 Total                  147.068             42.988            109.395
 Electronic               0.000              0.000              0.000
 Translational            0.889              2.981             40.745
 Rotational               0.889              2.981             30.256
 Vibrational            145.290             37.026             38.395
 Vibration     1          0.593              1.987              8.005
 Vibration     2          0.596              1.977              4.759
 Vibration     3          0.601              1.958              3.727
 Vibration     4          0.614              1.916              2.838
 Vibration     5          0.617              1.907              2.725
 Vibration     6          0.623              1.888              2.514
 Vibration     7          0.663              1.763              1.730
 Vibration     8          0.673              1.732              1.611
 Vibration     9          0.692              1.677              1.425
 Vibration    10          0.711              1.620              1.271
 Vibration    11          0.732              1.561              1.135
 Vibration    12          0.760              1.487              0.992
 Vibration    13          0.797              1.390              0.837
 Vibration    14          0.826              1.319              0.741
 Vibration    15          0.852              1.258              0.668
 Vibration    16          0.926              1.097              0.505
 Vibration    17          0.957              1.035              0.452

 Optimization completed.
    -- Stationary point found.
 Normal termination of Gaussian 16 at Tue Dec  8 10:50:18 2020.

 ----------------------------------------------------------------------
 # B3LYP/6-311++G(d,p) empiricaldispersion=gd3bj scf=xqc pop=npa geom=c
 heck
 ----------------------------------------------------------------------

 -------------------------------------
 CID_71320970_JID_483_Energie_neutraal
 -------------------------------------
 Structure from the checkpoint file:  "JID_483.chk"
 Charge =  0 Multiplicity = 1

 SCF Done:  E(RB3LYP) =  -443.960101766     A.U. after   14 cycles
 Normal termination of Gaussian 16 at Tue Dec  8 10:53:38 2020.

 ----------------------------------------------------------------------
 # B3LYP/6-311++G(d,p) empiricaldispersion=gd3bj scf=xqc pop=npa geom=c
 heck
 ----------------------------------------------------------------------

 -----------------------------------
 CID_71320970_JID_483_Energie_kation
 -----------------------------------
 Structure from the checkpoint file:  "JID_483.chk"
 Charge =  1 Multiplicity = 2

 SCF Done:  E(UB3LYP) =  -443.641572102     A.U. after   21 cycles
 Normal termination of Gaussian 16 at Tue Dec  8 10:59:33 2020.
 Gaussian 16:  ES64L-G16RevA.03 25-Dec-2016

 ----------------------------------------------------------------------
 # B3LYP/6-311++G(d,p) empiricaldispersion=gd3bj scf=xqc pop=npa geom=c
 heck
 ----------------------------------------------------------------------

 ----------------------------------
 CID_71320970_JID_483_Energie_anion
 ----------------------------------
 Structure from the checkpoint file:  "JID_483.chk"
 Charge = -1 Multiplicity = 2

                         Standard orientation:
 ---------------------------------------------------------------------
 Center     Atomic      Atomic             Coordinates (Angstroms)
 Number     Number       Type             X           Y           Z
 ---------------------------------------------------------------------
      1          6           0       -3.573891   -0.404517   -0.384528
      2          6           0       -2.494049    0.400934    0.344574
      3          6           0       -1.379998   -0.459184    0.961014
      4          6           0       -0.529776   -1.253730   -0.040962
      5          6           0        0.395388   -0.394459   -0.931992
      6          6           0        1.489258    0.286631   -0.145998
      7          7           0        2.528340   -0.329441    0.316241
      8          8           0        2.523903   -1.692206   -0.025749
      9          6           0        1.472249    1.714422    0.181446
     10          6           0        0.561848    2.613481   -0.213372
     11          1           0       -3.170039   -0.936355   -1.253177
     12          1           0       -4.377667    0.247598   -0.744240
     13          1           0       -4.022568   -1.152391    0.281035
     14          1           0       -2.062358    1.136736   -0.345186
     15          1           0       -2.962774    0.986051    1.146526
     16          1           0       -0.722399    0.182482    1.561277
     17          1           0       -1.839818   -1.168548    1.663289
     18          1           0        0.095048   -1.968976    0.502214
     19          1           0       -1.180146   -1.847166   -0.695130
     20          1           0        0.870125   -1.048369   -1.670752
     21          1           0       -0.186633    0.347730   -1.484998
     22          1           0        3.354535   -2.000146    0.368267
     23          1           0        2.309750    2.031786    0.799148
     24          1           0        0.646279    3.654788    0.080921
     25          1           0       -0.287119    2.357050   -0.837981
 ---------------------------------------------------------------------

 SCF Done:  E(UB3LYP) =  -443.948761159     A.U. after   33 cycles
 SCF Done:  E(UB3LYP) =  -443.948761159     a.u. after    1 cycles

 The electronic state is 2-A.
 Alpha  occ. eigenvalues --  -19.03081 -14.20330 -10.06166 -10.04735 -10.04312
 Alpha  occ. eigenvalues --  -10.04191 -10.04115 -10.03994 -10.03674 -10.02408
 Alpha  occ. eigenvalues --   -0.94923  -0.73779  -0.68153  -0.63212  -0.62606
 Alpha  occ. eigenvalues --   -0.56569  -0.50771  -0.48563  -0.44073  -0.39324
 Alpha  occ. eigenvalues --   -0.37374  -0.36146  -0.34056  -0.33539  -0.30676
 Alpha  occ. eigenvalues --   -0.29854  -0.28606  -0.27880  -0.27343  -0.25725
 Alpha  occ. eigenvalues --   -0.24255  -0.23527  -0.22279  -0.20484  -0.20367
 Alpha  occ. eigenvalues --   -0.19519  -0.17418  -0.14103  -0.10595   0.05376
 Alpha virt. eigenvalues --    0.07454   0.08285   0.09250   0.09509   0.10119
 Alpha virt. eigenvalues --    0.11113   0.12045   0.12198   0.12298   0.13205
 Alpha virt. eigenvalues --    0.13901   0.14823   0.15512   0.16095   0.17220

  Beta  occ. eigenvalues --  -19.03003 -14.19864 -10.06113 -10.04732 -10.04313
  Beta  occ. eigenvalues --  -10.04183 -10.04071 -10.03969 -10.03590 -10.02204
  Beta  occ. eigenvalues --   -0.94587  -0.73384  -0.68093  -0.62937  -0.62378
  Beta  occ. eigenvalues --   -0.56477  -0.50626  -0.48136  -0.43991  -0.39107
  Beta  occ. eigenvalues --   -0.37172  -0.36015  -0.33960  -0.33431  -0.30521
  Beta  occ. eigenvalues --   -0.29700  -0.28509  -0.27491  -0.26844  -0.25581
  Beta  occ. eigenvalues --   -0.24183  -0.23382  -0.22173  -0.20360  -0.20296
  Beta  occ. eigenvalues --   -0.19465  -0.16619  -0.13659  -0.09055
  Beta virt. eigenvalues --    0.07879   0.08526   0.09356   0.09695   0.10187
  Beta virt. eigenvalues --    0.10978   0.11257   0.12059   0.12444   0.12644
  Beta virt. eigenvalues --    0.13603   0.13930   0.14995   0.15611   0.16409

 Mulliken charges and spin densities:
               1          2
     1  C    1.178545  -1.825278
     2  C   -1.090384   0.946363
     3  C    0.001597  -0.143915
     4  C    0.287917  -0.576295
     5  C   -0.087867   0.035272
     6  C   -0.209401   0.031912
     7  N   -0.381792   0.242019
     8  O   -0.082722   0.001758
     9  C    0.384663  -0.214214
    10  C   -0.698907   0.140977
    11  H   -0.334264   0.478974
    12  H   -0.472662   0.603697
    13  H   -0.247638   0.375088
    14  H    0.340105  -0.245774
    15  H   -0.001739   0.130636
    16  H    0.157148  -0.021184
    17  H   -0.090997   0.229284
    18  H    0.145533   0.028622
    19  H   -0.105962   0.223654
    20  H    0.055717   0.144441
    21  H    0.025042   0.075103
    22  H    0.150446   0.104300
    23  H    0.138270   0.028115
    24  H    0.121215  -0.035637
    25  H   -0.181866   0.242082
 Sum of Mulliken charges =  -1.00000   1.00000

 Dipole moment (field-independent basis, Debye):
    X=              3.2819    Y=              0.2300    Z=              2.1479  Tot=              3.9290
 Quadrupole moment (field-independent basis, Debye-Ang):
   XX=           -119.8272   YY=            -91.2120   ZZ=            -84.1630
   XY=             -7.2876   XZ=             -3.7822   YZ=              0.8117

 Summary of Natural Population Analysis:

                                       Natural Population
                Natural  -----------------------------------------------
    Atom  No    Charge         Core      Valence    Rydberg      Total
 -----------------------------------------------------------------------
      C    1   -0.28665      0.99967     2.28187    0.00511     3.28665
      C    2   -0.19206      0.99964     2.18396    0.00846     3.19206
      C    3   -0.19142      0.99962     2.18294    0.00885     3.19142
      C    4   -0.18792      0.99962     2.17912    0.00919     3.18792
      C    5   -0.21879      0.99959     2.20901    0.01019     3.21879
      C    6    0.08580      0.99957     1.89525    0.01938     2.91420
      N    7   -0.03047      0.99960     2.51599    0.01488     3.53047
      O    8   -0.28983      0.99990     3.28310    0.00683     4.28983
      C    9   -0.09504      0.99952     2.08561    0.00991     3.09504
      C   10   -0.16312      0.99958     2.15589    0.00765     3.16312
      H   11    0.09767      0.00000     0.40084    0.00150     0.40233
      H   12    0.09724      0.00000     0.40151    0.00125     0.40276
      H   13    0.09391      0.00000     0.40469    0.00140     0.40609
      H   14    0.09532      0.00000     0.40325    0.00143     0.40468
      H   15    0.09107      0.00000     0.40793    0.00100     0.40893
      H   16    0.10181      0.00000     0.39703    0.00116     0.39819
      H   17    0.09093      0.00000     0.40812    0.00094     0.40907
      H   18    0.10359      0.00000     0.39478    0.00163     0.39641
      H   19    0.09392      0.00000     0.40493    0.00115     0.40608
      H   20    0.11084      0.00000     0.38759    0.00157     0.38916
      H   21    0.10089      0.00000     0.39770    0.00141     0.39911
      H   22    0.22779      0.00000     0.26859    0.00362     0.27221
      H   23    0.09369      0.00000     0.40448    0.00183     0.40631
      H   24    0.08564      0.00000     0.41355    0.00081     0.41436
      H   25    0.08519      0.00000     0.41355    0.00126     0.41481
 =======================================================================
   * Total *   -0.00000      9.99631    28.88129    0.12239    39.00000

 Normal termination of Gaussian 16 at Tue Dec  8 11:06:45 2020.
