 Gaussian 16, Revision A.03,

 -----------------------------------------------------------
 # opt freq B3LYP/6-31G(d) empiricaldispersion=gd3bj scf=xqc
 -----------------------------------------------------------

 ------------------------------
 CID_80781566_JID_9694_neutraal
 ------------------------------
 Symbolic Z-matrix:
 Charge =  0 Multiplicity = 1

 SCF Done:  E(RB3LYP) =  -839.825539121     A.U. after   14 cycles
 SCF Done:  E(RB3LYP) =  -839.834692389     A.U. after   12 cycles
 SCF Done:  E(RB3LYP) =  -839.836418548     A.U. after   12 cycles
 SCF Done:  E(RB3LYP) =  -839.837497053     A.U. after   12 cycles
 SCF Done:  E(RB3LYP) =  -839.837883655     A.U. after   12 cycles
 SCF Done:  E(RB3LYP) =  -839.838014515     A.U. after   11 cycles
 SCF Done:  E(RB3LYP) =  -839.838082069     A.U. after   11 cycles
 SCF Done:  E(RB3LYP) =  -839.838114255     A.U. after   11 cycles
 SCF Done:  E(RB3LYP) =  -839.838142983     A.U. after   11 cycles
 SCF Done:  E(RB3LYP) =  -839.838183796     A.U. after   11 cycles
 SCF Done:  E(RB3LYP) =  -839.839765728     A.U. after   10 cycles
 SCF Done:  E(RB3LYP) =  -839.839769734     A.U. after   10 cycles
 SCF Done:  E(RB3LYP) =  -839.839770575     A.U. after    8 cycles
 SCF Done:  E(RB3LYP) =  -839.839770714     A.U. after    7 cycles
 SCF Done:  E(RB3LYP) =  -839.839770734     A.U. after    6 cycles
 Optimization completed.
    -- Stationary point found.
 Normal termination of Gaussian 16 at Sat Dec 12 10:18:25 2020.

 --------------------------------------------------------------------
 #N Geom=AllCheck Guess=TCheck SCRF=Check GenChk RB3LYP/6-31G(d) Freq
 --------------------------------------------------------------------

 Structure from the checkpoint file:  "JID_9694.chk"
 ------------------------------
 CID_80781566_JID_9694_neutraal
 ------------------------------
 Charge =  0 Multiplicity = 1

 SCF Done:  E(RB3LYP) =  -839.839770735     A.U. after    1 cycles

  Exact polarizability: 246.295   5.945 157.334 -17.776  -0.145 131.245
 Approx polarizability: 310.399  22.960 251.348 -39.528  -5.328 213.064

                      1                      2                      3
                      A                      A                      A
 Frequencies --     17.2314                20.6718                28.0311
 Red. masses --      4.2362                 3.9945                 3.4874
 Frc consts  --      0.0007                 0.0010                 0.0016
 IR Inten    --      0.2321                 0.0617                 0.3400

                      4                      5                      6
                      A                      A                      A
 Frequencies --     44.5919                57.3553                87.9529
 Red. masses --      3.8295                 3.9931                 1.6407
 Frc consts  --      0.0045                 0.0077                 0.0075
 IR Inten    --      0.3035                 0.5929                 0.9888

                      7                      8                      9
                      A                      A                      A
 Frequencies --    103.5195               110.0216               130.3318
 Red. masses --      1.9169                 1.7196                 1.0960
 Frc consts  --      0.0121                 0.0123                 0.0110
 IR Inten    --      1.0889                 1.4742                 0.0327

                     10                     11                     12
                      A                      A                      A
 Frequencies --    148.1829               163.9359               172.1262
 Red. masses --      3.8617                 4.3604                 3.5434
 Frc consts  --      0.0500                 0.0690                 0.0619
 IR Inten    --      0.7413                 2.0428                 6.6521

                     13                     14                     15
                      A                      A                      A
 Frequencies --    187.2887               209.3389               248.3589
 Red. masses --      3.6713                 3.4637                 1.3922
 Frc consts  --      0.0759                 0.0894                 0.0506
 IR Inten    --      3.5698                 2.6098                 0.5275

                     16                     17                     18
                      A                      A                      A
 Frequencies --    267.3615               291.4933               310.0602
 Red. masses --      3.6520                 3.1423                 3.7667
 Frc consts  --      0.1538                 0.1573                 0.2134
 IR Inten    --      0.5029                 1.5905                 2.0399

                     19                     20                     21
                      A                      A                      A
 Frequencies --    329.5296               380.2711               406.6143
 Red. masses --      2.3308                 3.1766                 2.4786
 Frc consts  --      0.1491                 0.2706                 0.2414
 IR Inten    --      1.5556                 1.9796                 2.7022

                     22                     23                     24
                      A                      A                      A
 Frequencies --    435.1651               461.4741               499.8396
 Red. masses --      3.0506                 3.4891                 2.1078
 Frc consts  --      0.3404                 0.4378                 0.3103
 IR Inten    --      1.7522                 2.6389                51.3000

                     25                     26                     27
                      A                      A                      A
 Frequencies --    525.9401               537.0094               590.0477
 Red. masses --      1.7121                 2.1611                 4.1275
 Frc consts  --      0.2790                 0.3672                 0.8467
 IR Inten    --     53.9476                12.4424                 1.7857

                     28                     29                     30
                      A                      A                      A
 Frequencies --    622.8616               635.1982               645.9556
 Red. masses --      3.5833                 5.1719                 4.0576
 Frc consts  --      0.8191                 1.2295                 0.9975
 IR Inten    --      0.6791                 0.8494                 7.9562

                     31                     32                     33
                      A                      A                      A
 Frequencies --    673.7349               706.5577               725.6541
 Red. masses --      4.7488                 3.3403                 4.0876
 Frc consts  --      1.2700                 0.9825                 1.2682
 IR Inten    --      5.9508                 4.5774                 4.1098

                     34                     35                     36
                      A                      A                      A
 Frequencies --    747.4123               767.4350               793.7107
 Red. masses --      4.9782                 1.6124                 1.4984
 Frc consts  --      1.6385                 0.5595                 0.5561
 IR Inten    --      6.3177                23.3020                12.9911

                     37                     38                     39
                      A                      A                      A
 Frequencies --    802.0322               802.7726               847.0039
 Red. masses --      1.3213                 3.6503                 1.3024
 Frc consts  --      0.5008                 1.3860                 0.5505
 IR Inten    --     33.6317                21.6170                 0.0851

                     40                     41                     42
                      A                      A                      A
 Frequencies --    858.2689               909.8139               945.3463
 Red. masses --      2.7500                 1.7139                 2.3424
 Frc consts  --      1.1935                 0.8359                 1.2334
 IR Inten    --      1.3830                 1.5221                15.1788

                     43                     44                     45
                      A                      A                      A
 Frequencies --    974.6484               985.0615               989.0490
 Red. masses --      2.6371                 3.7815                 1.3957
 Frc consts  --      1.4759                 2.1619                 0.8044
 IR Inten    --      7.0453                 5.2682                 0.3734

                     46                     47                     48
                      A                      A                      A
 Frequencies --    993.9572              1003.6096              1021.6696
 Red. masses --      8.1483                 2.1113                 1.9063
 Frc consts  --      4.7430                 1.2529                 1.1724
 IR Inten    --     24.1377                15.0307                 3.3453

                     49                     50                     51
                      A                      A                      A
 Frequencies --   1034.6932              1053.5917              1063.6817
 Red. masses --      1.9297                 1.4813                 1.9128
 Frc consts  --      1.2172                 0.9688                 1.2751
 IR Inten    --      5.6119                18.3161                64.4271

                     52                     53                     54
                      A                      A                      A
 Frequencies --   1081.4648              1106.9553              1144.0048
 Red. masses --      1.4551                 2.3580                 1.8280
 Frc consts  --      1.0027                 1.7023                 1.4095
 IR Inten    --      2.0832                14.2024                 6.8227

                     55                     56                     57
                      A                      A                      A
 Frequencies --   1148.2451              1161.1755              1172.1117
 Red. masses --      1.7676                 1.5699                 1.6211
 Frc consts  --      1.3731                 1.2471                 1.3122
 IR Inten    --     18.1991                39.8002                 7.9095

                     58                     59                     60
                      A                      A                      A
 Frequencies --   1192.0804              1230.8874              1244.6085
 Red. masses --      1.9234                 3.8966                 1.6096
 Frc consts  --      1.6104                 3.4784                 1.4691
 IR Inten    --     41.9771                73.6142                 1.9063

                     61                     62                     63
                      A                      A                      A
 Frequencies --   1254.3190              1261.5015              1287.9451
 Red. masses --      3.6684                 1.9923                 1.5812
 Frc consts  --      3.4005                 1.8680                 1.5453
 IR Inten    --     17.9569                14.9749                58.8155

                     64                     65                     66
                      A                      A                      A
 Frequencies --   1301.4223              1316.1165              1326.9480
 Red. masses --      2.3524                 1.5765                 1.7450
 Frc consts  --      2.3475                 1.6089                 1.8103
 IR Inten    --      7.0038                10.2058                16.8116

                     67                     68                     69
                      A                      A                      A
 Frequencies --   1343.3883              1372.7715              1397.7233
 Red. masses --      1.7914                 2.2152                 1.3881
 Frc consts  --      1.9048                 2.4596                 1.5977
 IR Inten    --     21.4339                38.5243                52.8662

                     70                     71                     72
                      A                      A                      A
 Frequencies --   1407.3715              1427.8398              1440.3580
 Red. masses --      1.3750                 1.8560                 1.8166
 Frc consts  --      1.6046                 2.2294                 2.2205
 IR Inten    --     54.6897                48.1115                19.6040

                     73                     74                     75
                      A                      A                      A
 Frequencies --   1443.6976              1446.6289              1454.2006
 Red. masses --      1.3369                 1.3025                 1.3919
 Frc consts  --      1.6417                 1.6060                 1.7342
 IR Inten    --     73.1551                12.4406                90.5183

                     76                     77                     78
                      A                      A                      A
 Frequencies --   1471.3201              1502.8577              1502.9133
 Red. masses --      1.8483                 1.0433                 1.1480
 Frc consts  --      2.3574                 1.3883                 1.5278
 IR Inten    --     60.0208                 6.1417                 3.4924

                     79                     80                     81
                      A                      A                      A
 Frequencies --   1511.8538              1520.5359              1521.9758
 Red. masses --      1.0747                 1.2353                 1.1060
 Frc consts  --      1.4472                 1.6827                 1.5095
 IR Inten    --      9.8306                20.0791                 5.0958

                     82                     83                     84
                      A                      A                      A
 Frequencies --   1526.2177              1527.7263              1532.5020
 Red. masses --      1.0938                 1.0820                 1.0831
 Frc consts  --      1.5011                 1.4879                 1.4988
 IR Inten    --     15.0792                29.1859                29.9905

                     85                     86                     87
                      A                      A                      A
 Frequencies --   1537.0362              1563.7588              1576.4353
 Red. masses --      1.0576                 2.6090                 2.9204
 Frc consts  --      1.4722                 3.7589                 4.2761
 IR Inten    --     14.5063                44.4508               440.5654

                     88                     89                     90
                      A                      A                      A
 Frequencies --   1619.7862              1629.9635              1648.8272
 Red. masses --      6.5852                 4.7574                 5.2906
 Frc consts  --     10.1797                 7.4469                 8.4744
 IR Inten    --     27.4069               507.1835               568.9127

                     91                     92                     93
                      A                      A                      A
 Frequencies --   1673.1687              3025.0069              3032.1677
 Red. masses --      6.0661                 1.0611                 1.0410
 Frc consts  --     10.0054                 5.7210                 5.6388
 IR Inten    --      3.7165                35.7919                61.0740

                     94                     95                     96
                      A                      A                      A
 Frequencies --   3043.6635              3044.5723              3051.0691
 Red. masses --      1.0449                 1.0516                 1.0732
 Frc consts  --      5.7030                 5.7432                 5.8860
 IR Inten    --     22.7217                64.2884                68.2841

                     97                     98                     99
                      A                      A                      A
 Frequencies --   3055.1611              3060.2757              3074.6675
 Red. masses --      1.0398                 1.0947                 1.1038
 Frc consts  --      5.7185                 6.0406                 6.1479
 IR Inten    --     22.5695                46.8718                15.4395

                    100                    101                    102
                      A                      A                      A
 Frequencies --   3079.7261              3092.9930              3120.2482
 Red. masses --      1.1050                 1.1016                 1.1023
 Frc consts  --      6.1752                 6.2089                 6.3230
 IR Inten    --     33.0244                17.7977                51.5104

                    103                    104                    105
                      A                      A                      A
 Frequencies --   3129.8978              3139.5089              3141.5697
 Red. masses --      1.1019                 1.0945                 1.0992
 Frc consts  --      6.3600                 6.3559                 6.3917
 IR Inten    --     25.0415                16.2028                11.6906

                    106                    107                    108
                      A                      A                      A
 Frequencies --   3163.4642              3203.7397              3256.3712
 Red. masses --      1.0905                 1.0946                 1.0922
 Frc consts  --      6.4296                 6.6194                 6.8240
 IR Inten    --     39.0891                 1.5931                 6.7853

                    109                    110                    111
                      A                      A                      A
 Frequencies --   3264.8169              3282.7051              3624.1224
 Red. masses --      1.0944                 1.0996                 1.0759
 Frc consts  --      6.8728                 6.9815                 8.3261
 IR Inten    --      9.2403                 1.0928                41.0152

 - Thermochemistry -
 -------------------
 Temperature   298.150 Kelvin.  Pressure   1.00000 Atm.
 Atom     1 has atomic number  6 and mass  12.00000

 Molecular mass:   260.16371 amu.
 Principal axes and moments of inertia in atomic units:
                           1         2         3
     Eigenvalues --  1904.74434********************
           X            0.99994  -0.01094   0.00079
           Y            0.01094   0.99994  -0.00252
           Z           -0.00076   0.00253   1.00000
 This molecule is an asymmetric top.
 Rotational symmetry number  1.
 Warning -- assumption of classical behavior for rotation
           may cause significant error
 Rotational temperatures (Kelvin)      0.04547     0.00780     0.00732
 Rotational constants (GHZ):           0.94750     0.16258     0.15253
 Zero-point vibrational energy     873775.5 (Joules/Mol)
                                  208.83735 (Kcal/Mol)
 Warning -- explicit consideration of  27 degrees of freedom as
           vibrations may cause significant error
 Vibrational temperatures:     24.79    29.74    40.33    64.16    82.52
          (Kelvin)            126.54   148.94   158.30   187.52   213.20
                              235.87   247.65   269.47   301.19   357.33
                              384.67   419.39   446.11   474.12   547.13
                              585.03   626.11   663.96   719.16   756.71
                              772.64   848.95   896.16   913.91   929.39
                              969.35  1016.58  1044.05  1075.36  1104.17
                             1141.97  1153.95  1155.01  1218.65  1234.86
                             1309.02  1360.14  1402.30  1417.28  1423.02
                             1430.08  1443.97  1469.95  1488.69  1515.88
                             1530.40  1555.99  1592.66  1645.97  1652.07
                             1670.67  1686.41  1715.14  1770.97  1790.71
                             1804.69  1815.02  1853.07  1872.46  1893.60
                             1909.18  1932.84  1975.11  2011.01  2024.89
                             2054.34  2072.35  2077.16  2081.38  2092.27
                             2116.90  2162.28  2162.36  2175.22  2187.71
                             2189.78  2195.89  2198.06  2204.93  2211.45
                             2249.90  2268.14  2330.51  2345.15  2372.29
                             2407.32  4352.31  4362.61  4379.15  4380.46
                             4389.81  4395.70  4403.05  4423.76  4431.04
                             4450.13  4489.34  4503.22  4517.05  4520.02
                             4551.52  4609.47  4685.19  4697.34  4723.08
                             5214.30

 Zero-point correction=                           0.332804 (Hartree/Particle)
 Thermal correction to Energy=                    0.352096
 Thermal correction to Enthalpy=                  0.353040
 Thermal correction to Gibbs Free Energy=         0.281981
 Sum of electronic and zero-point Energies=           -839.506967
 Sum of electronic and thermal Energies=              -839.487675
 Sum of electronic and thermal Enthalpies=            -839.486731
 Sum of electronic and thermal Free Energies=         -839.557789

                     E (Thermal)             CV                S
                      KCal/Mol        Cal/Mol-Kelvin    Cal/Mol-Kelvin
 Total                  220.944             70.834            149.556
 Electronic               0.000              0.000              0.000
 Translational            0.889              2.981             42.568
 Rotational               0.889              2.981             33.880
 Vibrational            219.166             64.872             73.108
 Vibration     1          0.593              1.986              6.930
 Vibration     2          0.593              1.986              6.569
 Vibration     3          0.593              1.984              5.964
 Vibration     4          0.595              1.980              5.044
 Vibration     5          0.596              1.975              4.546
 Vibration     6          0.601              1.958              3.705
 Vibration     7          0.605              1.946              3.387
 Vibration     8          0.606              1.941              3.269
 Vibration     9          0.612              1.923              2.941
 Vibration    10          0.618              1.905              2.695
 Vibration    11          0.623              1.887              2.504
 Vibration    12          0.626              1.877              2.412
 Vibration    13          0.632              1.857              2.254
 Vibration    14          0.642              1.826              2.049
 Vibration    15          0.662              1.765              1.742
 Vibration    16          0.672              1.733              1.613
 Vibration    17          0.687              1.690              1.465
 Vibration    18          0.699              1.655              1.362
 Vibration    19          0.712              1.617              1.262
 Vibration    20          0.750              1.512              1.038
 Vibration    21          0.771              1.456              0.939
 Vibration    22          0.796              1.394              0.842
 Vibration    23          0.819              1.336              0.762
 Vibration    24          0.855              1.250              0.659
 Vibration    25          0.881              1.193              0.596
 Vibration    26          0.892              1.168              0.572
 Vibration    27          0.947              1.053              0.467

                           ! Non-Optimized Parameters !
 Normal termination of Gaussian 16 at Sat Dec 12 10:34:39 2020.

 ----------------------------------------------------------------------
 # B3LYP/6-311++G(d,p) empiricaldispersion=gd3bj scf=xqc pop=npa geom=c
 heck
 ----------------------------------------------------------------------

 --------------------------------------
 CID_80781566_JID_9694_Energie_neutraal
 --------------------------------------
 Structure from the checkpoint file:  "JID_9694.chk"
 Charge =  0 Multiplicity = 1

 SCF Done:  E(RB3LYP) =  -840.066902719     A.U. after   16 cycles
 Normal termination of Gaussian 16 at Sat Dec 12 10:41:24 2020.

 ----------------------------------------------------------------------
 # B3LYP/6-311++G(d,p) empiricaldispersion=gd3bj scf=xqc pop=npa geom=c
 heck
 ----------------------------------------------------------------------

 ------------------------------------
 CID_80781566_JID_9694_Energie_kation
 ------------------------------------
 Structure from the checkpoint file:  "JID_9694.chk"
 Charge =  1 Multiplicity = 2

 SCF Done:  E(UB3LYP) =  -839.804737439     A.U. after   23 cycles
 Normal termination of Gaussian 16 at Sat Dec 12 10:54:30 2020.
 Gaussian 16:  ES64L-G16RevA.03 25-Dec-2016

 ----------------------------------------------------------------------
 # B3LYP/6-311++G(d,p) empiricaldispersion=gd3bj scf=xqc pop=npa geom=c
 heck
 ----------------------------------------------------------------------

 -----------------------------------
 CID_80781566_JID_9694_Energie_anion
 -----------------------------------
 Structure from the checkpoint file:  "JID_9694.chk"
 Charge = -1 Multiplicity = 2

                         Standard orientation:
 ---------------------------------------------------------------------
 Center     Atomic      Atomic             Coordinates (Angstroms)
 Number     Number       Type             X           Y           Z
 ---------------------------------------------------------------------
      1          6           0        4.531462   -1.367504    1.033120
      2          6           0        5.201029   -1.007213   -0.294615
      3          6           0        4.249669   -0.349864   -1.306475
      4          7           0        3.679637    0.904093   -0.851799
      5          6           0        2.474796    1.040276   -0.223919
      6          7           0        2.235800    2.262428    0.300599
      7          6           0        1.036156    2.391427    0.874516
      8          6           0        0.092698    1.379477    0.962804
      9          6           0        0.463337    0.134223    0.402379
     10          7           0        1.653667   -0.020133   -0.199738
     11          7           0       -0.356673   -0.967215    0.456838
     12          6           0       -0.082737   -2.165129   -0.321561
     13          6           0       -1.656024   -0.905849    1.096087
     14          6           0       -2.719403   -0.357133    0.192952
     15          6           0       -2.690766    0.310490   -0.992975
     16          6           0       -4.060420    0.571655   -1.340886
     17          6           0       -4.829040    0.048084   -0.345181
     18          8           0       -4.016205   -0.527492    0.603137
     19          6           0       -6.293611   -0.021464   -0.099086
     20          1           0        4.151616   -0.473181    1.537212
     21          1           0        5.240076   -1.859515    1.708694
     22          1           0        3.680770   -2.039132    0.876318
     23          1           0        6.050205   -0.333614   -0.110809
     24          1           0        5.620058   -1.908997   -0.762417
     25          1           0        4.783233   -0.164053   -2.247132
     26          1           0        3.414459   -1.017974   -1.527047
     27          1           0        4.284572    1.706187   -0.742749
     28          1           0        0.812532    3.374389    1.287738
     29          1           0       -0.878192    1.564192    1.399674
     30          1           0       -0.055758   -3.046193    0.331952
     31          1           0       -0.863263   -2.315126   -1.079046
     32          1           0        0.881874   -2.050707   -0.810509
     33          1           0       -1.582090   -0.319285    2.019998
     34          1           0       -1.930998   -1.921462    1.406375
     35          1           0       -1.804979    0.590793   -1.544013
     36          1           0       -4.423392    1.083908   -2.221066
     37          1           0       -6.642858   -1.059311   -0.032199
     38          1           0       -6.569415    0.478803    0.837484
     39          1           0       -6.828708    0.467144   -0.917808
 ---------------------------------------------------------------------

 SCF Done:  E(UB3LYP) =  -840.054493691     A.U. after   33 cycles
 SCF Done:  E(UB3LYP) =  -840.054493692     a.u. after    1 cycles

 The electronic state is 2-A.
 Alpha  occ. eigenvalues --  -19.09774 -14.26068 -14.24077 -14.20902 -14.20751
 Alpha  occ. eigenvalues --  -10.18171 -10.17057 -10.13961 -10.13886 -10.13841
 Alpha  occ. eigenvalues --  -10.12663 -10.11486 -10.10991 -10.08739 -10.08343
 Alpha  occ. eigenvalues --  -10.08252 -10.08018 -10.07973 -10.07010  -1.02190
 Alpha  occ. eigenvalues --   -0.91798  -0.88066  -0.82490  -0.78946  -0.71389
 Alpha  occ. eigenvalues --   -0.70802  -0.70202  -0.67751  -0.65524  -0.62016
 Alpha  occ. eigenvalues --   -0.60205  -0.58481  -0.54471  -0.53551  -0.50955
 Alpha  occ. eigenvalues --   -0.50567  -0.46717  -0.46115  -0.43888  -0.42894
 Alpha  occ. eigenvalues --   -0.41385  -0.39241  -0.37907  -0.37515  -0.37186
 Alpha  occ. eigenvalues --   -0.36846  -0.36099  -0.35089  -0.34975  -0.33466
 Alpha  occ. eigenvalues --   -0.33179  -0.32191  -0.31756  -0.31205  -0.30721
 Alpha  occ. eigenvalues --   -0.30550  -0.30220  -0.30056  -0.28311  -0.27871
 Alpha  occ. eigenvalues --   -0.26305  -0.25500  -0.24895  -0.22330  -0.21923
 Alpha  occ. eigenvalues --   -0.19535  -0.16513  -0.15192  -0.13537  -0.12385
 Alpha  occ. eigenvalues --    0.03776
 Alpha virt. eigenvalues --    0.04927   0.06015   0.06292   0.06890   0.07054
 Alpha virt. eigenvalues --    0.07367   0.07699   0.08527   0.08682   0.08895
 Alpha virt. eigenvalues --    0.09139   0.09489   0.09778   0.10148   0.10744

  Beta  occ. eigenvalues --  -19.09764 -14.26066 -14.24071 -14.20898 -14.20749
  Beta  occ. eigenvalues --  -10.18170 -10.17056 -10.13961 -10.13885 -10.13828
  Beta  occ. eigenvalues --  -10.12661 -10.11472 -10.10967 -10.08692 -10.08322
  Beta  occ. eigenvalues --  -10.08248 -10.08005 -10.07967 -10.06994  -1.02177
  Beta  occ. eigenvalues --   -0.91791  -0.88057  -0.82479  -0.78940  -0.71375
  Beta  occ. eigenvalues --   -0.70782  -0.70179  -0.67729  -0.65487  -0.61990
  Beta  occ. eigenvalues --   -0.60177  -0.58437  -0.54449  -0.53529  -0.50932
  Beta  occ. eigenvalues --   -0.50516  -0.46697  -0.46095  -0.43868  -0.42862
  Beta  occ. eigenvalues --   -0.41369  -0.39213  -0.37885  -0.37485  -0.37160
  Beta  occ. eigenvalues --   -0.36828  -0.36076  -0.35067  -0.34952  -0.33442
  Beta  occ. eigenvalues --   -0.33158  -0.32160  -0.31722  -0.31179  -0.30700
  Beta  occ. eigenvalues --   -0.30525  -0.30195  -0.30031  -0.28284  -0.27848
  Beta  occ. eigenvalues --   -0.26268  -0.25472  -0.24880  -0.22319  -0.21913
  Beta  occ. eigenvalues --   -0.19525  -0.16507  -0.15181  -0.13521  -0.12371
  Beta virt. eigenvalues --    0.05548   0.05912   0.06286   0.06751   0.07039
  Beta virt. eigenvalues --    0.07404   0.07798   0.08023   0.08656   0.08844
  Beta virt. eigenvalues --    0.09073   0.09438   0.09722   0.10135   0.10383

 Mulliken charges and spin densities:
               1          2
     1  C   -0.213967  -0.208277
     2  C    0.454026  -0.779979
     3  C    0.122572  -0.321034
     4  N   -0.124375   0.021223
     5  C   -0.541942   0.045222
     6  N   -0.124896   0.048988
     7  C   -0.038733  -0.370737
     8  C    0.416825   0.009839
     9  C   -0.483821   0.188834
    10  N   -0.190060   0.040978
    11  N    0.282190  -0.013722
    12  C    0.394167  -0.735982
    13  C   -0.103260  -0.754497
    14  C    0.425299  -0.009208
    15  C   -0.116267  -0.014151
    16  C   -0.207444  -0.011723
    17  C   -1.219683   1.250385
    18  O   -0.037799   0.054696
    19  C    2.025292  -2.573382
    20  H    0.089107   0.074580
    21  H   -0.189466   0.341938
    22  H    0.109648   0.033373
    23  H   -0.019013   0.142054
    24  H   -0.241874   0.378227
    25  H   -0.272519   0.437537
    26  H    0.055958   0.130548
    27  H    0.160543   0.135779
    28  H    0.034415   0.142309
    29  H    0.070677   0.073613
    30  H   -0.279535   0.437470
    31  H    0.003801   0.142966
    32  H    0.224085  -0.029899
    33  H   -0.042275   0.238801
    34  H   -0.109534   0.315828
    35  H    0.066642   0.097964
    36  H   -0.383029   0.557332
    37  H   -0.277275   0.435799
    38  H   -0.250554   0.406925
    39  H   -0.467926   0.639385
 Sum of Mulliken charges =  -1.00000   1.00000

 Dipole moment (field-independent basis, Debye):
    X=              3.6028    Y=              1.6014    Z=              1.0703  Tot=              4.0853
 Quadrupole moment (field-independent basis, Debye-Ang):
   XX=           -264.9816   YY=           -157.9544   ZZ=           -147.8211
   XY=              6.2577   XZ=             -2.1578   YZ=              1.6181

 Summary of Natural Population Analysis:

                                       Natural Population
                Natural  -----------------------------------------------
    Atom  No    Charge         Core      Valence    Rydberg      Total
 -----------------------------------------------------------------------
      C    1   -0.28760      0.99967     2.28325    0.00468     3.28760
      C    2   -0.19277      0.99964     2.18576    0.00737     3.19277
      C    3   -0.08939      0.99961     2.07825    0.01153     3.08939
      N    4   -0.30682      0.99966     2.79660    0.01057     3.80682
      C    5    0.30889      0.99960     1.67313    0.01837     2.69111
      N    6   -0.29139      0.99968     2.78144    0.01027     3.79139
      C    7    0.05248      0.99960     1.93360    0.01432     2.94752
      C    8   -0.19463      0.99952     2.18789    0.00722     3.19463
      C    9    0.23114      0.99952     1.75490    0.01444     2.76886
      N   10   -0.30464      0.99963     2.79591    0.00910     3.80464
      N   11   -0.23914      0.99965     2.72834    0.01116     3.73914
      C   12   -0.17899      0.99963     2.17121    0.00815     3.17899
      C   13   -0.10255      0.99957     2.09155    0.01143     3.10255
      C   14    0.13992      0.99945     1.84593    0.01470     2.86008
      C   15   -0.14710      0.99948     2.13998    0.00763     3.14710
      C   16   -0.14933      0.99949     2.14120    0.00865     3.14933
      C   17    0.15316      0.99947     1.83187    0.01550     2.84684
      O   18   -0.24420      0.99985     3.23525    0.00911     4.24420
      C   19   -0.30433      0.99963     2.29953    0.00517     3.30433
      H   20    0.09881      0.00000     0.39988    0.00131     0.40119
      H   21    0.09695      0.00000     0.40208    0.00097     0.40305
      H   22    0.10086      0.00000     0.39790    0.00124     0.39914
      H   23    0.09107      0.00000     0.40763    0.00131     0.40893
      H   24    0.09682      0.00000     0.40164    0.00154     0.40318
      H   25    0.09426      0.00000     0.40469    0.00106     0.40574
      H   26    0.10686      0.00000     0.39136    0.00178     0.39314
      H   27    0.19305      0.00000     0.30413    0.00282     0.30695
      H   28    0.08936      0.00000     0.40956    0.00107     0.41064
      H   29    0.11059      0.00000     0.38820    0.00121     0.38941
      H   30    0.09396      0.00000     0.40489    0.00115     0.40604
      H   31    0.09503      0.00000     0.40386    0.00110     0.40497
      H   32    0.11625      0.00000     0.38220    0.00155     0.38375
      H   33    0.10699      0.00000     0.39144    0.00156     0.39301
      H   34    0.10913      0.00000     0.38941    0.00146     0.39087
      H   35    0.11249      0.00000     0.38645    0.00106     0.38751
      H   36    0.10907      0.00000     0.39005    0.00088     0.39093
      H   37    0.10787      0.00000     0.39013    0.00201     0.39213
      H   38    0.10738      0.00000     0.39068    0.00194     0.39262
      H   39    0.11049      0.00000     0.38761    0.00190     0.38951
 =======================================================================
   * Total *    0.00000     18.99233    50.77939    0.22828    70.00000

 Normal termination of Gaussian 16 at Sat Dec 12 11:13:49 2020.
