 Gaussian 16, Revision A.03,

 -----------------------------------------------------------
 # opt freq B3LYP/6-31G(d) empiricaldispersion=gd3bj scf=xqc
 -----------------------------------------------------------

 -------------------------------
 CID_103984678_JID_4037_neutraal
 -------------------------------
 Symbolic Z-matrix:
 Charge =  0 Multiplicity = 1

 SCF Done:  E(RB3LYP) =  -636.990139923     A.U. after   13 cycles
 SCF Done:  E(RB3LYP) =  -636.994660046     A.U. after   11 cycles
 SCF Done:  E(RB3LYP) =  -636.996308285     A.U. after   10 cycles
 SCF Done:  E(RB3LYP) =  -636.998087561     A.U. after   13 cycles
 SCF Done:  E(RB3LYP) =  -636.998866277     A.U. after   10 cycles
 SCF Done:  E(RB3LYP) =  -636.999236029     A.U. after   10 cycles
 SCF Done:  E(RB3LYP) =  -636.999318810     A.U. after   10 cycles
 SCF Done:  E(RB3LYP) =  -636.999373024     A.U. after   10 cycles
 SCF Done:  E(RB3LYP) =  -636.999415366     A.U. after   10 cycles
 SCF Done:  E(RB3LYP) =  -636.999449185     A.U. after   10 cycles
 SCF Done:  E(RB3LYP) =  -636.999539508     A.U. after   10 cycles
 SCF Done:  E(RB3LYP) =  -636.999549626     A.U. after    9 cycles
 SCF Done:  E(RB3LYP) =  -636.999549774     A.U. after    8 cycles
 SCF Done:  E(RB3LYP) =  -636.999552244     A.U. after    8 cycles
 SCF Done:  E(RB3LYP) =  -636.999552876     A.U. after    7 cycles
 SCF Done:  E(RB3LYP) =  -636.999552935     A.U. after    6 cycles
 Optimization completed.
    -- Stationary point found.
 Normal termination of Gaussian 16 at Thu Dec 10 09:20:03 2020.

 --------------------------------------------------------------------
 #N Geom=AllCheck Guess=TCheck SCRF=Check GenChk RB3LYP/6-31G(d) Freq
 --------------------------------------------------------------------

 Structure from the checkpoint file:  "JID_4037.chk"
 -------------------------------
 CID_103984678_JID_4037_neutraal
 -------------------------------
 Charge =  0 Multiplicity = 1

 SCF Done:  E(RB3LYP) =  -636.999552935     A.U. after    1 cycles

  Exact polarizability: 140.112   0.162 122.827   1.142   1.331 110.088
 Approx polarizability: 175.046  -1.722 169.272   3.105   2.280 167.315

                      1                      2                      3
                      A                      A                      A
 Frequencies --     40.9061                63.3547                82.9000
 Red. masses --      3.6504                 2.8665                 3.1960
 Frc consts  --      0.0036                 0.0068                 0.0129
 IR Inten    --      0.5936                 1.0139                 0.2983

                      4                      5                      6
                      A                      A                      A
 Frequencies --    102.4766               124.9030               135.6387
 Red. masses --      2.6821                 3.4543                 3.3540
 Frc consts  --      0.0166                 0.0318                 0.0364
 IR Inten    --      0.7783                 0.9686                 0.2140

                      7                      8                      9
                      A                      A                      A
 Frequencies --    141.2435               200.1881               220.6295
 Red. masses --      2.1021                 2.9215                 1.9748
 Frc consts  --      0.0247                 0.0690                 0.0566
 IR Inten    --      6.8793                 1.0018                 2.8729

                     10                     11                     12
                      A                      A                      A
 Frequencies --    251.2711               272.8772               309.2058
 Red. masses --      1.9502                 2.1944                 4.1675
 Frc consts  --      0.0725                 0.0963                 0.2348
 IR Inten    --      2.9916                 5.4456                 0.2250

                     13                     14                     15
                      A                      A                      A
 Frequencies --    325.8441               349.5095               382.1848
 Red. masses --      2.1226                 2.2723                 2.0996
 Frc consts  --      0.1328                 0.1635                 0.1807
 IR Inten    --      1.8677                 5.4794                 1.9370

                     16                     17                     18
                      A                      A                      A
 Frequencies --    399.3495               417.6058               473.6685
 Red. masses --      2.2415                 2.3054                 2.5392
 Frc consts  --      0.2106                 0.2369                 0.3357
 IR Inten    --      4.6359                 5.9252                 2.5649

                     19                     20                     21
                      A                      A                      A
 Frequencies --    513.5780               520.8587               534.8496
 Red. masses --      2.3368                 2.8856                 3.7394
 Frc consts  --      0.3631                 0.4612                 0.6303
 IR Inten    --      0.2821                13.5392                 4.8006

                     22                     23                     24
                      A                      A                      A
 Frequencies --    632.7926               724.5768               755.9870
 Red. masses --      1.8304                 1.4667                 2.0255
 Frc consts  --      0.4318                 0.4537                 0.6821
 IR Inten    --      7.2327                39.4314                 3.8443

                     25                     26                     27
                      A                      A                      A
 Frequencies --    778.7081               811.1462               828.5107
 Red. masses --      2.5117                 1.3287                 1.5665
 Frc consts  --      0.8974                 0.5151                 0.6336
 IR Inten    --      6.8322                 4.0500                 1.1793

                     28                     29                     30
                      A                      A                      A
 Frequencies --    830.7233               864.0678               896.4714
 Red. masses --      1.5298                 3.2047                 2.2053
 Frc consts  --      0.6220                 1.4097                 1.0442
 IR Inten    --      7.8660                 7.1096                 6.1955

                     31                     32                     33
                      A                      A                      A
 Frequencies --    915.0671               930.3765               959.2407
 Red. masses --      2.5149                 2.9300                 2.3322
 Frc consts  --      1.2407                 1.4943                 1.2644
 IR Inten    --     16.2366                15.7077                 1.3671

                     34                     35                     36
                      A                      A                      A
 Frequencies --   1002.6828              1005.8815              1032.5379
 Red. masses --      2.7992                 2.2603                 1.7418
 Frc consts  --      1.6581                 1.3474                 1.0941
 IR Inten    --     18.9667                28.3674                 8.9906

                     37                     38                     39
                      A                      A                      A
 Frequencies --   1035.7481              1046.0119              1053.0517
 Red. masses --      2.1089                 1.8312                 1.5570
 Frc consts  --      1.3329                 1.1805                 1.0172
 IR Inten    --      3.0688                 1.1733                11.1119

                     40                     41                     42
                      A                      A                      A
 Frequencies --   1068.2717              1080.4747              1093.2188
 Red. masses --      1.8139                 1.8852                 1.3679
 Frc consts  --      1.2196                 1.2967                 0.9632
 IR Inten    --     16.7329                14.0259                 5.8528

                     43                     44                     45
                      A                      A                      A
 Frequencies --   1141.0262              1143.6426              1155.3025
 Red. masses --      2.5823                 1.4965                 3.2736
 Frc consts  --      1.9808                 1.1532                 2.5743
 IR Inten    --     64.4570                19.0090                68.7132

                     46                     47                     48
                      A                      A                      A
 Frequencies --   1161.9315              1188.5910              1204.8696
 Red. masses --      2.7728                 1.5717                 2.0237
 Frc consts  --      2.2057                 1.3082                 1.7309
 IR Inten    --     54.9982                19.6340                31.7093

                     49                     50                     51
                      A                      A                      A
 Frequencies --   1211.2526              1212.2608              1227.1597
 Red. masses --      1.6166                 1.5876                 2.2994
 Frc consts  --      1.3974                 1.3746                 2.0401
 IR Inten    --      4.2525                19.1318                13.7516

                     52                     53                     54
                      A                      A                      A
 Frequencies --   1233.0061              1249.3114              1273.9754
 Red. masses --      1.3424                 1.5724                 1.2261
 Frc consts  --      1.2025                 1.4459                 1.1725
 IR Inten    --     16.3461                 3.4254                23.8433

                     55                     56                     57
                      A                      A                      A
 Frequencies --   1276.3899              1292.5492              1320.7556
 Red. masses --      1.9540                 1.3841                 1.1912
 Frc consts  --      1.8756                 1.3624                 1.2243
 IR Inten    --     38.4382                11.9998                18.6830

                     58                     59                     60
                      A                      A                      A
 Frequencies --   1341.7837              1355.3528              1374.8297
 Red. masses --      1.2177                 1.4281                 1.3644
 Frc consts  --      1.2917                 1.5457                 1.5195
 IR Inten    --      1.6896                15.5320                 0.4953

                     61                     62                     63
                      A                      A                      A
 Frequencies --   1401.9454              1408.5863              1420.7353
 Red. masses --      1.2325                 1.4304                 1.4890
 Frc consts  --      1.4273                 1.6721                 1.7708
 IR Inten    --     10.8042                 6.3140                 0.7252

                     64                     65                     66
                      A                      A                      A
 Frequencies --   1432.2551              1440.2479              1449.9528
 Red. masses --      1.4022                 1.3843                 1.3616
 Frc consts  --      1.6947                 1.6918                 1.6865
 IR Inten    --     41.9136                 4.8732                 8.1393

                     67                     68                     69
                      A                      A                      A
 Frequencies --   1492.5907              1498.1297              1500.4385
 Red. masses --      1.1037                 1.1385                 1.1578
 Frc consts  --      1.4487                 1.5055                 1.5357
 IR Inten    --      4.7910                 4.7188                 4.8026

                     70                     71                     72
                      A                      A                      A
 Frequencies --   1504.2036              1514.5936              1514.7693
 Red. masses --      1.1144                 1.0519                 1.0887
 Frc consts  --      1.4856                 1.4218                 1.4718
 IR Inten    --      6.0572                 3.6123                 6.4542

                     73                     74                     75
                      A                      A                      A
 Frequencies --   1525.7234              1530.0513              1535.0962
 Red. masses --      1.0920                 1.0641                 1.1020
 Frc consts  --      1.4977                 1.4677                 1.5300
 IR Inten    --      0.6134                 9.3080                 1.7764

                     76                     77                     78
                      A                      A                      A
 Frequencies --   1544.1112              1547.7594              1555.1075
 Red. masses --      1.1435                 1.2510                 1.1328
 Frc consts  --      1.6064                 1.7656                 1.6141
 IR Inten    --      6.0609                13.1311                14.4733

                     79                     80                     81
                      A                      A                      A
 Frequencies --   2968.1658              2980.4165              2981.7603
 Red. masses --      1.0726                 1.0596                 1.0698
 Frc consts  --      5.5676                 5.5458                 5.6039
 IR Inten    --     44.3143                17.2958                80.2448

                     82                     83                     84
                      A                      A                      A
 Frequencies --   2995.1896              3034.1704              3038.8420
 Red. masses --      1.0409                 1.0988                 1.1052
 Frc consts  --      5.5017                 5.9601                 6.0130
 IR Inten    --     81.3186                65.5413                32.4659

                     85                     86                     87
                      A                      A                      A
 Frequencies --   3044.6440              3049.5277              3054.9639
 Red. masses --      1.0631                 1.0629                 1.0680
 Frc consts  --      5.8062                 5.8239                 5.8725
 IR Inten    --     13.2818                54.8530                40.3572

                     88                     89                     90
                      A                      A                      A
 Frequencies --   3096.8932              3097.7100              3102.5651
 Red. masses --      1.0993                 1.0992                 1.0919
 Frc consts  --      6.2117                 6.2144                 6.1925
 IR Inten    --     30.3445                26.6550                46.8157

                     91                     92                     93
                      A                      A                      A
 Frequencies --   3105.0375              3120.6960              3134.7719
 Red. masses --      1.0929                 1.0950                 1.0973
 Frc consts  --      6.2083                 6.2832                 6.3529
 IR Inten    --     57.7409                15.4440                31.5113

                     94                     95                     96
                      A                      A                      A
 Frequencies --   3141.5960              3147.4020              3154.4243
 Red. masses --      1.0533                 1.0627                 1.0839
 Frc consts  --      6.1252                 6.2023                 6.3546
 IR Inten    --     17.2539                10.7040                28.5364

                     97                     98                     99
                      A                      A                      A
 Frequencies --   3218.9293              3236.8330              3516.2441
 Red. masses --      1.1182                 1.1147                 1.0748
 Frc consts  --      6.8267                 6.8811                 7.8298
 IR Inten    --     15.1286                11.7562                 0.2943

 - Thermochemistry -
 -------------------
 Temperature   298.150 Kelvin.  Pressure   1.00000 Atm.
 Atom     1 has atomic number  6 and mass  12.00000

 Molecular mass:   199.15723 amu.
 Principal axes and moments of inertia in atomic units:
                           1         2         3
     Eigenvalues --  1907.445933817.054354848.00105
           X            0.99998   0.00554   0.00023
           Y           -0.00554   0.99990  -0.01294
           Z           -0.00030   0.01294   0.99992
 This molecule is an asymmetric top.
 Rotational symmetry number  1.
 Warning -- assumption of classical behavior for rotation
           may cause significant error
 Rotational temperatures (Kelvin)      0.04541     0.02269     0.01787
 Rotational constants (GHZ):           0.94616     0.47281     0.37227
 Zero-point vibrational energy     835051.2 (Joules/Mol)
                                  199.58203 (Kcal/Mol)
 Warning -- explicit consideration of  21 degrees of freedom as
           vibrations may cause significant error
 Vibrational temperatures:     58.85    91.15   119.27   147.44   179.71
          (Kelvin)            195.15   203.22   288.03   317.44   361.52
                              392.61   444.88   468.82   502.87   549.88
                              574.57   600.84   681.50   738.92   749.40
                              769.53   910.45  1042.50  1087.70  1120.39
                             1167.06  1192.04  1195.23  1243.20  1289.82
                             1316.58  1338.60  1380.13  1442.64  1447.24
                             1485.59  1490.21  1504.98  1515.11  1537.00
                             1554.56  1572.90  1641.68  1645.45  1662.22
                             1671.76  1710.12  1733.54  1742.72  1744.17
                             1765.61  1774.02  1797.48  1832.97  1836.44
                             1859.69  1900.27  1930.53  1950.05  1978.07
                             2017.09  2026.64  2044.12  2060.70  2072.20
                             2086.16  2147.51  2155.47  2158.80  2164.21
                             2179.16  2179.42  2195.18  2201.40  2208.66
                             2221.63  2226.88  2237.45  4270.53  4288.15
                             4290.09  4309.41  4365.49  4372.22  4380.56
                             4387.59  4395.41  4455.74  4456.91  4463.90
                             4467.46  4489.99  4510.24  4520.06  4528.41
                             4538.51  4631.32  4657.08  5059.09

 Zero-point correction=                           0.318054 (Hartree/Particle)
 Thermal correction to Energy=                    0.332582
 Thermal correction to Enthalpy=                  0.333526
 Thermal correction to Gibbs Free Energy=         0.276620
 Sum of electronic and zero-point Energies=           -636.681499
 Sum of electronic and thermal Energies=              -636.666971
 Sum of electronic and thermal Enthalpies=            -636.666027
 Sum of electronic and thermal Free Energies=         -636.722933

                     E (Thermal)             CV                S
                      KCal/Mol        Cal/Mol-Kelvin    Cal/Mol-Kelvin
 Total                  208.698             55.987            119.767
 Electronic               0.000              0.000              0.000
 Translational            0.889              2.981             41.772
 Rotational               0.889              2.981             31.935
 Vibrational            206.921             50.025             46.061
 Vibration     1          0.594              1.981              5.215
 Vibration     2          0.597              1.972              4.350
 Vibration     3          0.600              1.961              3.821
 Vibration     4          0.605              1.947              3.407
 Vibration     5          0.610              1.928              3.023
 Vibration     6          0.613              1.918              2.864
 Vibration     7          0.615              1.912              2.787
 Vibration     8          0.638              1.840              2.131
 Vibration     9          0.647              1.810              1.954
 Vibration    10          0.663              1.761              1.722
 Vibration    11          0.676              1.723              1.578
 Vibration    12          0.699              1.656              1.367
 Vibration    13          0.710              1.624              1.281
 Vibration    14          0.727              1.576              1.168
 Vibration    15          0.752              1.508              1.031
 Vibration    16          0.765              1.472              0.965
 Vibration    17          0.781              1.432              0.900
 Vibration    18          0.830              1.308              0.727
 Vibration    19          0.869              1.220              0.625
 Vibration    20          0.876              1.204              0.608
 Vibration    21          0.890              1.173              0.576

 Optimization completed.
    -- Stationary point found.
 Normal termination of Gaussian 16 at Thu Dec 10 09:30:56 2020.

 ----------------------------------------------------------------------
 # B3LYP/6-311++G(d,p) empiricaldispersion=gd3bj scf=xqc pop=npa geom=c
 heck
 ----------------------------------------------------------------------

 ---------------------------------------
 CID_103984678_JID_4037_Energie_neutraal
 ---------------------------------------
 Structure from the checkpoint file:  "JID_4037.chk"
 Charge =  0 Multiplicity = 1

 SCF Done:  E(RB3LYP) =  -637.184317410     A.U. after   13 cycles
 Normal termination of Gaussian 16 at Thu Dec 10 09:35:12 2020.

 ----------------------------------------------------------------------
 # B3LYP/6-311++G(d,p) empiricaldispersion=gd3bj scf=xqc pop=npa geom=c
 heck
 ----------------------------------------------------------------------

 -------------------------------------
 CID_103984678_JID_4037_Energie_kation
 -------------------------------------
 Structure from the checkpoint file:  "JID_4037.chk"
 Charge =  1 Multiplicity = 2

 SCF Done:  E(UB3LYP) =  -636.898990523     A.U. after   22 cycles
 Normal termination of Gaussian 16 at Thu Dec 10 09:45:03 2020.
 Gaussian 16:  ES64L-G16RevA.03 25-Dec-2016

 ----------------------------------------------------------------------
 # B3LYP/6-311++G(d,p) empiricaldispersion=gd3bj scf=xqc pop=npa geom=c
 heck
 ----------------------------------------------------------------------

 ------------------------------------
 CID_103984678_JID_4037_Energie_anion
 ------------------------------------
 Structure from the checkpoint file:  "JID_4037.chk"
 Charge = -1 Multiplicity = 2

                         Standard orientation:
 ---------------------------------------------------------------------
 Center     Atomic      Atomic             Coordinates (Angstroms)
 Number     Number       Type             X           Y           Z
 ---------------------------------------------------------------------
      1          6           0        1.755707    3.027634   -0.194552
      2          8           0        0.921804    1.995322    0.283685
      3          6           0        0.178985    1.375655   -0.757439
      4          6           0       -0.718871    0.285597   -0.170121
      5          6           0       -1.606576   -0.269829   -1.303623
      6          6           0       -2.741528   -1.143304   -0.771140
      7          8           0       -3.544235   -0.448929    0.173519
      8          6           0       -2.782748   -0.046001    1.304342
      9          6           0       -1.633540    0.887598    0.919901
     10          6           0        0.176299   -0.826634    0.433771
     11          7           0        0.978765   -1.513105   -0.585611
     12          6           0        2.414571   -1.589980   -0.413677
     13          6           0        3.219443   -0.453087    0.138464
     14          6           0        3.127689   -1.756178    0.913291
     15          1           0        2.279894    3.448120    0.667661
     16          1           0        1.171389    3.823520   -0.683145
     17          1           0        2.496426    2.648682   -0.916327
     18          1           0       -0.439832    2.132764   -1.267759
     19          1           0        0.859951    0.932492   -1.499964
     20          1           0       -2.055493    0.567552   -1.853438
     21          1           0       -0.987365   -0.836653   -2.008119
     22          1           0       -3.414918   -1.440024   -1.580857
     23          1           0       -2.343786   -2.067090   -0.314639
     24          1           0       -2.405338   -0.937578    1.833751
     25          1           0       -3.483391    0.461481    1.974293
     26          1           0       -1.047227    1.147976    1.808436
     27          1           0       -2.065115    1.821905    0.538285
     28          1           0        0.815793   -0.357741    1.185783
     29          1           0       -0.444992   -1.549478    0.974934
     30          1           0        0.625029   -2.455903   -0.716808
     31          1           0        2.862721   -2.114902   -1.254857
     32          1           0        4.156167   -0.205814   -0.354160
     33          1           0        2.683089    0.405069    0.531559
     34          1           0        2.527653   -1.750872    1.819519
     35          1           0        4.000854   -2.401737    0.962194
 ---------------------------------------------------------------------

 SCF Done:  E(UB3LYP) =  -637.168707100     A.U. after   32 cycles

 The electronic state is 2-A.
 Alpha  occ. eigenvalues --  -19.03157 -19.02840 -14.19739 -10.12157 -10.11795
 Alpha  occ. eigenvalues --  -10.11660 -10.11318 -10.09819 -10.09111 -10.08451
 Alpha  occ. eigenvalues --  -10.07067 -10.06660 -10.06262 -10.06137  -0.94467
 Alpha  occ. eigenvalues --   -0.94285  -0.81411  -0.73901  -0.71091  -0.66943
 Alpha  occ. eigenvalues --   -0.62651  -0.58832  -0.56139  -0.54269  -0.50650
 Alpha  occ. eigenvalues --   -0.49872  -0.47329  -0.43945  -0.41685  -0.40315
 Alpha  occ. eigenvalues --   -0.39430  -0.38913  -0.38306  -0.37355  -0.36054
 Alpha  occ. eigenvalues --   -0.35554  -0.35145  -0.33249  -0.32160  -0.29798
 Alpha  occ. eigenvalues --   -0.29465  -0.28070  -0.27870  -0.26384  -0.26108
 Alpha  occ. eigenvalues --   -0.25166  -0.24737  -0.23201  -0.22252  -0.21468
 Alpha  occ. eigenvalues --   -0.20881  -0.19186  -0.16810  -0.16248  -0.11125
 Alpha  occ. eigenvalues --    0.04432
 Alpha virt. eigenvalues --    0.06194   0.06803   0.07335   0.08089   0.08693
 Alpha virt. eigenvalues --    0.08881   0.09481   0.09898   0.10691   0.11208
 Alpha virt. eigenvalues --    0.11450   0.11948   0.12541   0.12848   0.13358

  Beta  occ. eigenvalues --  -19.03151 -19.02833 -14.19719 -10.12147 -10.11774
  Beta  occ. eigenvalues --  -10.11628 -10.11309 -10.09805 -10.09098 -10.08449
  Beta  occ. eigenvalues --  -10.07062 -10.06650 -10.06245 -10.06122  -0.94457
  Beta  occ. eigenvalues --   -0.94272  -0.81374  -0.73880  -0.71065  -0.66921
  Beta  occ. eigenvalues --   -0.62622  -0.58795  -0.56091  -0.54240  -0.50605
  Beta  occ. eigenvalues --   -0.49817  -0.47286  -0.43906  -0.41643  -0.40284
  Beta  occ. eigenvalues --   -0.39394  -0.38891  -0.38272  -0.37314  -0.36025
  Beta  occ. eigenvalues --   -0.35520  -0.35121  -0.33221  -0.32141  -0.29769
  Beta  occ. eigenvalues --   -0.29440  -0.28050  -0.27836  -0.26358  -0.26081
  Beta  occ. eigenvalues --   -0.25140  -0.24716  -0.23172  -0.22236  -0.21444
  Beta  occ. eigenvalues --   -0.20861  -0.19154  -0.16795  -0.16216  -0.11101
  Beta virt. eigenvalues --    0.06520   0.07162   0.07480   0.07720   0.08658
  Beta virt. eigenvalues --    0.09187   0.09305   0.09965   0.10122   0.11066
  Beta virt. eigenvalues --    0.11693   0.11747   0.12226   0.12691   0.13159

 Mulliken charges and spin densities:
               1          2
     1  C    0.523387  -0.793164
     2  O   -0.093058   0.023917
     3  C   -1.278655   0.481437
     4  C    0.533650   0.489001
     5  C   -0.938648   0.788666
     6  C    0.296520  -0.862864
     7  O   -0.147925   0.043809
     8  C    0.276908  -0.799819
     9  C   -0.349224   0.181614
    10  C    1.673064  -2.713896
    11  N   -0.200239   0.245435
    12  C   -1.169459   1.009001
    13  C    0.307566  -0.645256
    14  C    1.132725  -1.431093
    15  H   -0.198476   0.344494
    16  H   -0.344812   0.469702
    17  H   -0.161377   0.304095
    18  H   -0.026111   0.178810
    19  H    0.136096   0.037560
    20  H    0.053285   0.098796
    21  H    0.018565   0.157150
    22  H   -0.219662   0.420586
    23  H   -0.214599   0.374020
    24  H   -0.062218   0.192283
    25  H    0.125539   0.064406
    26  H   -0.016165   0.162186
    27  H    0.124159   0.062328
    28  H    0.235419  -0.117608
    29  H    0.245815  -0.092938
    30  H   -0.192889   0.458426
    31  H   -0.684708   0.897340
    32  H   -0.464112   0.631587
    33  H    0.457950  -0.332684
    34  H   -0.144664   0.279590
    35  H   -0.233649   0.393081
 Sum of Mulliken charges =  -1.00000   1.00000

 Dipole moment (field-independent basis, Debye):
    X=             -3.9663    Y=              2.0961    Z=              2.2438  Tot=              5.0159
 Quadrupole moment (field-independent basis, Debye-Ang):
   XX=           -162.4196   YY=           -147.5395   ZZ=           -119.7642
   XY=              0.3268   XZ=              2.4711   YZ=             -2.0800

 Summary of Natural Population Analysis:

                                       Natural Population
                Natural  -----------------------------------------------
    Atom  No    Charge         Core      Valence    Rydberg      Total
 -----------------------------------------------------------------------
      C    1   -0.09710      0.99962     2.08824    0.00925     3.09710
      O    2   -0.30312      0.99988     3.29446    0.00878     4.30312
      C    3   -0.00668      0.99950     1.99401    0.01317     3.00668
      C    4   -0.05041      0.99954     2.03622    0.01464     3.05041
      C    5   -0.20823      0.99958     2.19830    0.01034     3.20823
      C    6   -0.00950      0.99958     1.99626    0.01367     3.00950
      O    7   -0.30203      0.99989     3.29304    0.00910     4.30203
      C    8   -0.00769      0.99958     1.99676    0.01135     3.00769
      C    9   -0.20430      0.99958     2.19564    0.00908     3.20430
      C   10   -0.09409      0.99955     2.08029    0.01426     3.09409
      N   11   -0.34462      0.99972     2.83132    0.01357     3.84462
      C   12   -0.00839      0.99957     1.99471    0.01410     3.00839
      C   13   -0.21225      0.99961     2.20270    0.00994     3.21225
      C   14   -0.21371      0.99963     2.20685    0.00722     3.21371
      H   15    0.08997      0.00000     0.40894    0.00109     0.41003
      H   16    0.07912      0.00000     0.41927    0.00161     0.42088
      H   17    0.08094      0.00000     0.41758    0.00148     0.41906
      H   18    0.08050      0.00000     0.41804    0.00146     0.41950
      H   19    0.09237      0.00000     0.40582    0.00181     0.40763
      H   20    0.09798      0.00000     0.40075    0.00128     0.40202
      H   21    0.11360      0.00000     0.38493    0.00147     0.38640
      H   22    0.09092      0.00000     0.40790    0.00118     0.40908
      H   23    0.07772      0.00000     0.42048    0.00181     0.42228
      H   24    0.07656      0.00000     0.42189    0.00155     0.42344
      H   25    0.08874      0.00000     0.41011    0.00116     0.41126
      H   26    0.10771      0.00000     0.39102    0.00127     0.39229
      H   27    0.10022      0.00000     0.39855    0.00124     0.39978
      H   28    0.09955      0.00000     0.39781    0.00264     0.40045
      H   29    0.09256      0.00000     0.40580    0.00165     0.40744
      H   30    0.18010      0.00000     0.31580    0.00410     0.31990
      H   31    0.10032      0.00000     0.39757    0.00210     0.39968
      H   32    0.10263      0.00000     0.39606    0.00131     0.39737
      H   33    0.10954      0.00000     0.38843    0.00202     0.39046
      H   34    0.09943      0.00000     0.39961    0.00097     0.40057
      H   35    0.10165      0.00000     0.39705    0.00130     0.39835
 =======================================================================
   * Total *    0.00000     13.99482    40.81221    0.19297    55.00000

 Normal termination of Gaussian 16 at Thu Dec 10 09:59:51 2020.
