 Gaussian 16, Revision A.03,

 -----------------------------------------------------------
 # opt freq B3LYP/6-31G(d) empiricaldispersion=gd3bj scf=xqc
 -----------------------------------------------------------

 ------------------------------
 CID_72232920_JID_3261_neutraal
 ------------------------------
 Symbolic Z-matrix:
 Charge =  0 Multiplicity = 1

 SCF Done:  E(RB3LYP) =  -592.870984567     A.U. after   15 cycles
 SCF Done:  E(RB3LYP) =  -592.875498282     A.U. after   13 cycles
 SCF Done:  E(RB3LYP) =  -592.873280930     A.U. after   14 cycles
 SCF Done:  E(RB3LYP) =  -592.878060721     A.U. after   14 cycles
 SCF Done:  E(RB3LYP) =  -592.878879786     A.U. after   13 cycles
 SCF Done:  E(RB3LYP) =  -592.879360655     A.U. after   13 cycles
 SCF Done:  E(RB3LYP) =  -592.879500440     A.U. after   11 cycles
 SCF Done:  E(RB3LYP) =  -592.879530534     A.U. after   10 cycles
 SCF Done:  E(RB3LYP) =  -592.879536185     A.U. after   10 cycles
 SCF Done:  E(RB3LYP) =  -592.879538173     A.U. after    9 cycles
 SCF Done:  E(RB3LYP) =  -592.879538780     A.U. after    9 cycles
 SCF Done:  E(RB3LYP) =  -592.879539039     A.U. after    8 cycles
 SCF Done:  E(RB3LYP) =  -592.879539098     A.U. after    7 cycles
 Optimization completed.
    -- Stationary point found.
 Normal termination of Gaussian 16 at Wed Dec  9 22:30:25 2020.

 --------------------------------------------------------------------
 #N Geom=AllCheck Guess=TCheck SCRF=Check GenChk RB3LYP/6-31G(d) Freq
 --------------------------------------------------------------------

 Structure from the checkpoint file:  "JID_3261.chk"
 ------------------------------
 CID_72232920_JID_3261_neutraal
 ------------------------------
 Charge =  0 Multiplicity = 1

 SCF Done:  E(RB3LYP) =  -592.879539098     A.U. after    1 cycles

  Exact polarizability: 179.302   1.247 122.802  -5.890   3.697  57.303
 Approx polarizability: 255.494  14.152 212.189 -12.790   8.366  87.133

                      1                      2                      3
                      A                      A                      A
 Frequencies --     46.4423                67.7089               108.9238
 Red. masses --      4.4978                 3.2795                 5.3340
 Frc consts  --      0.0057                 0.0089                 0.0373
 IR Inten    --      0.5814                 2.2137                 2.7150

                      4                      5                      6
                      A                      A                      A
 Frequencies --    132.2435               147.6510               212.9324
 Red. masses --      3.3638                 2.4539                 3.9828
 Frc consts  --      0.0347                 0.0315                 0.1064
 IR Inten    --      3.7986                 2.9514                 6.1831

                      7                      8                      9
                      A                      A                      A
 Frequencies --    230.4500               281.0663               301.0261
 Red. masses --      5.2021                 2.0635                 4.0667
 Frc consts  --      0.1628                 0.0960                 0.2171
 IR Inten    --      4.3236                 5.8272                 1.9570

                     10                     11                     12
                      A                      A                      A
 Frequencies --    334.5879               356.1930               400.9600
 Red. masses --      3.4334                 1.7118                 3.4195
 Frc consts  --      0.2265                 0.1280                 0.3239
 IR Inten    --      1.2388                15.2298                 4.9756

                     13                     14                     15
                      A                      A                      A
 Frequencies --    439.8157               471.7392               534.2000
 Red. masses --      3.1956                 2.7947                 4.1333
 Frc consts  --      0.3642                 0.3664                 0.6949
 IR Inten    --      6.0981                16.5883               100.8380

                     16                     17                     18
                      A                      A                      A
 Frequencies --    556.9808               588.9499               627.4499
 Red. masses --      1.4823                 3.7834                 5.3210
 Frc consts  --      0.2709                 0.7732                 1.2342
 IR Inten    --    206.8243                 5.2160                27.4624

                     19                     20                     21
                      A                      A                      A
 Frequencies --    656.8668               717.1830               751.6036
 Red. masses --      4.4334                 3.3268                 2.6772
 Frc consts  --      1.1270                 1.0082                 0.8911
 IR Inten    --     25.3475                 3.1425                 0.8733

                     22                     23                     24
                      A                      A                      A
 Frequencies --    773.8866               810.5047               830.8358
 Red. masses --      1.4154                 1.3918                 2.9717
 Frc consts  --      0.4994                 0.5387                 1.2086
 IR Inten    --      2.9549                13.8283                25.2019

                     25                     26                     27
                      A                      A                      A
 Frequencies --    835.1999               846.8235               854.7667
 Red. masses --      1.8500                 1.6552                 2.0761
 Frc consts  --      0.7603                 0.6993                 0.8937
 IR Inten    --     20.6085                46.8358                 2.5512

                     28                     29                     30
                      A                      A                      A
 Frequencies --    967.7785               972.4316              1002.7387
 Red. masses --      3.0362                 1.3050                 2.9497
 Frc consts  --      1.6755                 0.7271                 1.7474
 IR Inten    --      4.4505                 2.0517                17.7705

                     31                     32                     33
                      A                      A                      A
 Frequencies --   1016.4383              1021.3710              1068.2931
 Red. masses --      1.7961                 2.1983                 1.4425
 Frc consts  --      1.0933                 1.3511                 0.9700
 IR Inten    --      0.3470                19.9598                15.1141

                     34                     35                     36
                      A                      A                      A
 Frequencies --   1082.7720              1104.5499              1134.7380
 Red. masses --      1.4325                 1.5886                 1.2135
 Frc consts  --      0.9895                 1.1419                 0.9206
 IR Inten    --      1.2212                 6.2179                 1.2612

                     37                     38                     39
                      A                      A                      A
 Frequencies --   1158.7771              1189.4521              1205.6131
 Red. masses --      1.3692                 1.7477                 1.3477
 Frc consts  --      1.0832                 1.4569                 1.1542
 IR Inten    --     92.1119                10.7190                 0.1218

                     40                     41                     42
                      A                      A                      A
 Frequencies --   1230.7481              1247.4581              1259.7071
 Red. masses --      2.2093                 2.3165                 2.2015
 Frc consts  --      1.9717                 2.1239                 2.0583
 IR Inten    --     82.6689                54.1378                88.6945

                     43                     44                     45
                      A                      A                      A
 Frequencies --   1310.0398              1339.4973              1386.4372
 Red. masses --      2.1803                 2.4725                 3.8724
 Frc consts  --      2.2046                 2.6137                 4.3856
 IR Inten    --    269.0207               212.1003                 8.3379

                     46                     47                     48
                      A                      A                      A
 Frequencies --   1411.1167              1472.4470              1481.3637
 Red. masses --      1.6645                 1.3301                 1.0929
 Frc consts  --      1.9528                 1.6991                 1.4131
 IR Inten    --     72.2462                19.3438                 1.7585

                     49                     50                     51
                      A                      A                      A
 Frequencies --   1500.9615              1525.6047              1550.3057
 Red. masses --      4.2779                 1.4230                 2.8200
 Frc consts  --      5.6783                 1.9514                 3.9932
 IR Inten    --     31.3602                44.0053                42.9907

                     52                     53                     54
                      A                      A                      A
 Frequencies --   1620.4515              1672.0452              1700.6237
 Red. masses --      6.3928                 4.6125                 1.2452
 Frc consts  --      9.8904                 7.5977                 2.1219
 IR Inten    --     64.7475               410.2838               187.1805

                     55                     56                     57
                      A                      A                      A
 Frequencies --   1775.3673              2900.1222              3149.5075
 Red. masses --      9.0457                 1.0810                 1.0822
 Frc consts  --     16.7983                 5.3568                 6.3249
 IR Inten    --    265.5477               173.2536                18.2520

                     58                     59                     60
                      A                      A                      A
 Frequencies --   3155.7945              3161.2997              3199.1999
 Red. masses --      1.0544                 1.0629                 1.0905
 Frc consts  --      6.1867                 6.2587                 6.5759
 IR Inten    --      8.8030                11.3234                 7.8806

                     61                     62                     63
                      A                      A                      A
 Frequencies --   3216.1107              3236.2911              3248.1006
 Red. masses --      1.0891                 1.1201                 1.0925
 Frc consts  --      6.6374                 6.9118                 6.7912
 IR Inten    --      0.3614                 0.7914                 8.1739

                     64                     65                     66
                      A                      A                      A
 Frequencies --   3249.2559              3576.4399              3676.9365
 Red. masses --      1.1160                 1.0484                 1.0982
 Frc consts  --      6.9420                 7.9011                 8.7476
 IR Inten    --     11.7269                21.5909                14.2940

 - Thermochemistry -
 -------------------
 Temperature   298.150 Kelvin.  Pressure   1.00000 Atm.
 Atom     1 has atomic number  6 and mass  12.00000

 Molecular mass:   177.07898 amu.
 Principal axes and moments of inertia in atomic units:
                           1         2         3
     Eigenvalues --   953.809884431.076025249.95701
           X            0.99978  -0.02084   0.00212
           Y            0.02084   0.99978   0.00110
           Z           -0.00214  -0.00105   1.00000
 This molecule is an asymmetric top.
 Rotational symmetry number  1.
 Warning -- assumption of classical behavior for rotation
           may cause significant error
 Rotational temperatures (Kelvin)      0.09081     0.01955     0.01650
 Rotational constants (GHZ):           1.89214     0.40729     0.34376
 Zero-point vibrational energy     508982.2 (Joules/Mol)
                                  121.64966 (Kcal/Mol)
 Warning -- explicit consideration of  17 degrees of freedom as
           vibrations may cause significant error
 Vibrational temperatures:     66.82    97.42   156.72   190.27   212.44
          (Kelvin)            306.36   331.57   404.39   433.11   481.40
                              512.48   576.89   632.80   678.73   768.59
                              801.37   847.37   902.76   945.08  1031.87
                             1081.39  1113.45  1166.14  1195.39  1201.67
                             1218.39  1229.82  1392.42  1399.11  1442.72
                             1462.43  1469.53  1537.04  1557.87  1589.20
                             1632.63  1667.22  1711.36  1734.61  1770.77
                             1794.81  1812.44  1884.86  1927.24  1994.77
                             2030.28  2118.52  2131.35  2159.55  2195.00
                             2230.54  2331.47  2405.70  2446.82  2554.36
                             4172.63  4531.44  4540.48  4548.41  4602.94
                             4627.27  4656.30  4673.29  4674.95  5145.70
                             5290.29

 Zero-point correction=                           0.193861 (Hartree/Particle)
 Thermal correction to Energy=                    0.205763
 Thermal correction to Enthalpy=                  0.206708
 Thermal correction to Gibbs Free Energy=         0.155464
 Sum of electronic and zero-point Energies=           -592.685678
 Sum of electronic and thermal Energies=              -592.673776
 Sum of electronic and thermal Enthalpies=            -592.672832
 Sum of electronic and thermal Free Energies=         -592.724075

                     E (Thermal)             CV                S
                      KCal/Mol        Cal/Mol-Kelvin    Cal/Mol-Kelvin
 Total                  129.118             45.673            107.850
 Electronic               0.000              0.000              0.000
 Translational            0.889              2.981             41.421
 Rotational               0.889              2.981             31.473
 Vibrational            127.341             39.711             34.955
 Vibration     1          0.595              1.979              4.963
 Vibration     2          0.598              1.970              4.219
 Vibration     3          0.606              1.942              3.288
 Vibration     4          0.612              1.921              2.913
 Vibration     5          0.617              1.905              2.702
 Vibration     6          0.644              1.821              2.018
 Vibration     7          0.652              1.794              1.875
 Vibration     8          0.681              1.709              1.527
 Vibration     9          0.693              1.672              1.411
 Vibration    10          0.716              1.606              1.238
 Vibration    11          0.732              1.563              1.139
 Vibration    12          0.767              1.468              0.959
 Vibration    13          0.800              1.383              0.827
 Vibration    14          0.829              1.313              0.733
 Vibration    15          0.889              1.174              0.578
 Vibration    16          0.912              1.124              0.530
 Vibration    17          0.946              1.055              0.469

                           ! Non-Optimized Parameters !
 Normal termination of Gaussian 16 at Wed Dec  9 22:36:06 2020.

 ----------------------------------------------------------------------
 # B3LYP/6-311++G(d,p) empiricaldispersion=gd3bj scf=xqc pop=npa geom=c
 heck
 ----------------------------------------------------------------------

 --------------------------------------
 CID_72232920_JID_3261_Energie_neutraal
 --------------------------------------
 Structure from the checkpoint file:  "JID_3261.chk"
 Charge =  0 Multiplicity = 1

 SCF Done:  E(RB3LYP) =  -593.050448744     A.U. after   15 cycles
 Normal termination of Gaussian 16 at Wed Dec  9 22:38:40 2020.

 ----------------------------------------------------------------------
 # B3LYP/6-311++G(d,p) empiricaldispersion=gd3bj scf=xqc pop=npa geom=c
 heck
 ----------------------------------------------------------------------

 ------------------------------------
 CID_72232920_JID_3261_Energie_kation
 ------------------------------------
 Structure from the checkpoint file:  "JID_3261.chk"
 Charge =  1 Multiplicity = 2

 SCF Done:  E(UB3LYP) =  -592.754702773     A.U. after   27 cycles
 Normal termination of Gaussian 16 at Wed Dec  9 22:45:13 2020.
 Gaussian 16:  ES64L-G16RevA.03 25-Dec-2016

 ----------------------------------------------------------------------
 # B3LYP/6-311++G(d,p) empiricaldispersion=gd3bj scf=xqc pop=npa geom=c
 heck
 ----------------------------------------------------------------------

 -----------------------------------
 CID_72232920_JID_3261_Energie_anion
 -----------------------------------
 Structure from the checkpoint file:  "JID_3261.chk"
 Charge = -1 Multiplicity = 2

                         Standard orientation:
 ---------------------------------------------------------------------
 Center     Atomic      Atomic             Coordinates (Angstroms)
 Number     Number       Type             X           Y           Z
 ---------------------------------------------------------------------
      1          6           0        4.350702    0.120205    0.114936
      2          6           0        3.507355   -0.979716    0.727611
      3          6           0        3.012099   -0.204241   -0.461405
      4          8           0        2.023098    0.777646   -0.259593
      5          6           0        0.724527    0.370167   -0.182420
      6          6           0       -0.212832    1.391996   -0.036953
      7          6           0       -1.580471    1.107974    0.049721
      8          6           0       -2.003135   -0.249012   -0.008060
      9          6           0       -1.033714   -1.253033   -0.167965
     10          6           0        0.318552   -0.974581   -0.255018
     11          6           0       -3.405148   -0.652130    0.121655
     12          8           0       -3.811767   -1.801238    0.037787
     13          7           0       -2.476776    2.153134    0.237901
     14          1           0        5.234291   -0.149614   -0.455560
     15          1           0        4.426817    1.054002    0.663279
     16          1           0        3.803950   -2.014823    0.583319
     17          1           0        3.027578   -0.770342    1.678636
     18          1           0        2.948776   -0.694751   -1.431272
     19          1           0        0.143076    2.417245    0.002532
     20          1           0       -1.390859   -2.277077   -0.211492
     21          1           0        1.044102   -1.769972   -0.361744
     22          1           0       -4.132522    0.163911    0.326619
     23          1           0       -3.413413    2.021651   -0.115712
     24          1           0       -2.112622    3.070798    0.017925
 ---------------------------------------------------------------------

 SCF Done:  E(UB3LYP) =  -593.054373690     A.U. after   33 cycles
 SCF Done:  E(UB3LYP) =  -593.054373690     a.u. after    1 cycles

 The electronic state is 2-A.
 Alpha  occ. eigenvalues --  -19.03671 -18.92857 -14.20057 -10.12892 -10.09322
 Alpha  occ. eigenvalues --  -10.08454 -10.07882 -10.07717 -10.06864 -10.03095
 Alpha  occ. eigenvalues --  -10.03041 -10.02509 -10.01999  -0.95652  -0.86405
 Alpha  occ. eigenvalues --   -0.80075  -0.76099  -0.70118  -0.61773  -0.60048
 Alpha  occ. eigenvalues --   -0.53429  -0.51385  -0.48973  -0.46875  -0.43261
 Alpha  occ. eigenvalues --   -0.42561  -0.40086  -0.39561  -0.35954  -0.34285
 Alpha  occ. eigenvalues --   -0.32707  -0.32171  -0.29562  -0.29129  -0.27686
 Alpha  occ. eigenvalues --   -0.27387  -0.25815  -0.24984  -0.24438  -0.22131
 Alpha  occ. eigenvalues --   -0.21846  -0.20325  -0.18609  -0.16743  -0.10212
 Alpha  occ. eigenvalues --   -0.08975  -0.08375   0.04581
 Alpha virt. eigenvalues --    0.06464   0.07722   0.08798   0.08950   0.10070
 Alpha virt. eigenvalues --    0.11057   0.12426   0.12531   0.12626   0.13078
 Alpha virt. eigenvalues --    0.14632   0.14874   0.15719   0.15783   0.16703

  Beta  occ. eigenvalues --  -19.03632 -18.92392 -14.20035 -10.12883 -10.09038
  Beta  occ. eigenvalues --  -10.08348 -10.07866 -10.07706 -10.06579 -10.03141
  Beta  occ. eigenvalues --  -10.03137 -10.02260 -10.02004  -0.95514  -0.85553
  Beta  occ. eigenvalues --   -0.79974  -0.76042  -0.69906  -0.61443  -0.59875
  Beta  occ. eigenvalues --   -0.53163  -0.51330  -0.48572  -0.46719  -0.43044
  Beta  occ. eigenvalues --   -0.42203  -0.39993  -0.39451  -0.35827  -0.34169
  Beta  occ. eigenvalues --   -0.32567  -0.32027  -0.29155  -0.29003  -0.27586
  Beta  occ. eigenvalues --   -0.27058  -0.25297  -0.24563  -0.24216  -0.21699
  Beta  occ. eigenvalues --   -0.20430  -0.20033  -0.18456  -0.16121  -0.09485
  Beta  occ. eigenvalues --   -0.08571  -0.07702
  Beta virt. eigenvalues --    0.07032   0.07743   0.08846   0.09070   0.10055
  Beta virt. eigenvalues --    0.10413   0.11097   0.12420   0.12587   0.12814
  Beta virt. eigenvalues --    0.13219   0.14658   0.14933   0.15644   0.15774

 Mulliken charges and spin densities:
               1          2
     1  C    0.273401  -0.722593
     2  C   -0.007637  -0.168359
     3  C   -0.496262   0.333672
     4  O   -0.057660   0.010346
     5  C    0.029877  -0.004904
     6  C   -0.739539   0.101993
     7  C   -1.306609   0.246271
     8  C    1.725186  -0.026624
     9  C   -0.214542   0.245084
    10  C    0.045516  -0.152976
    11  C   -0.220095   0.008655
    12  O   -0.400684   0.156386
    13  N   -0.238650  -0.038118
    14  H   -0.238774   0.379904
    15  H    0.139164  -0.001340
    16  H   -0.074351   0.207356
    17  H    0.153688   0.018993
    18  H   -0.014064   0.217895
    19  H    0.072530   0.023542
    20  H    0.159155  -0.003003
    21  H    0.123995   0.017892
    22  H    0.020099  -0.045128
    23  H    0.093541   0.146825
    24  H    0.172716   0.048229
 Sum of Mulliken charges =  -1.00000   1.00000

 Dipole moment (field-independent basis, Debye):
    X=              4.1824    Y=              4.2687    Z=              0.2727  Tot=              5.9823
 Quadrupole moment (field-independent basis, Debye-Ang):
   XX=           -147.6192   YY=            -95.0737   ZZ=            -89.7747
   XY=            -11.9845   XZ=              4.3299   YZ=             -1.0126

 Summary of Natural Population Analysis:

                                       Natural Population
                Natural  -----------------------------------------------
    Atom  No    Charge         Core      Valence    Rydberg      Total
 -----------------------------------------------------------------------
      C    1   -0.20634      0.99962     2.19819    0.00853     3.20634
      C    2   -0.21283      0.99963     2.20480    0.00840     3.21283
      C    3    0.05409      0.99950     1.93110    0.01532     2.94591
      O    4   -0.27419      0.99985     3.26526    0.00908     4.27419
      C    5    0.21985      0.99940     1.76927    0.01148     2.78015
      C    6   -0.17328      0.99950     2.16534    0.00844     3.17328
      C    7    0.12421      0.99948     1.86471    0.01160     2.87579
      C    8   -0.11425      0.99946     2.10608    0.00871     3.11425
      C    9   -0.01117      0.99956     2.00243    0.00919     3.01117
      C   10   -0.18948      0.99953     2.18275    0.00720     3.18948
      C   11    0.23715      0.99967     1.74134    0.02184     2.76285
      O   12   -0.25808      0.99989     3.25126    0.00693     4.25808
      N   13   -0.39939      0.99971     2.89022    0.00946     3.89939
      H   14    0.10240      0.00000     0.39614    0.00146     0.39760
      H   15    0.10523      0.00000     0.39375    0.00103     0.39477
      H   16    0.10259      0.00000     0.39614    0.00126     0.39741
      H   17    0.10816      0.00000     0.39102    0.00082     0.39184
      H   18    0.09359      0.00000     0.40497    0.00144     0.40641
      H   19    0.09405      0.00000     0.40423    0.00172     0.40595
      H   20    0.10250      0.00000     0.39548    0.00201     0.39750
      H   21    0.10008      0.00000     0.39849    0.00143     0.39992
      H   22    0.02877      0.00000     0.46900    0.00223     0.47123
      H   23    0.18786      0.00000     0.30963    0.00252     0.31214
      H   24    0.17847      0.00000     0.31998    0.00155     0.32153
 =======================================================================
   * Total *    0.00000     12.99478    33.85157    0.15365    47.00000

 Normal termination of Gaussian 16 at Wed Dec  9 22:53:09 2020.
