 Gaussian 16, Revision A.03,

 -----------------------------------------------------------
 # opt freq B3LYP/6-31G(d) empiricaldispersion=gd3bj scf=xqc
 -----------------------------------------------------------

 -------------------------------
 CID_138788458_JID_9889_neutraal
 -------------------------------
 Symbolic Z-matrix:
 Charge =  0 Multiplicity = 1

 SCF Done:  E(RB3LYP) =  -936.552305063     A.U. after   15 cycles
 SCF Done:  E(RB3LYP) =  -936.557894912     A.U. after   13 cycles
 SCF Done:  E(RB3LYP) =  -936.557220612     A.U. after   14 cycles
 SCF Done:  E(RB3LYP) =  -936.558468111     A.U. after   13 cycles
 SCF Done:  E(RB3LYP) =  -936.559784439     A.U. after   13 cycles
 SCF Done:  E(RB3LYP) =  -936.559615425     A.U. after   12 cycles
 SCF Done:  E(RB3LYP) =  -936.560123219     A.U. after   13 cycles
 SCF Done:  E(RB3LYP) =  -936.560231112     A.U. after   12 cycles
 SCF Done:  E(RB3LYP) =  -936.560345279     A.U. after   12 cycles
 SCF Done:  E(RB3LYP) =  -936.560420197     A.U. after   11 cycles
 SCF Done:  E(RB3LYP) =  -936.561210579     A.U. after   10 cycles
 SCF Done:  E(RB3LYP) =  -936.561212030     A.U. after    9 cycles
 SCF Done:  E(RB3LYP) =  -936.561210814     A.U. after   11 cycles
 SCF Done:  E(RB3LYP) =  -936.561212201     A.U. after   11 cycles
 SCF Done:  E(RB3LYP) =  -936.561212258     A.U. after    7 cycles
 Optimization completed.
    -- Stationary point found.
 Normal termination of Gaussian 16 at Sat Dec 12 10:46:44 2020.

 --------------------------------------------------------------------
 #N Geom=AllCheck Guess=TCheck SCRF=Check GenChk RB3LYP/6-31G(d) Freq
 --------------------------------------------------------------------

 Structure from the checkpoint file:  "JID_9889.chk"
 -------------------------------
 CID_138788458_JID_9889_neutraal
 -------------------------------
 Charge =  0 Multiplicity = 1

 SCF Done:  E(RB3LYP) =  -936.561212258     A.U. after    1 cycles

  Exact polarizability: 179.666   6.180 163.529   7.012 -14.958 112.516
 Approx polarizability: 259.201   7.297 240.365  13.070 -31.837 182.911

                      1                      2                      3
                      A                      A                      A
 Frequencies --     11.2324                36.5233                42.8885
 Red. masses --      4.9682                 6.5951                 6.1842
 Frc consts  --      0.0004                 0.0052                 0.0067
 IR Inten    --      0.5068                 1.4372                 0.6458

                      4                      5                      6
                      A                      A                      A
 Frequencies --     49.0191                74.2045                81.3328
 Red. masses --      4.4990                 4.6094                 4.7234
 Frc consts  --      0.0064                 0.0150                 0.0184
 IR Inten    --      0.5218                 0.4431                 1.4047

                      7                      8                      9
                      A                      A                      A
 Frequencies --    102.2306               134.9912               150.5370
 Red. masses --      5.8167                 1.1642                 4.5029
 Frc consts  --      0.0358                 0.0125                 0.0601
 IR Inten    --      0.4740                 0.8110                 1.7119

                     10                     11                     12
                      A                      A                      A
 Frequencies --    171.5703               209.0183               221.1773
 Red. masses --      3.8665                 4.0503                 1.7949
 Frc consts  --      0.0671                 0.1043                 0.0517
 IR Inten    --      1.7704                 3.2455                 0.0952

                     13                     14                     15
                      A                      A                      A
 Frequencies --    236.8314               261.3159               276.0534
 Red. masses --      4.3854                 2.0574                 2.0176
 Frc consts  --      0.1449                 0.0828                 0.0906
 IR Inten    --      1.2305                 0.1892                 1.1335

                     16                     17                     18
                      A                      A                      A
 Frequencies --    281.9970               296.6078               313.4814
 Red. masses --      4.3959                 1.2251                 3.0397
 Frc consts  --      0.2060                 0.0635                 0.1760
 IR Inten    --      4.0236                 0.8720                 0.2853

                     19                     20                     21
                      A                      A                      A
 Frequencies --    326.8615               347.3003               377.0948
 Red. masses --      3.6235                 2.9599                 2.7820
 Frc consts  --      0.2281                 0.2103                 0.2331
 IR Inten    --     12.0319                 2.7025                11.1973

                     22                     23                     24
                      A                      A                      A
 Frequencies --    377.7598               391.7518               407.3557
 Red. masses --      1.1472                 3.3486                 4.4377
 Frc consts  --      0.0965                 0.3028                 0.4339
 IR Inten    --     98.6407                 3.5807                14.8526

                     25                     26                     27
                      A                      A                      A
 Frequencies --    465.9215               475.9334               536.1245
 Red. masses --      3.8371                 3.4469                 7.0554
 Frc consts  --      0.4908                 0.4600                 1.1948
 IR Inten    --      0.9305                 3.1239                 1.9018

                     28                     29                     30
                      A                      A                      A
 Frequencies --    549.9006               580.3002               593.8195
 Red. masses --      3.5740                 4.4375                 3.8981
 Frc consts  --      0.6368                 0.8804                 0.8099
 IR Inten    --     24.2760                 2.0692                21.1915

                     31                     32                     33
                      A                      A                      A
 Frequencies --    608.8943               625.2802               660.5330
 Red. masses --      2.2167                 1.8909                 4.2130
 Frc consts  --      0.4842                 0.4356                 1.0830
 IR Inten    --     54.4768                29.0955                16.7333

                     34                     35                     36
                      A                      A                      A
 Frequencies --    696.1654               713.3721               747.0885
 Red. masses --      4.0247                 3.2947                 2.8670
 Frc consts  --      1.1492                 0.9879                 0.9428
 IR Inten    --      8.4995                24.0366                16.4968

                     37                     38                     39
                      A                      A                      A
 Frequencies --    766.5156               780.9976               807.7040
 Red. masses --      3.7849                 4.2705                 1.5211
 Frc consts  --      1.3102                 1.5347                 0.5847
 IR Inten    --      9.2126                38.5651                14.3603

                     40                     41                     42
                      A                      A                      A
 Frequencies --    858.1623               867.9087               880.6805
 Red. masses --      4.6327                 2.1650                 1.7545
 Frc consts  --      2.0101                 0.9609                 0.8018
 IR Inten    --      7.7451                 4.1693                15.9611

                     43                     44                     45
                      A                      A                      A
 Frequencies --    904.8715               952.3315               966.6349
 Red. masses --      1.4613                 2.7820                 1.5448
 Frc consts  --      0.7049                 1.4866                 0.8505
 IR Inten    --      1.4431                13.9719                 3.6856

                     46                     47                     48
                      A                      A                      A
 Frequencies --    972.0051               985.9119              1022.0058
 Red. masses --      1.2529                 2.2545                 6.1599
 Frc consts  --      0.6974                 1.2912                 3.7908
 IR Inten    --      0.7739                40.2236                 2.7403

                     49                     50                     51
                      A                      A                      A
 Frequencies --   1043.1620              1052.9771              1070.9843
 Red. masses --      1.5366                 3.7187                 2.3661
 Frc consts  --      0.9852                 2.4293                 1.5990
 IR Inten    --     10.0640                58.6148                16.0216

                     52                     53                     54
                      A                      A                      A
 Frequencies --   1108.8683              1136.3572              1160.0846
 Red. masses --      1.5436                 2.8750                 3.5101
 Frc consts  --      1.1182                 2.1873                 2.7832
 IR Inten    --      5.2081               144.5111               251.6186

                     55                     56                     57
                      A                      A                      A
 Frequencies --   1187.0417              1189.0199              1197.9368
 Red. masses --      1.2785                 1.1947                 2.1252
 Frc consts  --      1.0614                 0.9951                 1.7969
 IR Inten    --      1.7674                21.0316                 8.1315

                     58                     59                     60
                      A                      A                      A
 Frequencies --   1215.6428              1219.2943              1226.9909
 Red. masses --      1.4236                 1.4748                 1.9281
 Frc consts  --      1.2395                 1.2918                 1.7102
 IR Inten    --    193.0537                 4.2442                23.7598

                     61                     62                     63
                      A                      A                      A
 Frequencies --   1248.5036              1276.4368              1298.2447
 Red. masses --      1.8998                 3.8365                 4.6315
 Frc consts  --      1.7447                 3.6829                 4.5992
 IR Inten    --     33.5704               157.4163               169.1417

                     64                     65                     66
                      A                      A                      A
 Frequencies --   1311.6533              1355.1410              1359.5745
 Red. masses --      2.1778                 1.4177                 2.2606
 Frc consts  --      2.2076                 1.5339                 2.4620
 IR Inten    --      1.4033                49.8104                 8.0535

                     67                     68                     69
                      A                      A                      A
 Frequencies --   1364.0330              1381.0792              1400.2538
 Red. masses --      4.3789                 1.5532                 2.1790
 Frc consts  --      4.8003                 1.7455                 2.5172
 IR Inten    --     24.5437                14.9862                42.9070

                     70                     71                     72
                      A                      A                      A
 Frequencies --   1422.4123              1450.3067              1488.1989
 Red. masses --      1.2125                 1.2490                 1.1063
 Frc consts  --      1.4454                 1.5479                 1.4436
 IR Inten    --      2.1375                 7.3415                 7.0733

                     73                     74                     75
                      A                      A                      A
 Frequencies --   1494.1624              1499.7198              1512.8436
 Red. masses --      1.1992                 2.6436                 1.0496
 Frc consts  --      1.5774                 3.5032                 1.4154
 IR Inten    --      7.0645                47.9948                 4.6998

                     76                     77                     78
                      A                      A                      A
 Frequencies --   1514.0989              1524.4826              1525.9817
 Red. masses --      1.0782                 1.0479                 1.0501
 Frc consts  --      1.4564                 1.4349                 1.4407
 IR Inten    --     13.3969                 7.8510                 0.9161

                     79                     80                     81
                      A                      A                      A
 Frequencies --   1532.7746              1552.1050              1556.7121
 Red. masses --      1.0600                 1.1266                 2.2489
 Frc consts  --      1.4672                 1.5990                 3.2110
 IR Inten    --      8.7507                12.7414                63.6721

                     82                     83                     84
                      A                      A                      A
 Frequencies --   1656.8659              1662.0725              1820.4240
 Red. masses --      5.9606                 5.9045                11.1107
 Frc consts  --      9.6408                 9.6102                21.6938
 IR Inten    --    133.9293                65.5188               250.1621

                     85                     86                     87
                      A                      A                      A
 Frequencies --   1826.3251              3063.7969              3074.4982
 Red. masses --     10.0994                 1.0599                 1.0352
 Frc consts  --     19.8474                 5.8617                 5.7651
 IR Inten    --    209.0574                16.0036                21.4224

                     88                     89                     90
                      A                      A                      A
 Frequencies --   3075.9531              3079.7369              3107.4049
 Red. masses --      1.0295                 1.0355                 1.1034
 Frc consts  --      5.7390                 5.7865                 6.2776
 IR Inten    --     31.6479                 7.2889                 6.8403

                     91                     92                     93
                      A                      A                      A
 Frequencies --   3146.1546              3150.4711              3154.4987
 Red. masses --      1.1018                 1.1074                 1.1027
 Frc consts  --      6.4256                 6.4761                 6.4649
 IR Inten    --     15.8827                19.7014                 7.1744

                     94                     95                     96
                      A                      A                      A
 Frequencies --   3162.7102              3167.0713              3182.8512
 Red. masses --      1.1037                 1.1033                 1.1072
 Frc consts  --      6.5045                 6.5202                 6.6087
 IR Inten    --      8.1167                27.7715                14.7067

                     97                     98                     99
                      A                      A                      A
 Frequencies --   3191.2112              3210.3070              3219.6604
 Red. masses --      1.0880                 1.0906                 1.0929
 Frc consts  --      6.5283                 6.6221                 6.6747
 IR Inten    --     14.5154                 5.1024                11.0022

                    100                    101                    102
                      A                      A                      A
 Frequencies --   3231.7835              3673.9618              3749.2395
 Red. masses --      1.0934                 1.0642                 1.0658
 Frc consts  --      6.7284                 8.4630                 8.8273
 IR Inten    --      2.6669                46.4277                35.1602

 - Thermochemistry -
 -------------------
 Temperature   298.150 Kelvin.  Pressure   1.00000 Atm.
 Atom     1 has atomic number  6 and mass  12.00000

 Molecular mass:   267.11067 amu.
 Principal axes and moments of inertia in atomic units:
                           1         2         3
     Eigenvalues --  3928.232805904.487848296.04636
           X            0.99988  -0.01255   0.00928
           Y            0.01254   0.99992   0.00150
           Z           -0.00929  -0.00138   0.99996
 This molecule is an asymmetric top.
 Rotational symmetry number  1.
 Warning -- assumption of classical behavior for rotation
           may cause significant error
 Rotational temperatures (Kelvin)      0.02205     0.01467     0.01044
 Rotational constants (GHZ):           0.45943     0.30566     0.21754
 Zero-point vibrational energy     769690.9 (Joules/Mol)
                                  183.96055 (Kcal/Mol)
 Warning -- explicit consideration of  31 degrees of freedom as
           vibrations may cause significant error
 Vibrational temperatures:     16.16    52.55    61.71    70.53   106.76
          (Kelvin)            117.02   147.09   194.22   216.59   246.85
                              300.73   318.22   340.75   375.98   397.18
                              405.73   426.75   451.03   470.28   499.69
                              542.56   543.51   563.64   586.09   670.36
                              684.76   771.36   791.18   834.92   854.37
                              876.06   899.64   950.36  1001.63  1026.38
                             1074.89  1102.84  1123.68  1162.11  1234.70
                             1248.73  1267.10  1301.91  1370.19  1390.77
                             1398.50  1418.51  1470.44  1500.88  1515.00
                             1540.91  1595.41  1634.96  1669.10  1707.89
                             1710.73  1723.56  1749.04  1754.29  1765.37
                             1796.32  1836.51  1867.88  1887.18  1949.75
                             1956.12  1962.54  1987.06  2014.65  2046.53
                             2086.67  2141.19  2149.77  2157.76  2176.64
                             2178.45  2193.39  2195.55  2205.32  2233.13
                             2239.76  2383.86  2391.35  2619.18  2627.67
                             4408.12  4423.52  4425.61  4431.05  4470.86
                             4526.61  4532.83  4538.62  4550.43  4556.71
                             4579.41  4591.44  4618.92  4632.37  4649.82
                             5286.01  5394.32

 Zero-point correction=                           0.293160 (Hartree/Particle)
 Thermal correction to Energy=                    0.312532
 Thermal correction to Enthalpy=                  0.313476
 Thermal correction to Gibbs Free Energy=         0.243666
 Sum of electronic and zero-point Energies=           -936.268052
 Sum of electronic and thermal Energies=              -936.248680
 Sum of electronic and thermal Enthalpies=            -936.247736
 Sum of electronic and thermal Free Energies=         -936.317546

                     E (Thermal)             CV                S
                      KCal/Mol        Cal/Mol-Kelvin    Cal/Mol-Kelvin
 Total                  196.117             72.207            146.928
 Electronic               0.000              0.000              0.000
 Translational            0.889              2.981             42.647
 Rotational               0.889              2.981             33.620
 Vibrational            194.339             66.245             70.661
 Vibration     1          0.593              1.987              7.780
 Vibration     2          0.594              1.982              5.439
 Vibration     3          0.595              1.980              5.121
 Vibration     4          0.595              1.978              4.857
 Vibration     5          0.599              1.966              4.039
 Vibration     6          0.600              1.962              3.858
 Vibration     7          0.604              1.947              3.411
 Vibration     8          0.613              1.918              2.874
 Vibration     9          0.618              1.902              2.665
 Vibration    10          0.626              1.877              2.418
 Vibration    11          0.642              1.827              2.052
 Vibration    12          0.648              1.809              1.949
 Vibration    13          0.656              1.784              1.827
 Vibration    14          0.669              1.744              1.653
 Vibration    15          0.678              1.718              1.558
 Vibration    16          0.681              1.707              1.522
 Vibration    17          0.690              1.680              1.436
 Vibration    18          0.701              1.648              1.344
 Vibration    19          0.711              1.622              1.276
 Vibration    20          0.725              1.581              1.178
 Vibration    21          0.748              1.519              1.051
 Vibration    22          0.748              1.518              1.048
 Vibration    23          0.759              1.488              0.993
 Vibration    24          0.772              1.454              0.936
 Vibration    25          0.823              1.326              0.749
 Vibration    26          0.833              1.303              0.721
 Vibration    27          0.891              1.170              0.574
 Vibration    28          0.905              1.140              0.544
 Vibration    29          0.937              1.074              0.485
 Vibration    30          0.951              1.045              0.460
 Vibration    31          0.968              1.013              0.435

                           ! Non-Optimized Parameters !
 Normal termination of Gaussian 16 at Sat Dec 12 11:04:50 2020.

 ----------------------------------------------------------------------
 # B3LYP/6-311++G(d,p) empiricaldispersion=gd3bj scf=xqc pop=npa geom=c
 heck
 ----------------------------------------------------------------------

 ---------------------------------------
 CID_138788458_JID_9889_Energie_neutraal
 ---------------------------------------
 Structure from the checkpoint file:  "JID_9889.chk"
 Charge =  0 Multiplicity = 1

 SCF Done:  E(RB3LYP) =  -936.844258688     A.U. after   16 cycles
 Normal termination of Gaussian 16 at Sat Dec 12 11:11:53 2020.

 ----------------------------------------------------------------------
 # B3LYP/6-311++G(d,p) empiricaldispersion=gd3bj scf=xqc pop=npa geom=c
 heck
 ----------------------------------------------------------------------

 -------------------------------------
 CID_138788458_JID_9889_Energie_kation
 -------------------------------------
 Structure from the checkpoint file:  "JID_9889.chk"
 Charge =  1 Multiplicity = 2

 SCF Done:  E(UB3LYP) =  -936.561932252     A.U. after   26 cycles
 Normal termination of Gaussian 16 at Sat Dec 12 11:27:33 2020.
 Gaussian 16:  ES64L-G16RevA.03 25-Dec-2016

 ----------------------------------------------------------------------
 # B3LYP/6-311++G(d,p) empiricaldispersion=gd3bj scf=xqc pop=npa geom=c
 heck
 ----------------------------------------------------------------------

 ------------------------------------
 CID_138788458_JID_9889_Energie_anion
 ------------------------------------
 Structure from the checkpoint file:  "JID_9889.chk"
 Charge = -1 Multiplicity = 2

                         Standard orientation:
 ---------------------------------------------------------------------
 Center     Atomic      Atomic             Coordinates (Angstroms)
 Number     Number       Type             X           Y           Z
 ---------------------------------------------------------------------
      1          6           0        2.056013    1.475218    1.004097
      2          6           0        0.556341    1.353875    0.647308
      3          6           0       -0.257305    1.449049    1.953239
      4          6           0        0.173493    2.547529   -0.256124
      5          8           0       -0.358398    2.481703   -1.344234
      6          8           0        0.502054    3.738231    0.303605
      7          7           0        0.312514    0.077083   -0.013383
      8          6           0        1.137019   -0.261333   -1.156088
      9          6           0        2.449095   -0.982019   -0.855437
     10          8           0        3.436216   -0.893080   -1.553672
     11          8           0        2.380582   -1.763909    0.241993
     12          6           0        3.580740   -2.493923    0.540217
     13          6           0       -0.955898   -0.576062    0.064564
     14          6           0       -2.135731    0.039634   -0.373947
     15          6           0       -3.351985   -0.641118   -0.286459
     16          6           0       -3.401257   -1.946405    0.213127
     17          6           0       -2.220664   -2.558933    0.623627
     18          6           0       -1.000694   -1.882729    0.561671
     19          8           0       -4.530185   -0.078434   -0.696670
     20          1           0        2.242926    2.404142    1.546411
     21          1           0        2.694283    1.473602    0.115432
     22          1           0        2.333633    0.624654    1.631713
     23          1           0       -0.001875    2.369765    2.482035
     24          1           0       -1.333365    1.437346    1.768792
     25          1           0       -0.011351    0.590269    2.584271
     26          1           0        0.224752    4.422034   -0.335500
     27          1           0        0.564009   -0.925256   -1.812246
     28          1           0        1.391882    0.613890   -1.764250
     29          1           0        3.835777   -3.166341   -0.282949
     30          1           0        4.414249   -1.806385    0.705773
     31          1           0        3.361759   -3.059206    1.446219
     32          1           0       -2.087530    1.033790   -0.806855
     33          1           0       -4.357472   -2.456219    0.265081
     34          1           0       -2.254014   -3.573751    1.010431
     35          1           0       -0.077644   -2.343445    0.894217
     36          1           0       -4.344772    0.808744   -1.041830
 ---------------------------------------------------------------------

 SCF Done:  E(UB3LYP) =  -936.835052294     A.U. after   33 cycles
 SCF Done:  E(UB3LYP) =  -936.835052294     a.u. after    1 cycles

 The electronic state is 2-A.
 Alpha  occ. eigenvalues --  -19.08564 -19.07868 -19.06713 -19.02873 -19.02868
 Alpha  occ. eigenvalues --  -14.22706 -10.21538 -10.21491 -10.14971 -10.14678
 Alpha  occ. eigenvalues --  -10.13763 -10.12684 -10.12178 -10.09138 -10.08400
 Alpha  occ. eigenvalues --  -10.08018 -10.07881 -10.07836 -10.07592  -1.02558
 Alpha  occ. eigenvalues --   -1.02158  -0.97726  -0.93760  -0.93245  -0.85880
 Alpha  occ. eigenvalues --   -0.76272  -0.71629  -0.67890  -0.65433  -0.64349
 Alpha  occ. eigenvalues --   -0.61243  -0.59876  -0.57049  -0.54339  -0.52061
 Alpha  occ. eigenvalues --   -0.49015  -0.47749  -0.45976  -0.43524  -0.42461
 Alpha  occ. eigenvalues --   -0.40967  -0.40331  -0.39835  -0.39625  -0.38748
 Alpha  occ. eigenvalues --   -0.38109  -0.37041  -0.36526  -0.34345  -0.33604
 Alpha  occ. eigenvalues --   -0.33347  -0.33009  -0.32554  -0.31546  -0.30849
 Alpha  occ. eigenvalues --   -0.30691  -0.30085  -0.29213  -0.28241  -0.28025
 Alpha  occ. eigenvalues --   -0.27345  -0.26785  -0.25850  -0.25095  -0.23602
 Alpha  occ. eigenvalues --   -0.22657  -0.20750  -0.19469  -0.17086  -0.14437
 Alpha  occ. eigenvalues --   -0.12912   0.03841
 Alpha virt. eigenvalues --    0.05246   0.06382   0.06697   0.06999   0.07865
 Alpha virt. eigenvalues --    0.07928   0.08240   0.08492   0.08581   0.09071
 Alpha virt. eigenvalues --    0.09480   0.10302   0.10676   0.11468   0.11629

  Beta  occ. eigenvalues --  -19.08559 -19.07812 -19.06683 -19.02869 -19.02847
  Beta  occ. eigenvalues --  -14.22705 -10.21536 -10.21491 -10.14973 -10.14668
  Beta  occ. eigenvalues --  -10.13722 -10.12678 -10.12167 -10.09131 -10.08388
  Beta  occ. eigenvalues --  -10.08002 -10.07862 -10.07821 -10.07589  -1.02550
  Beta  occ. eigenvalues --   -1.02090  -0.97670  -0.93751  -0.93181  -0.85868
  Beta  occ. eigenvalues --   -0.76252  -0.71604  -0.67864  -0.65406  -0.64309
  Beta  occ. eigenvalues --   -0.61209  -0.59842  -0.56970  -0.54290  -0.52020
  Beta  occ. eigenvalues --   -0.48974  -0.47702  -0.45932  -0.43496  -0.42436
  Beta  occ. eigenvalues --   -0.40941  -0.40285  -0.39806  -0.39600  -0.38719
  Beta  occ. eigenvalues --   -0.38082  -0.37021  -0.36495  -0.34318  -0.33558
  Beta  occ. eigenvalues --   -0.33324  -0.32978  -0.32527  -0.31525  -0.30824
  Beta  occ. eigenvalues --   -0.30663  -0.30065  -0.29184  -0.28217  -0.28001
  Beta  occ. eigenvalues --   -0.27320  -0.26763  -0.25823  -0.25065  -0.23562
  Beta  occ. eigenvalues --   -0.22645  -0.20736  -0.19398  -0.17040  -0.14409
  Beta  occ. eigenvalues --   -0.12894
  Beta virt. eigenvalues --    0.05950   0.06586   0.06753   0.07052   0.07652
  Beta virt. eigenvalues --    0.07865   0.08282   0.08344   0.08525   0.08930
  Beta virt. eigenvalues --    0.09172   0.09741   0.10543   0.10940   0.11588

 Mulliken charges and spin densities:
               1          2
     1  C   -0.098000  -0.246921
     2  C    0.348242  -0.536345
     3  C   -0.100703  -0.289989
     4  C    0.101855  -0.333978
     5  O   -0.233881  -0.016045
     6  O   -0.171953   0.067523
     7  N    0.893908  -0.120205
     8  C    0.549769  -0.680051
     9  C   -0.513148   0.185242
    10  O   -0.209929   0.019796
    11  O   -0.090446   0.055712
    12  C    0.738834  -0.969743
    13  C   -1.554977   0.861797
    14  C   -1.471162   1.381237
    15  C    0.874426  -1.340066
    16  C    1.129136  -1.125335
    17  C    0.155351  -0.287801
    18  C   -0.390351   0.253167
    19  O   -0.265984   0.040178
    20  H    0.011093   0.201651
    21  H    0.062764   0.139626
    22  H    0.033809   0.119729
    23  H    0.141473   0.051201
    24  H   -0.085844   0.297398
    25  H    0.017221   0.145705
    26  H   -0.556159   0.857524
    27  H    0.175236   0.020719
    28  H    0.204869   0.048049
    29  H   -0.090294   0.265222
    30  H   -0.120246   0.296885
    31  H   -0.501778   0.661527
    32  H   -0.084547   0.271517
    33  H    0.155259   0.008350
    34  H   -0.144943   0.317263
    35  H    0.202722  -0.008973
    36  H   -0.111625   0.388434
 Sum of Mulliken charges =  -1.00000   1.00000

 Dipole moment (field-independent basis, Debye):
    X=             -0.8383    Y=             -3.4554    Z=              0.2602  Tot=              3.5651
 Quadrupole moment (field-independent basis, Debye-Ang):
   XX=           -182.6742   YY=           -184.1145   ZZ=           -145.4688
   XY=             11.7140   XZ=             -3.0665   YZ=              7.6445

 Summary of Natural Population Analysis:

                                       Natural Population
                Natural  -----------------------------------------------
    Atom  No    Charge         Core      Valence    Rydberg      Total
 -----------------------------------------------------------------------
      C    1   -0.28963      0.99962     2.28247    0.00753     3.28963
      C    2    0.03411      0.99952     1.95057    0.01579     2.96589
      C    3   -0.28646      0.99962     2.27999    0.00685     3.28646
      C    4    0.40920      0.99964     1.56461    0.02655     2.59080
      O    5   -0.30969      0.99987     3.30287    0.00695     4.30969
      O    6   -0.34670      0.99987     3.33918    0.00765     4.34670
      N    7   -0.28873      0.99963     2.77233    0.01677     3.78873
      C    8   -0.12822      0.99954     2.11795    0.01073     3.12822
      C    9    0.40527      0.99969     1.57094    0.02410     2.59473
      O   10   -0.30865      0.99987     3.30294    0.00584     4.30865
      O   11   -0.27635      0.99986     3.26689    0.00960     4.27635
      C   12   -0.10519      0.99959     2.09618    0.00943     3.10519
      C   13    0.09980      0.99947     1.88862    0.01211     2.90020
      C   14   -0.15144      0.99945     2.14278    0.00921     3.15144
      C   15    0.16011      0.99939     1.82687    0.01363     2.83989
      C   16   -0.13155      0.99952     2.12285    0.00918     3.13155
      C   17   -0.09081      0.99957     2.08261    0.00863     3.09081
      C   18   -0.12371      0.99949     2.11383    0.01038     3.12371
      O   19   -0.34131      0.99988     3.33487    0.00657     4.34131
      H   20    0.11096      0.00000     0.38796    0.00108     0.38904
      H   21    0.10383      0.00000     0.39499    0.00118     0.39617
      H   22    0.10753      0.00000     0.39102    0.00145     0.39247
      H   23    0.10907      0.00000     0.38991    0.00102     0.39093
      H   24    0.10877      0.00000     0.38997    0.00126     0.39123
      H   25    0.10659      0.00000     0.39233    0.00108     0.39341
      H   26    0.24603      0.00000     0.22989    0.02408     0.25397
      H   27    0.11746      0.00000     0.38170    0.00084     0.38254
      H   28    0.11040      0.00000     0.38838    0.00122     0.38960
      H   29    0.09130      0.00000     0.40758    0.00112     0.40870
      H   30    0.09228      0.00000     0.40652    0.00120     0.40772
      H   31    0.09497      0.00000     0.40330    0.00173     0.40503
      H   32    0.11646      0.00000     0.38139    0.00215     0.38354
      H   33    0.10441      0.00000     0.39476    0.00083     0.39559
      H   34    0.10000      0.00000     0.39924    0.00077     0.40000
      H   35    0.11208      0.00000     0.38599    0.00193     0.38792
      H   36    0.23781      0.00000     0.25810    0.00409     0.26219
 =======================================================================
   * Total *   -0.00000     18.99309    51.74238    0.26453    71.00000

 Normal termination of Gaussian 16 at Sat Dec 12 11:47:46 2020.
