 Gaussian 16, Revision A.03,

 -----------------------------------------------------------
 # opt freq B3LYP/6-31G(d) empiricaldispersion=gd3bj scf=xqc
 -----------------------------------------------------------

 ------------------------------
 CID_63685047_JID_5911_neutraal
 ------------------------------
 Symbolic Z-matrix:
 Charge =  0 Multiplicity = 1

 SCF Done:  E(RB3LYP) =  -1072.36514575     A.U. after   14 cycles
 SCF Done:  E(RB3LYP) =  -1072.36991453     A.U. after   12 cycles
 SCF Done:  E(RB3LYP) =  -1072.36657697     A.U. after   14 cycles
 SCF Done:  E(RB3LYP) =  -1072.36960262     A.U. after   12 cycles
 SCF Done:  E(RB3LYP) =  -1072.37123575     A.U. after   10 cycles
 SCF Done:  E(RB3LYP) =  -1072.37199681     A.U. after   13 cycles
 SCF Done:  E(RB3LYP) =  -1072.37200535     A.U. after   13 cycles
 SCF Done:  E(RB3LYP) =  -1072.37312652     A.U. after   12 cycles
 SCF Done:  E(RB3LYP) =  -1072.37274488     A.U. after   12 cycles
 SCF Done:  E(RB3LYP) =  -1072.37339969     A.U. after   12 cycles
 SCF Done:  E(RB3LYP) =  -1072.37581802     A.U. after    9 cycles
 SCF Done:  E(RB3LYP) =  -1072.37582068     A.U. after    9 cycles
 SCF Done:  E(RB3LYP) =  -1072.37582127     A.U. after    8 cycles
 SCF Done:  E(RB3LYP) =  -1072.37582161     A.U. after    8 cycles
 SCF Done:  E(RB3LYP) =  -1072.37582168     A.U. after    7 cycles
 Optimization completed.
    -- Stationary point found.
 Normal termination of Gaussian 16 at Thu Dec 10 17:50:13 2020.

 --------------------------------------------------------------------
 #N Geom=AllCheck Guess=TCheck SCRF=Check GenChk RB3LYP/6-31G(d) Freq
 --------------------------------------------------------------------

 Structure from the checkpoint file:  "JID_5911.chk"
 ------------------------------
 CID_63685047_JID_5911_neutraal
 ------------------------------
 Charge =  0 Multiplicity = 1

 SCF Done:  E(RB3LYP) =  -1072.37582168     A.U. after    1 cycles

  Exact polarizability: 154.175   4.466 125.884   4.915  -3.971 130.726
 Approx polarizability: 202.058   9.012 169.630  13.373  -7.224 201.682

                      1                      2                      3
                      A                      A                      A
 Frequencies --     18.8805                23.3570                37.3602
 Red. masses --      3.3631                 3.6609                 3.0816
 Frc consts  --      0.0007                 0.0012                 0.0025
 IR Inten    --      2.7816                 0.3706                 0.0560

                      4                      5                      6
                      A                      A                      A
 Frequencies --     38.5058                57.6283                80.6535
 Red. masses --      4.6390                 3.0780                 3.2459
 Frc consts  --      0.0041                 0.0060                 0.0124
 IR Inten    --      0.3423                 0.2711                 1.1938

                      7                      8                      9
                      A                      A                      A
 Frequencies --     82.9443               114.9415               128.6928
 Red. masses --      3.6924                 4.4082                 1.6131
 Frc consts  --      0.0150                 0.0343                 0.0157
 IR Inten    --      6.7279                 1.9842                24.8142

                     10                     11                     12
                      A                      A                      A
 Frequencies --    148.6801               158.0783               166.1819
 Red. masses --      2.4024                 2.4262                 3.4576
 Frc consts  --      0.0313                 0.0357                 0.0563
 IR Inten    --      6.6022                12.9345                 2.4990

                     13                     14                     15
                      A                      A                      A
 Frequencies --    185.8837               199.4679               242.9487
 Red. masses --      1.1185                 1.8228                 2.9803
 Frc consts  --      0.0228                 0.0427                 0.1036
 IR Inten    --      0.5385                 2.0285                10.4755

                     16                     17                     18
                      A                      A                      A
 Frequencies --    265.2394               284.7498               296.0976
 Red. masses --      2.6843                 2.5419                 2.2914
 Frc consts  --      0.1113                 0.1214                 0.1184
 IR Inten    --      1.4806                 1.1026                 3.1838

                     19                     20                     21
                      A                      A                      A
 Frequencies --    320.1989               344.9631               351.7260
 Red. masses --      2.9991                 2.6514                 2.8796
 Frc consts  --      0.1812                 0.1859                 0.2099
 IR Inten    --      4.5845                 0.2821                 9.6914

                     22                     23                     24
                      A                      A                      A
 Frequencies --    381.5453               437.9738               483.3399
 Red. masses --      2.6619                 2.7941                 2.8932
 Frc consts  --      0.2283                 0.3158                 0.3982
 IR Inten    --      6.3004                 6.5175                 0.8689

                     25                     26                     27
                      A                      A                      A
 Frequencies --    526.2592               547.0697               643.5476
 Red. masses --      2.3040                 2.1760                 4.2109
 Frc consts  --      0.3760                 0.3837                 1.0275
 IR Inten    --      0.7084                 4.9803                 1.7955

                     28                     29                     30
                      A                      A                      A
 Frequencies --    687.9904               714.6772               758.2487
 Red. masses --      4.5736                 6.2019                 2.6147
 Frc consts  --      1.2755                 1.8664                 0.8857
 IR Inten    --     12.4343                 1.4036                 4.6056

                     31                     32                     33
                      A                      A                      A
 Frequencies --    768.8500               832.3007               855.7241
 Red. masses --      1.4840                 3.4591                 3.0475
 Frc consts  --      0.5168                 1.4118                 1.3148
 IR Inten    --      4.3021                37.7919                 6.4332

                     34                     35                     36
                      A                      A                      A
 Frequencies --    860.1550               890.8113               898.0519
 Red. masses --      2.1064                 2.1266                 2.7152
 Frc consts  --      0.9182                 0.9943                 1.2902
 IR Inten    --      3.8408                15.1793                 4.7071

                     37                     38                     39
                      A                      A                      A
 Frequencies --    933.4802               939.3779               959.4164
 Red. masses --      2.1146                 1.2897                 1.7312
 Frc consts  --      1.0856                 0.6705                 0.9389
 IR Inten    --     13.7667                 6.1715               153.5845

                     40                     41                     42
                      A                      A                      A
 Frequencies --    982.3720               988.8287              1005.6339
 Red. masses --      1.9919                 1.6336                 1.1850
 Frc consts  --      1.1326                 0.9411                 0.7061
 IR Inten    --     69.8950                 7.8722                10.0879

                     43                     44                     45
                      A                      A                      A
 Frequencies --   1043.5061              1055.5383              1074.3435
 Red. masses --      1.6436                 2.7139                 2.4625
 Frc consts  --      1.0545                 1.7815                 1.6746
 IR Inten    --      9.1979                12.0982                27.1349

                     46                     47                     48
                      A                      A                      A
 Frequencies --   1078.0050              1124.7332              1138.2475
 Red. masses --      2.3624                 2.0781                 1.7544
 Frc consts  --      1.6175                 1.5489                 1.3392
 IR Inten    --      2.7366                11.2832                 5.0740

                     49                     50                     51
                      A                      A                      A
 Frequencies --   1143.5009              1174.1865              1190.0581
 Red. masses --      2.1797                 3.6904                 1.1592
 Frc consts  --      1.6792                 2.9978                 0.9672
 IR Inten    --     29.7120               117.6221                 7.5701

                     52                     53                     54
                      A                      A                      A
 Frequencies --   1198.0125              1206.1607              1247.9502
 Red. masses --      1.8759                 2.0922                 1.5390
 Frc consts  --      1.5863                 1.7933                 1.4122
 IR Inten    --     40.2702               149.5403               140.9204

                     55                     56                     57
                      A                      A                      A
 Frequencies --   1284.6966              1296.7157              1311.1759
 Red. masses --      1.1710                 1.4351                 1.2709
 Frc consts  --      1.1387                 1.4217                 1.2873
 IR Inten    --      4.4695                 6.1293                55.7167

                     58                     59                     60
                      A                      A                      A
 Frequencies --   1325.3979              1332.0744              1346.0778
 Red. masses --      1.2154                 1.2885                 1.1345
 Frc consts  --      1.2579                 1.3471                 1.2111
 IR Inten    --     22.5581                28.8894                24.0303

                     61                     62                     63
                      A                      A                      A
 Frequencies --   1352.6231              1396.2634              1397.7258
 Red. masses --      1.2720                 1.3381                 1.1568
 Frc consts  --      1.3712                 1.5370                 1.3315
 IR Inten    --     21.1060                10.3081                 3.0779

                     64                     65                     66
                      A                      A                      A
 Frequencies --   1411.8721              1415.9336              1427.4303
 Red. masses --      1.3229                 1.2940                 1.3541
 Frc consts  --      1.5537                 1.5285                 1.6256
 IR Inten    --     10.3782                14.7551                 7.0505

                     67                     68                     69
                      A                      A                      A
 Frequencies --   1435.3278              1452.8067              1461.3009
 Red. masses --      1.3187                 1.3198                 1.5696
 Frc consts  --      1.6006                 1.6413                 1.9748
 IR Inten    --      6.3673                 2.4485                13.6123

                     70                     71                     72
                      A                      A                      A
 Frequencies --   1496.4011              1498.8167              1505.5742
 Red. masses --      1.0699                 1.1059                 1.0920
 Frc consts  --      1.4116                 1.4637                 1.4584
 IR Inten    --      9.3262                 6.7127                 4.9506

                     73                     74                     75
                      A                      A                      A
 Frequencies --   1507.8047              1508.9659              1510.0038
 Red. masses --      1.1060                 1.0818                 1.0913
 Frc consts  --      1.4815                 1.4513                 1.4661
 IR Inten    --     16.8978                 2.5264                 2.9687

                     76                     77                     78
                      A                      A                      A
 Frequencies --   1525.7616              1528.5243              1540.8400
 Red. masses --      1.0450                 1.0544                 1.0579
 Frc consts  --      1.4333                 1.4515                 1.4798
 IR Inten    --      6.5150                12.4129                 5.6099

                     79                     80                     81
                      A                      A                      A
 Frequencies --   1553.7558              1685.2287              1808.8443
 Red. masses --      1.0868                 1.1122                 8.8215
 Frc consts  --      1.5458                 1.8611                17.0057
 IR Inten    --      8.6241                61.1696               158.3857

                     82                     83                     84
                      A                      A                      A
 Frequencies --   2982.3087              3025.3835              3038.6697
 Red. masses --      1.0659                 1.0649                 1.0630
 Frc consts  --      5.5854                 5.7428                 5.7831
 IR Inten    --     58.5516                35.9513                18.2321

                     85                     86                     87
                      A                      A                      A
 Frequencies --   3039.7492              3049.1654              3054.4463
 Red. masses --      1.0711                 1.0402                 1.0826
 Frc consts  --      5.8312                 5.6984                 5.9511
 IR Inten    --      4.8192                26.3630                52.9351

                     88                     89                     90
                      A                      A                      A
 Frequencies --   3064.7392              3065.9745              3072.1774
 Red. masses --      1.0323                 1.0815                 1.0720
 Frc consts  --      5.7125                 5.9895                 5.9611
 IR Inten    --     36.2828                22.2742                 7.7987

                     91                     92                     93
                      A                      A                      A
 Frequencies --   3081.5614              3082.5601              3088.2963
 Red. masses --      1.0994                 1.0919                 1.0858
 Frc consts  --      6.1511                 6.1130                 6.1017
 IR Inten    --     36.2479                31.5081                 7.7806

                     94                     95                     96
                      A                      A                      A
 Frequencies --   3102.9906              3113.6851              3124.8719
 Red. masses --      1.0712                 1.1003                 1.1048
 Frc consts  --      6.0771                 6.2850                 6.3560
 IR Inten    --     51.6106                52.7413                10.3105

                     97                     98                     99
                      A                      A                      A
 Frequencies --   3139.2491              3147.9124              3161.2390
 Red. masses --      1.1015                 1.1056                 1.1093
 Frc consts  --      6.3959                 6.4549                 6.5314
 IR Inten    --     26.4549                10.8564                11.9980

                    100                    101                    102
                      A                      A                      A
 Frequencies --   3166.3328              3493.3137              3578.4615
 Red. masses --      1.1067                 1.0514                 1.0896
 Frc consts  --      6.5370                 7.5596                 8.2210
 IR Inten    --      0.6546                 0.5987                 3.1262

 - Thermochemistry -
 -------------------
 Temperature   298.150 Kelvin.  Pressure   1.00000 Atm.
 Atom     1 has atomic number  6 and mass  12.00000

 Molecular mass:   235.12422 amu.
 Principal axes and moments of inertia in atomic units:
                           1         2         3
     Eigenvalues --  2728.530425981.137877106.72050
           X            0.99965  -0.02592   0.00447
           Y            0.02593   0.99966  -0.00105
           Z           -0.00444   0.00116   0.99999
 This molecule is an asymmetric top.
 Rotational symmetry number  1.
 Warning -- assumption of classical behavior for rotation
           may cause significant error
 Rotational temperatures (Kelvin)      0.03174     0.01448     0.01219
 Rotational constants (GHZ):           0.66143     0.30174     0.25395
 Zero-point vibrational energy     827266.2 (Joules/Mol)
                                  197.72137 (Kcal/Mol)
 Warning -- explicit consideration of  26 degrees of freedom as
           vibrations may cause significant error
 Vibrational temperatures:     27.16    33.61    53.75    55.40    82.91
          (Kelvin)            116.04   119.34   165.38   185.16   213.92
                              227.44   239.10   267.45   286.99   349.55
                              381.62   409.69   426.02   460.69   496.32
                              506.06   548.96   630.15   695.42   757.17
                              787.11   925.92   989.86  1028.26  1090.95
                             1106.20  1197.50  1231.20  1237.57  1281.68
                             1292.10  1343.07  1351.56  1380.39  1413.41
                             1422.70  1446.88  1501.37  1518.68  1545.74
                             1551.01  1618.24  1637.68  1645.24  1689.39
                             1712.23  1723.67  1735.40  1795.52  1848.39
                             1865.68  1886.49  1906.95  1916.56  1936.71
                             1946.12  2008.91  2011.02  2031.37  2037.21
                             2053.75  2065.12  2090.26  2102.49  2152.99
                             2156.46  2166.19  2169.39  2171.07  2172.56
                             2195.23  2199.21  2216.93  2235.51  2424.67
                             2602.52  4290.88  4352.85  4371.97  4373.52
                             4387.07  4394.67  4409.48  4411.25  4420.18
                             4433.68  4435.12  4443.37  4464.51  4479.90
                             4495.99  4516.68  4529.14  4548.32  4555.65
                             5026.10  5148.61

 Zero-point correction=                           0.315089 (Hartree/Particle)
 Thermal correction to Energy=                    0.333940
 Thermal correction to Enthalpy=                  0.334884
 Thermal correction to Gibbs Free Energy=         0.264838
 Sum of electronic and zero-point Energies=          -1072.060733
 Sum of electronic and thermal Energies=             -1072.041882
 Sum of electronic and thermal Enthalpies=           -1072.040937
 Sum of electronic and thermal Free Energies=        -1072.110984

                     E (Thermal)             CV                S
                      KCal/Mol        Cal/Mol-Kelvin    Cal/Mol-Kelvin
 Total                  209.551             66.029            147.425
 Electronic               0.000              0.000              0.000
 Translational            0.889              2.981             42.266
 Rotational               0.889              2.981             33.117
 Vibrational            207.773             60.067             72.042
 Vibration     1          0.593              1.986              6.749
 Vibration     2          0.593              1.985              6.326
 Vibration     3          0.594              1.982              5.394
 Vibration     4          0.594              1.981              5.335
 Vibration     5          0.596              1.974              4.537
 Vibration     6          0.600              1.962              3.875
 Vibration     7          0.600              1.961              3.820
 Vibration     8          0.608              1.937              3.184
 Vibration     9          0.611              1.925              2.965
 Vibration    10          0.618              1.904              2.689
 Vibration    11          0.621              1.894              2.573
 Vibration    12          0.624              1.884              2.478
 Vibration    13          0.632              1.859              2.268
 Vibration    14          0.638              1.841              2.138
 Vibration    15          0.659              1.774              1.781
 Vibration    16          0.671              1.737              1.627
 Vibration    17          0.683              1.702              1.505
 Vibration    18          0.690              1.681              1.439
 Vibration    19          0.706              1.635              1.309
 Vibration    20          0.723              1.586              1.189
 Vibration    21          0.728              1.572              1.158
 Vibration    22          0.751              1.510              1.033
 Vibration    23          0.798              1.387              0.833
 Vibration    24          0.840              1.287              0.701
 Vibration    25          0.881              1.192              0.596
 Vibration    26          0.902              1.146              0.550

                           ! Non-Optimized Parameters !
 Normal termination of Gaussian 16 at Thu Dec 10 18:02:24 2020.

 ----------------------------------------------------------------------
 # B3LYP/6-311++G(d,p) empiricaldispersion=gd3bj scf=xqc pop=npa geom=c
 heck
 ----------------------------------------------------------------------

 --------------------------------------
 CID_63685047_JID_5911_Energie_neutraal
 --------------------------------------
 Structure from the checkpoint file:  "JID_5911.chk"
 Charge =  0 Multiplicity = 1

 SCF Done:  E(RB3LYP) =  -1072.60772611     A.U. after   14 cycles
 Normal termination of Gaussian 16 at Thu Dec 10 18:07:34 2020.

 ----------------------------------------------------------------------
 # B3LYP/6-311++G(d,p) empiricaldispersion=gd3bj scf=xqc pop=npa geom=c
 heck
 ----------------------------------------------------------------------

 ------------------------------------
 CID_63685047_JID_5911_Energie_kation
 ------------------------------------
 Structure from the checkpoint file:  "JID_5911.chk"
 Charge =  1 Multiplicity = 2

 SCF Done:  E(UB3LYP) =  -1072.31552312     A.U. after   23 cycles
 Normal termination of Gaussian 16 at Thu Dec 10 18:18:31 2020.
 Gaussian 16:  ES64L-G16RevA.03 25-Dec-2016

 ----------------------------------------------------------------------
 # B3LYP/6-311++G(d,p) empiricaldispersion=gd3bj scf=xqc pop=npa geom=c
 heck
 ----------------------------------------------------------------------

 -----------------------------------
 CID_63685047_JID_5911_Energie_anion
 -----------------------------------
 Structure from the checkpoint file:  "JID_5911.chk"
 Charge = -1 Multiplicity = 2

                         Standard orientation:
 ---------------------------------------------------------------------
 Center     Atomic      Atomic             Coordinates (Angstroms)
 Number     Number       Type             X           Y           Z
 ---------------------------------------------------------------------
      1          6           0       -4.212638    2.201101    0.202539
      2          6           0       -3.701215    1.301437   -0.924196
      3          6           0       -2.561168    0.392505   -0.486112
      4          8           0       -3.048635   -0.482944    0.524827
      5          6           0       -2.058141   -1.143002    1.282685
      6          6           0       -1.401145   -2.320113    0.571323
      7          8           0       -0.499481   -1.906214   -0.482848
      8          6           0        0.745433   -1.555635   -0.102789
      9          8           0        1.132081   -1.577953    1.048842
     10          6           0        1.568290   -1.063729   -1.281976
     11          6           0        1.196784    0.419380   -1.572621
     12          6           0        1.270535    1.413177   -0.407910
     13         16           0        2.973691    1.814679    0.185217
     14          6           0        2.885236    1.197735    1.906531
     15          7           0        2.970924   -1.367286   -1.021185
     16          1           0       -4.558773    1.597522    1.046385
     17          1           0       -5.043584    2.829023   -0.136076
     18          1           0       -3.417637    2.864005    0.566558
     19          1           0       -4.516916    0.674923   -1.306339
     20          1           0       -3.346311    1.907997   -1.768000
     21          1           0       -2.171500   -0.181672   -1.337683
     22          1           0       -1.728456    0.994444   -0.083463
     23          1           0       -1.284252   -0.439120    1.623494
     24          1           0       -2.569471   -1.534966    2.169558
     25          1           0       -0.846755   -2.929950    1.289315
     26          1           0       -2.157372   -2.924611    0.067164
     27          1           0        1.249970   -1.636617   -2.160634
     28          1           0        1.840226    0.765492   -2.391344
     29          1           0        0.168680    0.438531   -1.958655
     30          1           0        0.809518    2.354888   -0.720939
     31          1           0        0.703749    1.051969    0.454943
     32          1           0        2.193356    1.799701    2.502325
     33          1           0        2.578714    0.149517    1.929428
     34          1           0        3.888968    1.295774    2.328248
     35          1           0        3.549841   -0.849596   -1.679508
     36          1           0        3.218944   -1.011352   -0.101359
 ---------------------------------------------------------------------

 SCF Done:  E(UB3LYP) =  -1072.59440923     A.U. after   33 cycles
 SCF Done:  E(UB3LYP) =  -1072.59440923     a.u. after    1 cycles

 The electronic state is 2-A.
 Alpha  occ. eigenvalues --  -88.74701 -19.08721 -19.03483 -19.03288 -14.20256
 Alpha  occ. eigenvalues --  -10.21873 -10.14343 -10.13538 -10.12463 -10.11824
 Alpha  occ. eigenvalues --  -10.10812 -10.10347 -10.08855 -10.06966 -10.05965
 Alpha  occ. eigenvalues --   -7.83308  -5.79715  -5.79348  -5.78654  -1.02831
 Alpha  occ. eigenvalues --   -0.95050  -0.93959  -0.80538  -0.71730  -0.70342
 Alpha  occ. eigenvalues --   -0.67882  -0.66179  -0.61702  -0.59011  -0.55912
 Alpha  occ. eigenvalues --   -0.53619  -0.49892  -0.49102  -0.47139  -0.43879
 Alpha  occ. eigenvalues --   -0.41903  -0.40783  -0.40261  -0.38625  -0.37397
 Alpha  occ. eigenvalues --   -0.37011  -0.35841  -0.35114  -0.34328  -0.33469
 Alpha  occ. eigenvalues --   -0.32895  -0.32653  -0.31714  -0.31424  -0.29765
 Alpha  occ. eigenvalues --   -0.28778  -0.27942  -0.27337  -0.26167  -0.25880
 Alpha  occ. eigenvalues --   -0.24939  -0.24581  -0.23977  -0.22560  -0.21692
 Alpha  occ. eigenvalues --   -0.19979  -0.17046  -0.16469  -0.12675   0.04302
 Alpha virt. eigenvalues --    0.05992   0.06583   0.06752   0.07849   0.08181
 Alpha virt. eigenvalues --    0.08396   0.09078   0.09301   0.09573   0.10500
 Alpha virt. eigenvalues --    0.10839   0.11428   0.11557   0.11874   0.12046

  Beta  occ. eigenvalues --  -88.74698 -19.08717 -19.03475 -19.03281 -14.20244
  Beta  occ. eigenvalues --  -10.21870 -10.14327 -10.13525 -10.12453 -10.11808
  Beta  occ. eigenvalues --  -10.10790 -10.10336 -10.08827 -10.06942 -10.05940
  Beta  occ. eigenvalues --   -7.83305  -5.79713  -5.79342  -5.78651  -1.02821
  Beta  occ. eigenvalues --   -0.95037  -0.93947  -0.80511  -0.71700  -0.70313
  Beta  occ. eigenvalues --   -0.67849  -0.66145  -0.61667  -0.58970  -0.55867
  Beta  occ. eigenvalues --   -0.53578  -0.49838  -0.49036  -0.47112  -0.43849
  Beta  occ. eigenvalues --   -0.41870  -0.40761  -0.40233  -0.38595  -0.37366
  Beta  occ. eigenvalues --   -0.36974  -0.35811  -0.35086  -0.34300  -0.33449
  Beta  occ. eigenvalues --   -0.32864  -0.32628  -0.31682  -0.31396  -0.29732
  Beta  occ. eigenvalues --   -0.28737  -0.27906  -0.27311  -0.26133  -0.25846
  Beta  occ. eigenvalues --   -0.24894  -0.24545  -0.23955  -0.22525  -0.21660
  Beta  occ. eigenvalues --   -0.19964  -0.17027  -0.16452  -0.12657
  Beta virt. eigenvalues --    0.06189   0.06757   0.07035   0.07354   0.08219
  Beta virt. eigenvalues --    0.08345   0.08830   0.09525   0.09718   0.09846
  Beta virt. eigenvalues --    0.10700   0.11175   0.11513   0.11673   0.12118

 Mulliken charges and spin densities:
               1          2
     1  C    0.202868  -0.715348
     2  C    0.136298  -0.643262
     3  C   -0.243151   0.084601
     4  O   -0.061348   0.014097
     5  C   -0.069031  -0.102725
     6  C    0.318869  -0.430071
     7  O    0.023047   0.060231
     8  C   -0.228351  -0.283890
     9  O   -0.241149   0.027624
    10  C   -0.041474  -0.121229
    11  C    1.026523  -1.407025
    12  C   -0.437443   0.368240
    13  S    0.107690  -0.104799
    14  C   -0.365098  -0.328130
    15  N   -0.272524  -0.002170
    16  H    0.095642   0.055428
    17  H   -0.213781   0.353060
    18  H   -0.334246   0.461024
    19  H   -0.071918   0.218708
    20  H   -0.242273   0.383530
    21  H   -0.286942   0.526240
    22  H    0.939550  -0.834824
    23  H    0.237183  -0.051692
    24  H   -0.454700   0.645917
    25  H    0.024860   0.146317
    26  H   -0.018173   0.219788
    27  H   -0.323112   0.599259
    28  H   -0.507001   0.728519
    29  H    0.240146  -0.109558
    30  H   -0.402793   0.710740
    31  H   -0.032730   0.067288
    32  H   -0.018663   0.198742
    33  H    0.077321   0.124134
    34  H    0.113045   0.041593
    35  H    0.123785   0.094372
    36  H    0.199073   0.005272
 Sum of Mulliken charges =  -1.00000   1.00000

 Dipole moment (field-independent basis, Debye):
    X=              2.8854    Y=             -2.6676    Z=              3.4689  Tot=              5.2417
 Quadrupole moment (field-independent basis, Debye-Ang):
   XX=           -169.2668   YY=           -157.4769   ZZ=           -144.8487
   XY=              9.3730   XZ=              3.5031   YZ=              4.5589

 Summary of Natural Population Analysis:

                                       Natural Population
                Natural  -----------------------------------------------
    Atom  No    Charge         Core      Valence    Rydberg      Total
 -----------------------------------------------------------------------
      C    1   -0.28594      0.99966     2.28177    0.00451     3.28594
      C    2   -0.19829      0.99964     2.18989    0.00877     3.19829
      C    3   -0.01038      0.99957     1.99843    0.01238     3.01038
      O    4   -0.30172      0.99988     3.29252    0.00932     4.30172
      C    5   -0.02022      0.99957     2.00835    0.01229     3.02022
      C    6   -0.03234      0.99955     2.02131    0.01147     3.03234
      O    7   -0.27883      0.99986     3.26991    0.00907     4.27883
      C    8    0.41477      0.99965     1.55784    0.02775     2.58523
      O    9   -0.31534      0.99987     3.30978    0.00569     4.31534
      C   10   -0.05600      0.99956     2.04228    0.01417     3.05600
      C   11   -0.19897      0.99959     2.18730    0.01208     3.19897
      C   12   -0.25476      0.99958     2.24281    0.01238     3.25476
      S   13    0.07472      4.99964     2.90833    0.01731     7.92528
      C   14   -0.35133      0.99962     2.34632    0.00540     3.35133
      N   15   -0.41716      0.99977     2.90775    0.00964     3.91716
      H   16    0.10049      0.00000     0.39805    0.00146     0.39951
      H   17    0.09697      0.00000     0.40199    0.00104     0.40303
      H   18    0.09657      0.00000     0.40207    0.00136     0.40343
      H   19    0.09601      0.00000     0.40270    0.00129     0.40399
      H   20    0.10100      0.00000     0.39740    0.00160     0.39900
      H   21    0.08636      0.00000     0.41139    0.00224     0.41364
      H   22    0.07480      0.00000     0.42206    0.00314     0.42520
      H   23    0.08528      0.00000     0.41292    0.00181     0.41472
      H   24    0.09434      0.00000     0.40440    0.00125     0.40566
      H   25    0.09881      0.00000     0.39990    0.00129     0.40119
      H   26    0.09793      0.00000     0.40080    0.00127     0.40207
      H   27    0.10599      0.00000     0.39176    0.00225     0.39401
      H   28    0.10330      0.00000     0.39457    0.00212     0.39670
      H   29    0.10953      0.00000     0.38804    0.00242     0.39047
      H   30    0.11007      0.00000     0.38743    0.00251     0.38993
      H   31    0.10266      0.00000     0.39482    0.00252     0.39734
      H   32    0.10003      0.00000     0.39840    0.00157     0.39997
      H   33    0.11283      0.00000     0.38560    0.00157     0.38717
      H   34    0.10273      0.00000     0.39631    0.00095     0.39727
      H   35    0.17539      0.00000     0.32218    0.00243     0.32461
      H   36    0.18070      0.00000     0.31672    0.00258     0.31930
 =======================================================================
   * Total *    0.00000     18.99499    44.79409    0.21091    64.00000

 Normal termination of Gaussian 16 at Thu Dec 10 18:34:58 2020.
