 Gaussian 16, Revision A.03,

 -----------------------------------------------------------
 # opt freq B3LYP/6-31G(d) empiricaldispersion=gd3bj scf=xqc
 -----------------------------------------------------------

 ------------------------------
 CID_20946484_JID_9307_neutraal
 ------------------------------
 Symbolic Z-matrix:
 Charge =  0 Multiplicity = 1

 SCF Done:  E(RB3LYP) =  -1238.47284708     A.U. after   16 cycles
 SCF Done:  E(RB3LYP) =  -1238.48177583     A.U. after   13 cycles
 SCF Done:  E(RB3LYP) =  -1238.48296165     A.U. after   12 cycles
 SCF Done:  E(RB3LYP) =  -1238.48308235     A.U. after   12 cycles
 SCF Done:  E(RB3LYP) =  -1238.48279348     A.U. after   13 cycles
 SCF Done:  E(RB3LYP) =  -1238.48351230     A.U. after   12 cycles
 SCF Done:  E(RB3LYP) =  -1238.48369801     A.U. after   12 cycles
 SCF Done:  E(RB3LYP) =  -1238.48377396     A.U. after   12 cycles
 SCF Done:  E(RB3LYP) =  -1238.48381352     A.U. after   12 cycles
 SCF Done:  E(RB3LYP) =  -1238.48384123     A.U. after   11 cycles
 SCF Done:  E(RB3LYP) =  -1238.48397396     A.U. after   10 cycles
 SCF Done:  E(RB3LYP) =  -1238.48397395     A.U. after    8 cycles
 SCF Done:  E(RB3LYP) =  -1238.48397404     A.U. after    7 cycles
 SCF Done:  E(RB3LYP) =  -1238.48397408     A.U. after    7 cycles
 SCF Done:  E(RB3LYP) =  -1238.48397410     A.U. after    7 cycles
 Optimization completed.
    -- Stationary point found.
 Normal termination of Gaussian 16 at Mon Dec 14 13:34:37 2020.

 --------------------------------------------------------------------
 #N Geom=AllCheck Guess=TCheck SCRF=Check GenChk RB3LYP/6-31G(d) Freq
 --------------------------------------------------------------------

 Structure from the checkpoint file:  "JID_9307.chk"
 ------------------------------
 CID_20946484_JID_9307_neutraal
 ------------------------------
 Charge =  0 Multiplicity = 1

 SCF Done:  E(RB3LYP) =  -1238.48397410     A.U. after    1 cycles

  Exact polarizability: 211.103   7.055 181.264  25.358   2.049 123.557
 Approx polarizability: 279.702  13.629 345.967  48.755   8.226 189.160

                      1                      2                      3
                      A                      A                      A
 Frequencies --      8.4967                18.3466                29.8615
 Red. masses --      6.0486                 3.3909                 3.6327
 Frc consts  --      0.0003                 0.0007                 0.0019
 IR Inten    --      0.0756                 0.2875                 0.2339

                      4                      5                      6
                      A                      A                      A
 Frequencies --     60.4345                75.6854               117.2576
 Red. masses --      4.9204                 9.2121                 7.5856
 Frc consts  --      0.0106                 0.0311                 0.0615
 IR Inten    --      3.4034                 2.6156                 0.2597

                      7                      8                      9
                      A                      A                      A
 Frequencies --    155.9460               171.4874               195.5602
 Red. masses --      4.9190                 4.2002                 2.9293
 Frc consts  --      0.0705                 0.0728                 0.0660
 IR Inten    --      0.7250                 1.5911                 2.1491

                     10                     11                     12
                      A                      A                      A
 Frequencies --    213.5531               217.2640               238.2846
 Red. masses --      1.2101                 1.8609                 2.1508
 Frc consts  --      0.0325                 0.0518                 0.0720
 IR Inten    --      0.2947                 1.8544                 0.3330

                     13                     14                     15
                      A                      A                      A
 Frequencies --    248.4409               262.0411               267.7128
 Red. masses --      2.0352                 1.2135                 1.3121
 Frc consts  --      0.0740                 0.0491                 0.0554
 IR Inten    --      1.0131                 0.5074                 0.5975

                     16                     17                     18
                      A                      A                      A
 Frequencies --    290.4771               293.5521               318.6847
 Red. masses --      2.4865                 3.4451                 3.6174
 Frc consts  --      0.1236                 0.1749                 0.2165
 IR Inten    --      1.3327                 5.6716                 5.8494

                     19                     20                     21
                      A                      A                      A
 Frequencies --    340.4638               355.9404               372.4715
 Red. masses --      2.7267                 4.0613                 2.9710
 Frc consts  --      0.1862                 0.3032                 0.2429
 IR Inten    --      1.2234                 0.5636                 2.1998

                     22                     23                     24
                      A                      A                      A
 Frequencies --    383.7056               401.5072               429.7622
 Red. masses --      2.6838                 3.7048                 6.7139
 Frc consts  --      0.2328                 0.3519                 0.7306
 IR Inten    --      5.6356                12.2402                 4.7141

                     25                     26                     27
                      A                      A                      A
 Frequencies --    473.5247               500.5365               550.1015
 Red. masses --      5.9413                 4.1239                 7.0660
 Frc consts  --      0.7849                 0.6087                 1.2598
 IR Inten    --      1.5624                 1.7796                 0.3239

                     28                     29                     30
                      A                      A                      A
 Frequencies --    565.8283               590.4791               594.2997
 Red. masses --      5.3488                 3.5501                 5.0152
 Frc consts  --      1.0090                 0.7293                 1.0436
 IR Inten    --      8.5719                 1.8880                10.7466

                     31                     32                     33
                      A                      A                      A
 Frequencies --    632.7106               640.0992               699.5091
 Red. masses --      5.3400                 6.2496                 6.0611
 Frc consts  --      1.2595                 1.5087                 1.7474
 IR Inten    --     18.7053                 3.7165                 8.4555

                     34                     35                     36
                      A                      A                      A
 Frequencies --    735.0636               748.6766               765.4523
 Red. masses --      4.8333                 1.5059                 3.8641
 Frc consts  --      1.5387                 0.4973                 1.3339
 IR Inten    --     23.0669                19.4814                 0.4629

                     37                     38                     39
                      A                      A                      A
 Frequencies --    781.2924               794.9176               851.6589
 Red. masses --      5.6439                 4.5274                 4.3231
 Frc consts  --      2.0298                 1.6856                 1.8475
 IR Inten    --     17.9265                 7.5020                13.9083

                     40                     41                     42
                      A                      A                      A
 Frequencies --    868.6149               882.2559               928.4116
 Red. masses --      2.2813                 1.6552                 6.2170
 Frc consts  --      1.0141                 0.7591                 3.1573
 IR Inten    --     31.3219                16.4512                 9.6295

                     43                     44                     45
                      A                      A                      A
 Frequencies --    953.3099               960.5470               983.3925
 Red. masses --      1.7498                 1.6658                 1.1991
 Frc consts  --      0.9369                 0.9055                 0.6832
 IR Inten    --      1.7466                 3.2663                 0.0554

                     46                     47                     48
                      A                      A                      A
 Frequencies --    993.3594              1011.2406              1042.2110
 Red. masses --      4.0842                 3.8903                 1.8430
 Frc consts  --      2.3745                 2.3439                 1.1795
 IR Inten    --     17.9348                 9.7784                 4.5307

                     49                     50                     51
                      A                      A                      A
 Frequencies --   1058.3539              1062.4142              1067.7794
 Red. masses --      2.0860                 1.4436                 1.5213
 Frc consts  --      1.3767                 0.9600                 1.0219
 IR Inten    --      1.0829                 2.5731                22.6981

                     52                     53                     54
                      A                      A                      A
 Frequencies --   1082.3004              1082.6730              1181.5845
 Red. masses --      3.9333                 1.4740                 3.7122
 Frc consts  --      2.7146                 1.0180                 3.0536
 IR Inten    --      7.9616                 2.6260               442.8453

                     55                     56                     57
                      A                      A                      A
 Frequencies --   1185.1600              1191.7932              1231.2379
 Red. masses --      5.9067                 1.7591                 1.5905
 Frc consts  --      4.8882                 1.4721                 1.4206
 IR Inten    --      8.2186                35.2521                 3.5751

                     58                     59                     60
                      A                      A                      A
 Frequencies --   1245.9684              1268.5604              1284.8256
 Red. masses --      2.6720                 2.7730                 4.1342
 Frc consts  --      2.4440                 2.6292                 4.0210
 IR Inten    --      3.1090                 8.1714                21.1388

                     61                     62                     63
                      A                      A                      A
 Frequencies --   1307.1406              1321.2078              1350.0357
 Red. masses --      1.5203                 2.9831                 3.5818
 Frc consts  --      1.5304                 3.0681                 3.8463
 IR Inten    --     13.4682                54.8142                17.8705

                     64                     65                     66
                      A                      A                      A
 Frequencies --   1408.0289              1422.9169              1430.9264
 Red. masses --      1.3603                 1.2110                 1.2548
 Frc consts  --      1.5889                 1.4446                 1.5138
 IR Inten    --     10.0015                 3.7380                 6.1311

                     67                     68                     69
                      A                      A                      A
 Frequencies --   1451.5419              1454.8536              1459.9213
 Red. masses --      1.6985                 1.7368                 1.3141
 Frc consts  --      2.1085                 2.1660                 1.6502
 IR Inten    --     20.7724                 9.0541                24.5313

                     70                     71                     72
                      A                      A                      A
 Frequencies --   1499.3096              1499.9598              1505.4568
 Red. masses --      1.0437                 1.1140                 1.1167
 Frc consts  --      1.3823                 1.4767                 1.4911
 IR Inten    --      6.6905                 5.1506                14.6913

                     73                     74                     75
                      A                      A                      A
 Frequencies --   1507.8224              1516.0147              1521.3415
 Red. masses --      1.0482                 1.0454                 1.0455
 Frc consts  --      1.4041                 1.4156                 1.4257
 IR Inten    --      0.0060                 0.2596                 0.3776

                     76                     77                     78
                      A                      A                      A
 Frequencies --   1529.8497              1532.7562              1551.6788
 Red. masses --      1.0495                 1.0538                 1.0698
 Frc consts  --      1.4472                 1.4586                 1.5176
 IR Inten    --      5.7508                 6.5987                31.1311

                     79                     80                     81
                      A                      A                      A
 Frequencies --   1566.0628              1628.6525              1661.8247
 Red. masses --      7.5487                 8.4551                 6.6466
 Frc consts  --     10.9079                13.2138                10.8148
 IR Inten    --    566.6502                86.6547                 9.5254

                     82                     83                     84
                      A                      A                      A
 Frequencies --   1793.2246              1810.3466              3051.5326
 Red. masses --     11.4189                11.7801                 1.0353
 Frc consts  --     21.6343                22.7470                 5.6798
 IR Inten    --    456.9082               177.5499                27.8962

                     85                     86                     87
                      A                      A                      A
 Frequencies --   3053.4766              3062.3978              3076.6035
 Red. masses --      1.0362                 1.0365                 1.0365
 Frc consts  --      5.6920                 5.7274                 5.7803
 IR Inten    --     11.0544                27.2331                19.1446

                     88                     89                     90
                      A                      A                      A
 Frequencies --   3115.5526              3117.8993              3118.5926
 Red. masses --      1.1030                 1.0999                 1.0593
 Frc consts  --      6.3080                 6.2998                 6.0702
 IR Inten    --     12.4301                25.6825                16.4411

                     91                     92                     93
                      A                      A                      A
 Frequencies --   3129.9025              3141.2148              3142.7777
 Red. masses --      1.1019                 1.1023                 1.1023
 Frc consts  --      6.3602                 6.4083                 6.4146
 IR Inten    --     38.3007                 5.8751                23.2854

                     94                     95                     96
                      A                      A                      A
 Frequencies --   3147.0084              3151.8664              3155.9402
 Red. masses --      1.1009                 1.1023                 1.1016
 Frc consts  --      6.4238                 6.4519                 6.4642
 IR Inten    --     32.7044                11.8386                 3.2499

                     97                     98                     99
                      A                      A                      A
 Frequencies --   3181.8753              3259.3872              3285.1054
 Red. masses --      1.1112                 1.0923                 1.0951
 Frc consts  --      6.6284                 6.8370                 6.9632
 IR Inten    --      3.8811                 2.5456                 3.6933

 - Thermochemistry -
 -------------------
 Temperature   298.150 Kelvin.  Pressure   1.00000 Atm.
 Atom     1 has atomic number  6 and mass  12.00000

 Molecular mass:   280.08816 amu.
 Principal axes and moments of inertia in atomic units:
                           1         2         3
     Eigenvalues --  2663.15307********************
           X            0.99989  -0.01358  -0.00616
           Y            0.01344   0.99964  -0.02331
           Z            0.00647   0.02323   0.99971
 This molecule is an asymmetric top.
 Rotational symmetry number  1.
 Warning -- assumption of classical behavior for rotation
           may cause significant error
 Rotational temperatures (Kelvin)      0.03252     0.00856     0.00789
 Rotational constants (GHZ):           0.67767     0.17845     0.16430
 Zero-point vibrational energy     734980.2 (Joules/Mol)
                                  175.66447 (Kcal/Mol)
 Warning -- explicit consideration of  30 degrees of freedom as
           vibrations may cause significant error
 Vibrational temperatures:     12.22    26.40    42.96    86.95   108.89
          (Kelvin)            168.71   224.37   246.73   281.37   307.26
                              312.59   342.84   357.45   377.02   385.18
                              417.93   422.36   458.52   489.85   512.12
                              535.90   552.07   577.68   618.33   681.30
                              720.16   791.47   814.10   849.57   855.06
                              910.33   920.96  1006.44  1057.59  1077.18
                             1101.32  1124.11  1143.71  1225.35  1249.74
                             1269.37  1335.78  1371.60  1382.01  1414.88
                             1429.22  1454.95  1499.51  1522.74  1528.58
                             1536.30  1557.19  1557.72  1700.04  1705.18
                             1714.72  1771.48  1792.67  1825.18  1848.58
                             1880.68  1900.92  1942.40  2025.84  2047.26
                             2058.78  2088.44  2093.21  2100.50  2157.17
                             2158.11  2166.02  2169.42  2181.21  2188.87
                             2201.11  2205.29  2232.52  2253.22  2343.27
                             2391.00  2580.05  2604.69  4390.47  4393.27
                             4406.11  4426.55  4482.59  4485.96  4486.96
                             4503.23  4519.51  4521.76  4527.84  4534.83
                             4540.69  4578.01  4689.53  4726.53

 Zero-point correction=                           0.279939 (Hartree/Particle)
 Thermal correction to Energy=                    0.298655
 Thermal correction to Enthalpy=                  0.299599
 Thermal correction to Gibbs Free Energy=         0.230396
 Sum of electronic and zero-point Energies=          -1238.204035
 Sum of electronic and thermal Energies=             -1238.185320
 Sum of electronic and thermal Enthalpies=           -1238.184375
 Sum of electronic and thermal Free Energies=        -1238.253578

                     E (Thermal)             CV                S
                      KCal/Mol        Cal/Mol-Kelvin    Cal/Mol-Kelvin
 Total                  187.409             70.429            145.649
 Electronic               0.000              0.000              0.000
 Translational            0.889              2.981             42.788
 Rotational               0.889              2.981             34.047
 Vibrational            185.631             64.467             68.814
 Vibration     1          0.593              1.987              8.335
 Vibration     2          0.593              1.986              6.806
 Vibration     3          0.594              1.984              5.839
 Vibration     4          0.597              1.973              4.443
 Vibration     5          0.599              1.965              4.000
 Vibration     6          0.608              1.935              3.145
 Vibration     7          0.620              1.896              2.598
 Vibration     8          0.626              1.878              2.419
 Vibration     9          0.636              1.846              2.174
 Vibration    10          0.644              1.820              2.013
 Vibration    11          0.646              1.815              1.982
 Vibration    12          0.656              1.782              1.816
 Vibration    13          0.662              1.765              1.742
 Vibration    14          0.669              1.742              1.648
 Vibration    15          0.673              1.732              1.611
 Vibration    16          0.686              1.691              1.471
 Vibration    17          0.688              1.686              1.453
 Vibration    18          0.705              1.638              1.317
 Vibration    19          0.720              1.595              1.210
 Vibration    20          0.731              1.563              1.140
 Vibration    21          0.744              1.529              1.070
 Vibration    22          0.753              1.505              1.025
 Vibration    23          0.767              1.467              0.957
 Vibration    24          0.791              1.405              0.859
 Vibration    25          0.830              1.309              0.728
 Vibration    26          0.856              1.249              0.657
 Vibration    27          0.905              1.139              0.544
 Vibration    28          0.922              1.105              0.512
 Vibration    29          0.948              1.052              0.466
 Vibration    30          0.952              1.044              0.460

 Optimization completed.
    -- Stationary point found.
 Normal termination of Gaussian 16 at Mon Dec 14 13:51:25 2020.

 ----------------------------------------------------------------------
 # B3LYP/6-311++G(d,p) empiricaldispersion=gd3bj scf=xqc pop=npa geom=c
 heck
 ----------------------------------------------------------------------

 --------------------------------------
 CID_20946484_JID_9307_Energie_neutraal
 --------------------------------------
 Structure from the checkpoint file:  "JID_9307.chk"
 Charge =  0 Multiplicity = 1

 SCF Done:  E(RB3LYP) =  -1238.74180998     A.U. after   17 cycles
 Normal termination of Gaussian 16 at Mon Dec 14 14:00:00 2020.

 ----------------------------------------------------------------------
 # B3LYP/6-311++G(d,p) empiricaldispersion=gd3bj scf=xqc pop=npa geom=c
 heck
 ----------------------------------------------------------------------

 ------------------------------------
 CID_20946484_JID_9307_Energie_kation
 ------------------------------------
 Structure from the checkpoint file:  "JID_9307.chk"
 Charge =  1 Multiplicity = 2

 SCF Done:  E(UB3LYP) =  -1238.44839689     A.U. after   27 cycles
 Normal termination of Gaussian 16 at Mon Dec 14 14:19:24 2020.
 Gaussian 16:  ES64L-G16RevA.03 25-Dec-2016

 ----------------------------------------------------------------------
 # B3LYP/6-311++G(d,p) empiricaldispersion=gd3bj scf=xqc pop=npa geom=c
 heck
 ----------------------------------------------------------------------

 -----------------------------------
 CID_20946484_JID_9307_Energie_anion
 -----------------------------------
 Structure from the checkpoint file:  "JID_9307.chk"
 Charge = -1 Multiplicity = 2

                         Standard orientation:
 ---------------------------------------------------------------------
 Center     Atomic      Atomic             Coordinates (Angstroms)
 Number     Number       Type             X           Y           Z
 ---------------------------------------------------------------------
      1          6           0        4.339010   -1.740415    0.929236
      2          6           0        3.680054   -0.442062    0.582334
      3          6           0        4.195055    0.783101    0.819085
      4         16           0        3.163620    2.094710    0.287818
      5          6           0        1.980961    0.930810   -0.279855
      6          7           0        0.859046    1.276613   -0.842004
      7          6           0        0.046329    0.246264   -1.226880
      8          6           0        0.363561   -1.075732   -1.051068
      9          6           0        1.596405   -1.489230   -0.436529
     10          8           0        1.975936   -2.632878   -0.234555
     11          7           0        2.416404   -0.360752   -0.045029
     12          6           0       -1.270557    0.665485   -1.832017
     13          8           0       -2.254204    0.853525   -0.789647
     14          6           0       -2.956914   -0.247746   -0.421241
     15          8           0       -2.841673   -1.324215   -0.967634
     16          6           0       -3.867780    0.052855    0.768136
     17          6           0       -2.965004    0.384384    1.976405
     18          6           0       -4.769545    1.259349    0.442074
     19          6           0       -4.719864   -1.187009    1.066065
     20          1           0        5.300692   -1.524443    1.403839
     21          1           0        4.504627   -2.355657    0.042174
     22          1           0        3.724829   -2.331953    1.611697
     23          1           0        5.145940    0.989517    1.287991
     24          1           0       -0.318702   -1.860137   -1.351223
     25          1           0       -1.165398    1.642887   -2.302448
     26          1           0       -1.637047   -0.075789   -2.543040
     27          1           0       -2.346482    1.263650    1.776988
     28          1           0       -3.586789    0.586371    2.855687
     29          1           0       -2.303835   -0.456469    2.214539
     30          1           0       -5.405076    1.053382   -0.426649
     31          1           0       -5.423748    1.469815    1.295540
     32          1           0       -4.176752    2.152755    0.230589
     33          1           0       -5.351706   -1.446377    0.211208
     34          1           0       -4.091223   -2.053526    1.288563
     35          1           0       -5.366141   -0.992210    1.928891
 ---------------------------------------------------------------------

 SCF Done:  E(UB3LYP) =  -1238.75266925     A.U. after   33 cycles
 SCF Done:  E(UB3LYP) =  -1238.75266925     a.u. after    1 cycles

 The electronic state is 2-A.
 Alpha  occ. eigenvalues --  -88.74160 -19.04613 -19.00093 -18.93630 -14.23459
 Alpha  occ. eigenvalues --  -14.16216 -10.18805 -10.12169 -10.11852 -10.10430
 Alpha  occ. eigenvalues --  -10.09987 -10.09589 -10.07711 -10.07219 -10.07171
 Alpha  occ. eigenvalues --  -10.06636 -10.06083 -10.04870 -10.00445  -7.82855
 Alpha  occ. eigenvalues --   -5.79178  -5.78835  -5.78369  -0.99033  -0.90722
 Alpha  occ. eigenvalues --   -0.90214  -0.85486  -0.78072  -0.73408  -0.69627
 Alpha  occ. eigenvalues --   -0.66039  -0.63365  -0.60392  -0.60185  -0.59169
 Alpha  occ. eigenvalues --   -0.56007  -0.52268  -0.49344  -0.48148  -0.45453
 Alpha  occ. eigenvalues --   -0.43243  -0.40097  -0.38391  -0.37429  -0.36976
 Alpha  occ. eigenvalues --   -0.35764  -0.34360  -0.34103  -0.33879  -0.32770
 Alpha  occ. eigenvalues --   -0.31620  -0.31317  -0.30556  -0.29546  -0.29350
 Alpha  occ. eigenvalues --   -0.28853  -0.28038  -0.27824  -0.27141  -0.26622
 Alpha  occ. eigenvalues --   -0.25512  -0.25121  -0.24394  -0.24234  -0.23386
 Alpha  occ. eigenvalues --   -0.23168  -0.21119  -0.18913  -0.16853  -0.16569
 Alpha  occ. eigenvalues --   -0.13877  -0.12778  -0.11682  -0.07442   0.04503
 Alpha virt. eigenvalues --    0.06327   0.07975   0.08472   0.08953   0.09674
 Alpha virt. eigenvalues --    0.10049   0.10686   0.11079   0.11420   0.11834
 Alpha virt. eigenvalues --    0.12029   0.12137   0.12361   0.12970   0.13000

  Beta  occ. eigenvalues --  -88.74113 -19.04522 -19.00063 -18.93485 -14.23272
  Beta  occ. eigenvalues --  -14.16412 -10.18794 -10.12069 -10.11439 -10.10425
  Beta  occ. eigenvalues --  -10.10040 -10.09601 -10.07702 -10.07217 -10.07170
  Beta  occ. eigenvalues --  -10.06421 -10.06080 -10.04409 -10.00305  -7.82813
  Beta  occ. eigenvalues --   -5.79164  -5.78820  -5.78203  -0.98919  -0.90609
  Beta  occ. eigenvalues --   -0.89890  -0.85137  -0.77861  -0.73385  -0.69313
  Beta  occ. eigenvalues --   -0.65740  -0.63155  -0.60330  -0.60118  -0.58894
  Beta  occ. eigenvalues --   -0.55780  -0.52004  -0.49099  -0.47752  -0.45154
  Beta  occ. eigenvalues --   -0.43068  -0.40036  -0.38156  -0.37342  -0.36864
  Beta  occ. eigenvalues --   -0.35623  -0.34192  -0.34062  -0.33239  -0.32646
  Beta  occ. eigenvalues --   -0.31516  -0.31222  -0.30543  -0.29471  -0.28949
  Beta  occ. eigenvalues --   -0.28704  -0.28023  -0.27679  -0.27003  -0.26508
  Beta  occ. eigenvalues --   -0.25406  -0.25069  -0.24322  -0.23316  -0.23198
  Beta  occ. eigenvalues --   -0.22951  -0.20342  -0.18728  -0.16766  -0.15529
  Beta  occ. eigenvalues --   -0.13972  -0.11487  -0.11066  -0.06579
  Beta virt. eigenvalues --    0.06265   0.07940   0.08349   0.08854   0.09610
  Beta virt. eigenvalues --    0.10011   0.10261   0.10773   0.11052   0.11395
  Beta virt. eigenvalues --    0.11841   0.12057   0.12294   0.12459   0.13044

 Mulliken charges and spin densities:
               1          2
     1  C   -0.718482   0.018154
     2  C    0.138614  -0.074714
     3  C   -0.214361   0.168043
     4  S   -0.342397   0.081105
     5  C   -0.248627   0.243233
     6  N    0.062845  -0.110167
     7  C    0.333356   0.403098
     8  C    0.135371   0.125728
     9  C   -0.341988   0.050628
    10  O   -0.397694   0.051806
    11  N    0.262455   0.050682
    12  C   -0.514156  -0.076910
    13  O    0.107105  -0.000586
    14  C   -0.494176  -0.075738
    15  O   -0.221003   0.006921
    16  C    0.525916   0.192817
    17  C   -0.528341  -0.031314
    18  C   -0.337231  -0.185441
    19  C   -0.562104  -0.041507
    20  H    0.105404  -0.001060
    21  H    0.179301  -0.003335
    22  H    0.178335  -0.002644
    23  H    0.208490  -0.012576
    24  H    0.215686  -0.005342
    25  H    0.151951   0.023584
    26  H    0.149369   0.017874
    27  H    0.138452   0.022636
    28  H    0.143973  -0.000219
    29  H    0.156831  -0.000488
    30  H    0.071432   0.064649
    31  H    0.074929   0.056994
    32  H    0.152300   0.023239
    33  H    0.137777   0.010939
    34  H    0.169824   0.003430
    35  H    0.120844   0.006481
 Sum of Mulliken charges =  -1.00000   1.00000

 Dipole moment (field-independent basis, Debye):
    X=             -3.0591    Y=              2.1142    Z=              2.7760  Tot=              4.6405
 Quadrupole moment (field-independent basis, Debye-Ang):
   XX=           -154.1761   YY=           -154.0487   ZZ=           -129.5630
   XY=             -0.9114   XZ=             -0.7464   YZ=             -2.8152

 Summary of Natural Population Analysis:

                                       Natural Population
                Natural  -----------------------------------------------
    Atom  No    Charge         Core      Valence    Rydberg      Total
 -----------------------------------------------------------------------
      C    1   -0.29339      0.99963     2.28903    0.00473     3.29339
      C    2    0.06909      0.99948     1.92166    0.00977     2.93091
      C    3   -0.16993      0.99943     2.16092    0.00958     3.16993
      S    4    0.18148      4.99947     2.79617    0.02288     7.81852
      C    5    0.21995      0.99959     1.76277    0.01770     2.78005
      N    6   -0.31474      0.99963     2.80409    0.01102     3.81474
      C    7    0.16903      0.99951     1.81873    0.01273     2.83097
      C    8   -0.16188      0.99947     2.15444    0.00796     3.16188
      C    9    0.33799      0.99962     1.64106    0.02133     2.66201
      O   10   -0.32644      0.99988     3.32017    0.00639     4.32644
      N   11   -0.21631      0.99956     2.70587    0.01089     3.71631
      C   12   -0.02811      0.99952     2.01607    0.01252     3.02811
      O   13   -0.27593      0.99986     3.26693    0.00915     4.27593
      C   14    0.41533      0.99961     1.55542    0.02964     2.58467
      O   15   -0.30577      0.99987     3.30054    0.00536     4.30577
      C   16   -0.08572      0.99955     2.07659    0.00958     3.08572
      C   17   -0.28102      0.99964     2.27584    0.00554     3.28102
      C   18   -0.28086      0.99964     2.27541    0.00581     3.28086
      C   19   -0.28199      0.99964     2.27600    0.00635     3.28199
      H   20    0.09249      0.00000     0.40645    0.00106     0.40751
      H   21    0.11172      0.00000     0.38713    0.00114     0.38828
      H   22    0.11171      0.00000     0.38714    0.00114     0.38829
      H   23    0.10139      0.00000     0.39764    0.00097     0.39861
      H   24    0.10859      0.00000     0.38982    0.00159     0.39141
      H   25    0.09525      0.00000     0.40243    0.00231     0.40475
      H   26    0.09466      0.00000     0.40323    0.00211     0.40534
      H   27    0.11092      0.00000     0.38796    0.00112     0.38908
      H   28    0.09294      0.00000     0.40619    0.00086     0.40706
      H   29    0.10487      0.00000     0.39434    0.00079     0.39513
      H   30    0.09867      0.00000     0.40034    0.00099     0.40133
      H   31    0.09421      0.00000     0.40480    0.00099     0.40579
      H   32    0.10938      0.00000     0.38951    0.00111     0.39062
      H   33    0.10218      0.00000     0.39688    0.00095     0.39782
      H   34    0.10750      0.00000     0.39172    0.00078     0.39250
      H   35    0.09274      0.00000     0.40639    0.00086     0.40726
 =======================================================================
   * Total *    0.00000     22.99260    50.76968    0.23771    74.00000

 Normal termination of Gaussian 16 at Mon Dec 14 14:42:55 2020.
