 Gaussian 16, Revision A.03,

 -----------------------------------------------------------
 # opt freq B3LYP/6-31G(d) empiricaldispersion=gd3bj scf=xqc
 -----------------------------------------------------------

 ------------------------------
 CID_62131647_JID_4715_neutraal
 ------------------------------
 Symbolic Z-matrix:
 Charge =  0 Multiplicity = 1

 SCF Done:  E(RB3LYP) =  -610.943989234     A.U. after   14 cycles
 SCF Done:  E(RB3LYP) =  -610.948758242     A.U. after   12 cycles
 SCF Done:  E(RB3LYP) =  -610.949347543     A.U. after   11 cycles
 SCF Done:  E(RB3LYP) =  -610.949535478     A.U. after   11 cycles
 SCF Done:  E(RB3LYP) =  -610.949583492     A.U. after   10 cycles
 SCF Done:  E(RB3LYP) =  -610.949609553     A.U. after   10 cycles
 SCF Done:  E(RB3LYP) =  -610.949623031     A.U. after    9 cycles
 SCF Done:  E(RB3LYP) =  -610.949633955     A.U. after   10 cycles
 SCF Done:  E(RB3LYP) =  -610.949639216     A.U. after    9 cycles
 SCF Done:  E(RB3LYP) =  -610.949639718     A.U. after    8 cycles
 SCF Done:  E(RB3LYP) =  -610.949639712     A.U. after    7 cycles
 SCF Done:  E(RB3LYP) =  -610.949639614     A.U. after    7 cycles
 Optimization completed.
    -- Stationary point found.
 Normal termination of Gaussian 16 at Thu Dec 10 10:24:12 2020.

 --------------------------------------------------------------------
 #N Geom=AllCheck Guess=TCheck SCRF=Check GenChk RB3LYP/6-31G(d) Freq
 --------------------------------------------------------------------

 Structure from the checkpoint file:  "JID_4715.chk"
 ------------------------------
 CID_62131647_JID_4715_neutraal
 ------------------------------
 Charge =  0 Multiplicity = 1

 SCF Done:  E(RB3LYP) =  -610.949639614     A.U. after    1 cycles

  Exact polarizability: 161.800   0.767 122.305  -6.927  -2.084  93.478
 Approx polarizability: 202.356  -0.687 194.102 -13.107  -6.822 140.933

                      1                      2                      3
                      A                      A                      A
 Frequencies --     44.5878                57.6091                88.2528
 Red. masses --      3.5310                 3.6168                 2.6540
 Frc consts  --      0.0041                 0.0071                 0.0122
 IR Inten    --      3.4379                 2.2082                 1.3502

                      4                      5                      6
                      A                      A                      A
 Frequencies --     97.3634               160.6849               168.1519
 Red. masses --      3.5640                 1.9673                 1.3625
 Frc consts  --      0.0199                 0.0299                 0.0227
 IR Inten    --      0.5634                 0.6196                 1.1655

                      7                      8                      9
                      A                      A                      A
 Frequencies --    182.2308               216.6469               228.6938
 Red. masses --      2.2305                 2.7232                 3.2786
 Frc consts  --      0.0436                 0.0753                 0.1010
 IR Inten    --      0.6691                 2.2382                 2.5987

                     10                     11                     12
                      A                      A                      A
 Frequencies --    252.8458               316.8075               344.5953
 Red. masses --      1.5323                 2.1313                 2.6059
 Frc consts  --      0.0577                 0.1260                 0.1823
 IR Inten    --      1.8212                 1.9034                 4.4835

                     13                     14                     15
                      A                      A                      A
 Frequencies --    388.5766               395.4562               429.2158
 Red. masses --      2.4290                 2.3489                 2.2703
 Frc consts  --      0.2161                 0.2164                 0.2464
 IR Inten    --      0.3024                 2.5734                 6.1435

                     16                     17                     18
                      A                      A                      A
 Frequencies --    481.0814               521.1219               582.6359
 Red. masses --      2.8593                 3.2753                 4.2288
 Frc consts  --      0.3899                 0.5241                 0.8458
 IR Inten    --      5.9930                 0.7455                 2.7005

                     19                     20                     21
                      A                      A                      A
 Frequencies --    607.2489               631.9947               667.0200
 Red. masses --      3.5995                 4.6051                 2.1672
 Frc consts  --      0.7820                 1.0837                 0.5681
 IR Inten    --      5.3074                 2.4039                21.8732

                     22                     23                     24
                      A                      A                      A
 Frequencies --    694.8632               732.1412               753.2136
 Red. masses --      1.2582                 5.0463                 6.8359
 Frc consts  --      0.3579                 1.5937                 2.2850
 IR Inten    --     40.5059                 2.7209                 0.8395

                     25                     26                     27
                      A                      A                      A
 Frequencies --    797.2408               824.0907               831.5482
 Red. masses --      1.5714                 1.6563                 1.2683
 Frc consts  --      0.5884                 0.6627                 0.5167
 IR Inten    --     34.4697                11.7058                 6.1221

                     28                     29                     30
                      A                      A                      A
 Frequencies --    837.9914               888.9120               905.5215
 Red. masses --      2.4936                 2.7397                 2.5012
 Frc consts  --      1.0317                 1.2755                 1.2084
 IR Inten    --     10.1409                 7.0698                 5.0143

                     31                     32                     33
                      A                      A                      A
 Frequencies --    939.6159               977.6908              1022.0267
 Red. masses --      3.4740                 2.4057                 1.6315
 Frc consts  --      1.8071                 1.3549                 1.0041
 IR Inten    --      2.2288                 4.1110                 7.5245

                     34                     35                     36
                      A                      A                      A
 Frequencies --   1030.6065              1050.4062              1064.7252
 Red. masses --      2.2644                 2.3656                 1.8192
 Frc consts  --      1.4171                 1.5378                 1.2151
 IR Inten    --      7.2749                42.2028                 1.7601

                     37                     38                     39
                      A                      A                      A
 Frequencies --   1088.6246              1111.3022              1121.0083
 Red. masses --      1.6243                 1.2805                 2.1783
 Frc consts  --      1.1342                 0.9318                 1.6128
 IR Inten    --      4.4339                 8.8576                22.1325

                     40                     41                     42
                      A                      A                      A
 Frequencies --   1131.3628              1146.2150              1162.8460
 Red. masses --      3.0576                 1.4713                 1.3013
 Frc consts  --      2.3058                 1.1389                 1.0367
 IR Inten    --     11.8865                 2.5836                 3.6486

                     43                     44                     45
                      A                      A                      A
 Frequencies --   1176.7576              1191.1213              1204.5738
 Red. masses --      1.9636                 2.2884                 1.6490
 Frc consts  --      1.6021                 1.9129                 1.4097
 IR Inten    --     56.6727                18.9234                 0.4161

                     46                     47                     48
                      A                      A                      A
 Frequencies --   1215.0760              1241.1361              1283.7965
 Red. masses --      1.4737                 2.2649                 1.4339
 Frc consts  --      1.2819                 2.0556                 1.3924
 IR Inten    --      7.2904                16.9517                 7.7079

                     49                     50                     51
                      A                      A                      A
 Frequencies --   1300.5735              1321.2716              1365.6301
 Red. masses --      1.3146                 2.6338                 1.9156
 Frc consts  --      1.3101                 2.7091                 2.1048
 IR Inten    --      4.1679                34.7327                10.3121

                     52                     53                     54
                      A                      A                      A
 Frequencies --   1372.1670              1379.9808              1385.3427
 Red. masses --      1.4243                 1.4189                 2.0594
 Frc consts  --      1.5800                 1.5921                 2.3286
 IR Inten    --      2.3319                 1.6216                52.3433

                     55                     56                     57
                      A                      A                      A
 Frequencies --   1389.8067              1408.8629              1415.2047
 Red. masses --      1.8817                 1.3647                 1.4011
 Frc consts  --      2.1414                 1.5960                 1.6533
 IR Inten    --     26.4475                 3.2995                 3.2924

                     58                     59                     60
                      A                      A                      A
 Frequencies --   1433.5200              1453.6921              1483.0634
 Red. masses --      1.3620                 1.5386                 1.1948
 Frc consts  --      1.6490                 1.9156                 1.5483
 IR Inten    --      5.3817                40.1688                 2.6927

                     61                     62                     63
                      A                      A                      A
 Frequencies --   1497.5549              1498.8762              1504.0113
 Red. masses --      1.3538                 1.2763                 1.1614
 Frc consts  --      1.7889                 1.6894                 1.5478
 IR Inten    --     63.3513                37.1620                19.8309

                     64                     65                     66
                      A                      A                      A
 Frequencies --   1509.5221              1518.3888              1524.7461
 Red. masses --      1.1166                 1.2911                 1.2291
 Frc consts  --      1.4991                 1.7537                 1.6836
 IR Inten    --      9.2486                 8.9447                11.2530

                     67                     68                     69
                      A                      A                      A
 Frequencies --   1526.9459              1531.8450              1539.1164
 Red. masses --      1.1015                 1.1180                 1.1493
 Frc consts  --      1.5131                 1.5457                 1.6040
 IR Inten    --      3.6354                 8.9190                 4.2026

                     70                     71                     72
                      A                      A                      A
 Frequencies --   1550.1127              1552.6452              1580.8345
 Red. masses --      1.1565                 2.4719                 4.0259
 Frc consts  --      1.6373                 3.5110                 5.9277
 IR Inten    --      5.3819                31.4453               110.2456

                     73                     74                     75
                      A                      A                      A
 Frequencies --   2920.4333              2952.3622              3029.2857
 Red. masses --      1.0827                 1.0615                 1.0675
 Frc consts  --      5.4405                 5.4514                 5.7717
 IR Inten    --     78.8536               113.9794                50.0226

                     76                     77                     78
                      A                      A                      A
 Frequencies --   3050.3902              3062.8565              3069.0150
 Red. masses --      1.0396                 1.0670                 1.0640
 Frc consts  --      5.6995                 5.8976                 5.9048
 IR Inten    --     48.9007                27.7148                48.3937

                     79                     80                     81
                      A                      A                      A
 Frequencies --   3073.9707              3086.8772              3090.0378
 Red. masses --      1.0615                 1.0716                 1.0935
 Frc consts  --      5.9100                 6.0161                 6.1519
 IR Inten    --     22.4578                48.5416                24.5674

                     82                     83                     84
                      A                      A                      A
 Frequencies --   3118.3523              3120.9960              3123.0721
 Red. masses --      1.0974                 1.1066                 1.0980
 Frc consts  --      6.2875                 6.3510                 6.3101
 IR Inten    --     24.6937                26.9638                23.1653

                     85                     86                     87
                      A                      A                      A
 Frequencies --   3126.3945              3134.4746              3159.1429
 Red. masses --      1.1020                 1.1024                 1.1039
 Frc consts  --      6.3462                 6.3816                 6.4911
 IR Inten    --     38.7793                18.8078                 3.7448

                     88                     89                     90
                      A                      A                      A
 Frequencies --   3255.5780              3285.2462              3481.5526
 Red. masses --      1.0914                 1.1036                 1.0739
 Frc consts  --      6.8151                 7.0179                 7.6697
 IR Inten    --     10.5136                 7.1533                 2.1505

 - Thermochemistry -
 -------------------
 Temperature   298.150 Kelvin.  Pressure   1.00000 Atm.
 Atom     1 has atomic number  6 and mass  12.00000

 Molecular mass:   194.15315 amu.
 Principal axes and moments of inertia in atomic units:
                           1         2         3
     Eigenvalues --  1073.231894499.154694906.22100
           X            0.99990  -0.01438  -0.00094
           Y            0.01439   0.99985   0.00937
           Z            0.00081  -0.00938   0.99996
 This molecule is an asymmetric top.
 Rotational symmetry number  1.
 Warning -- assumption of classical behavior for rotation
           may cause significant error
 Rotational temperatures (Kelvin)      0.08070     0.01925     0.01765
 Rotational constants (GHZ):           1.68159     0.40113     0.36785
 Zero-point vibrational energy     750483.2 (Joules/Mol)
                                  179.36978 (Kcal/Mol)
 Warning -- explicit consideration of  19 degrees of freedom as
           vibrations may cause significant error
 Vibrational temperatures:     64.15    82.89   126.98   140.08   231.19
          (Kelvin)            241.93   262.19   311.71   329.04   363.79
                              455.82   495.80   559.08   568.97   617.55
                              692.17   749.78   838.28   873.70   909.30
                              959.69   999.75  1053.39  1083.71  1147.05
                             1185.68  1196.41  1205.68  1278.95  1302.84
                             1351.90  1406.68  1470.47  1482.81  1511.30
                             1531.90  1566.29  1598.92  1612.88  1627.78
                             1649.15  1673.08  1693.09  1713.76  1733.11
                             1748.22  1785.72  1847.10  1871.24  1901.02
                             1964.84  1974.24  1985.48  1993.20  1999.62
                             2027.04  2036.16  2062.52  2091.54  2133.80
                             2154.65  2156.55  2163.94  2171.87  2184.62
                             2193.77  2196.93  2203.98  2214.45  2230.27
                             2233.91  2274.47  4201.85  4247.79  4358.47
                             4388.83  4406.77  4415.63  4422.76  4441.33
                             4445.88  4486.61  4490.42  4493.40  4498.18
                             4509.81  4545.30  4684.05  4726.74  5009.18

 Zero-point correction=                           0.285844 (Hartree/Particle)
 Thermal correction to Energy=                    0.299220
 Thermal correction to Enthalpy=                  0.300165
 Thermal correction to Gibbs Free Energy=         0.245721
 Sum of electronic and zero-point Energies=           -610.663796
 Sum of electronic and thermal Energies=              -610.650419
 Sum of electronic and thermal Enthalpies=            -610.649475
 Sum of electronic and thermal Free Energies=         -610.703918

                     E (Thermal)             CV                S
                      KCal/Mol        Cal/Mol-Kelvin    Cal/Mol-Kelvin
 Total                  187.764             51.724            114.586
 Electronic               0.000              0.000              0.000
 Translational            0.889              2.981             41.696
 Rotational               0.889              2.981             31.538
 Vibrational            185.986             45.762             41.352
 Vibration     1          0.595              1.980              5.044
 Vibration     2          0.596              1.974              4.537
 Vibration     3          0.601              1.957              3.698
 Vibration     4          0.603              1.951              3.506
 Vibration     5          0.622              1.891              2.542
 Vibration     6          0.625              1.882              2.456
 Vibration     7          0.630              1.864              2.305
 Vibration     8          0.645              1.816              1.987
 Vibration     9          0.651              1.797              1.889
 Vibration    10          0.664              1.758              1.711
 Vibration    11          0.704              1.642              1.327
 Vibration    12          0.723              1.586              1.191
 Vibration    13          0.757              1.495              1.006
 Vibration    14          0.762              1.480              0.980
 Vibration    15          0.791              1.407              0.861
 Vibration    16          0.837              1.292              0.707
 Vibration    17          0.876              1.203              0.607
 Vibration    18          0.939              1.069              0.481
 Vibration    19          0.966              1.016              0.437

                           ! Non-Optimized Parameters !
 Normal termination of Gaussian 16 at Thu Dec 10 10:33:30 2020.

 ----------------------------------------------------------------------
 # B3LYP/6-311++G(d,p) empiricaldispersion=gd3bj scf=xqc pop=npa geom=c
 heck
 ----------------------------------------------------------------------

 --------------------------------------
 CID_62131647_JID_4715_Energie_neutraal
 --------------------------------------
 Structure from the checkpoint file:  "JID_4715.chk"
 Charge =  0 Multiplicity = 1

 SCF Done:  E(RB3LYP) =  -611.116944199     A.U. after   14 cycles
 Normal termination of Gaussian 16 at Thu Dec 10 10:37:18 2020.

 ----------------------------------------------------------------------
 # B3LYP/6-311++G(d,p) empiricaldispersion=gd3bj scf=xqc pop=npa geom=c
 heck
 ----------------------------------------------------------------------

 ------------------------------------
 CID_62131647_JID_4715_Energie_kation
 ------------------------------------
 Structure from the checkpoint file:  "JID_4715.chk"
 Charge =  1 Multiplicity = 2

 SCF Done:  E(UB3LYP) =  -610.853477770     A.U. after   22 cycles
 Normal termination of Gaussian 16 at Thu Dec 10 10:46:24 2020.
 Gaussian 16:  ES64L-G16RevA.03 25-Dec-2016

 ----------------------------------------------------------------------
 # B3LYP/6-311++G(d,p) empiricaldispersion=gd3bj scf=xqc pop=npa geom=c
 heck
 ----------------------------------------------------------------------

 -----------------------------------
 CID_62131647_JID_4715_Energie_anion
 -----------------------------------
 Structure from the checkpoint file:  "JID_4715.chk"
 Charge = -1 Multiplicity = 2

                         Standard orientation:
 ---------------------------------------------------------------------
 Center     Atomic      Atomic             Coordinates (Angstroms)
 Number     Number       Type             X           Y           Z
 ---------------------------------------------------------------------
      1          6           0        4.427903   -0.114214   -0.373786
      2          7           0        3.228923    0.566851    0.100795
      3          6           0        2.232123   -0.319363    0.717960
      4          6           0        1.561040   -1.219962   -0.333069
      5          6           0        0.705485   -0.403944   -1.309894
      6          7           0       -0.288591    0.452478   -0.639038
      7          6           0        0.344975    1.333289    0.362988
      8          6           0        1.155362    0.541935    1.397473
      9          6           0       -1.440478   -0.207446   -0.202439
     10          7           0       -1.580036   -1.486147    0.107916
     11          6           0       -2.913636   -1.644695    0.425020
     12          6           0       -3.580561   -0.452986    0.322789
     13          7           0       -2.634325    0.470131   -0.095782
     14          6           0       -2.869831    1.852228   -0.460279
     15          1           0        4.201559   -0.701540   -1.269289
     16          1           0        4.878571   -0.798954    0.369318
     17          1           0        5.178605    0.631665   -0.653774
     18          1           0        3.504947    1.260052    0.794133
     19          1           0        2.701361   -0.970107    1.481315
     20          1           0        2.312156   -1.790935   -0.891570
     21          1           0        0.916016   -1.940060    0.177992
     22          1           0        1.347875    0.259566   -1.899413
     23          1           0        0.169506   -1.066218   -1.993657
     24          1           0       -0.433550    1.923998    0.854915
     25          1           0        1.002275    2.023147   -0.175588
     26          1           0        0.481154   -0.112711    1.961867
     27          1           0        1.617501    1.232305    2.117866
     28          1           0       -3.309088   -2.607785    0.718015
     29          1           0       -4.606677   -0.168162    0.501139
     30          1           0       -3.845889    1.943272   -0.944518
     31          1           0       -2.844758    2.514857    0.413185
     32          1           0       -2.087644    2.155360   -1.159743
 ---------------------------------------------------------------------

 SCF Done:  E(UB3LYP) =  -611.103516078     A.U. after   30 cycles

 The electronic state is 2-A.
 Alpha  occ. eigenvalues --  -14.26684 -14.22150 -14.19828 -14.18871 -10.14941
 Alpha  occ. eigenvalues --  -10.10843 -10.09878 -10.09660 -10.09475 -10.09393
 Alpha  occ. eigenvalues --  -10.08991 -10.08437 -10.06646 -10.05992  -0.92466
 Alpha  occ. eigenvalues --   -0.83674  -0.80635  -0.78483  -0.68399  -0.65770
 Alpha  occ. eigenvalues --   -0.64201  -0.61320  -0.57351  -0.54256  -0.53126
 Alpha  occ. eigenvalues --   -0.49977  -0.47620  -0.44506  -0.41948  -0.39297
 Alpha  occ. eigenvalues --   -0.38563  -0.37993  -0.36436  -0.35634  -0.34585
 Alpha  occ. eigenvalues --   -0.33632  -0.33154  -0.32673  -0.30993  -0.30083
 Alpha  occ. eigenvalues --   -0.29381  -0.28904  -0.28637  -0.27725  -0.26561
 Alpha  occ. eigenvalues --   -0.25082  -0.23333  -0.21965  -0.17562  -0.17230
 Alpha  occ. eigenvalues --   -0.16023  -0.13211  -0.10563   0.04219
 Alpha virt. eigenvalues --    0.05758   0.07273   0.07644   0.08284   0.08612
 Alpha virt. eigenvalues --    0.08860   0.09852   0.10624   0.10892   0.11162
 Alpha virt. eigenvalues --    0.11311   0.11987   0.12480   0.13212   0.13442

  Beta  occ. eigenvalues --  -14.26683 -14.22151 -14.19804 -14.18869 -10.14939
  Beta  occ. eigenvalues --  -10.10787 -10.09873 -10.09644 -10.09460 -10.09387
  Beta  occ. eigenvalues --  -10.08961 -10.08436 -10.06629 -10.05987  -0.92460
  Beta  occ. eigenvalues --   -0.83665  -0.80605  -0.78474  -0.68375  -0.65748
  Beta  occ. eigenvalues --   -0.64172  -0.61265  -0.57292  -0.54228  -0.53086
  Beta  occ. eigenvalues --   -0.49959  -0.47590  -0.44458  -0.41906  -0.39259
  Beta  occ. eigenvalues --   -0.38521  -0.37965  -0.36396  -0.35604  -0.34552
  Beta  occ. eigenvalues --   -0.33602  -0.33123  -0.32641  -0.30974  -0.30049
  Beta  occ. eigenvalues --   -0.29349  -0.28873  -0.28607  -0.27699  -0.26534
  Beta  occ. eigenvalues --   -0.25068  -0.23315  -0.21937  -0.17554  -0.17218
  Beta  occ. eigenvalues --   -0.16014  -0.13174  -0.10553
  Beta virt. eigenvalues --    0.06435   0.07014   0.07903   0.08094   0.08716
  Beta virt. eigenvalues --    0.08933   0.09556   0.10216   0.10923   0.11097
  Beta virt. eigenvalues --    0.11274   0.11538   0.12376   0.12923   0.13512

 Mulliken charges and spin densities:
               1          2
     1  C    0.637136  -0.982451
     2  N   -0.177788   0.080890
     3  C   -0.314527  -0.006615
     4  C    0.120279  -0.437722
     5  C   -0.119292   0.081387
     6  N    0.194575   0.048343
     7  C   -0.085156  -0.157170
     8  C    0.325399  -0.688052
     9  C   -0.568309  -0.393596
    10  N   -0.144882   0.070301
    11  C    0.131941  -0.198630
    12  C   -0.017934  -0.134640
    13  N   -0.253726   0.268067
    14  C    1.319319  -1.617109
    15  H   -0.112473   0.229361
    16  H   -0.162339   0.283459
    17  H   -0.377931   0.513606
    18  H   -0.000177   0.236703
    19  H   -0.009334   0.182694
    20  H    0.271730  -0.114711
    21  H    0.133804   0.054871
    22  H    0.051298   0.145585
    23  H    0.118970   0.055608
    24  H    0.167570  -0.019622
    25  H    0.054156   0.130899
    26  H    0.209282  -0.068755
    27  H   -0.695004   0.894629
    28  H    0.087503   0.050538
    29  H   -0.575233   0.745306
    30  H   -0.509786   0.663466
    31  H   -0.499917   0.702501
    32  H   -0.199152   0.380857
 Sum of Mulliken charges =  -1.00000   1.00000

 Dipole moment (field-independent basis, Debye):
    X=              0.6246    Y=             -4.7025    Z=             -1.2242  Tot=              4.8992
 Quadrupole moment (field-independent basis, Debye-Ang):
   XX=           -180.1507   YY=           -129.0411   ZZ=           -118.6645
   XY=              6.2359   XZ=             -5.3237   YZ=             -2.0463

 Summary of Natural Population Analysis:

                                       Natural Population
                Natural  -----------------------------------------------
    Atom  No    Charge         Core      Valence    Rydberg      Total
 -----------------------------------------------------------------------
      C    1   -0.17822      0.99966     2.16968    0.00888     3.17822
      N    2   -0.34504      0.99973     2.83280    0.01251     3.84504
      C    3   -0.00633      0.99959     1.99388    0.01286     3.00633
      C    4   -0.20738      0.99960     2.20009    0.00770     3.20738
      C    5   -0.08165      0.99961     2.07184    0.01019     3.08165
      N    6   -0.27826      0.99968     2.76690    0.01168     3.77826
      C    7   -0.08242      0.99959     2.07140    0.01143     3.08242
      C    8   -0.20154      0.99961     2.19243    0.00950     3.20154
      C    9    0.28868      0.99956     1.69303    0.01873     2.71132
      N   10   -0.28038      0.99969     2.77188    0.00881     3.78038
      C   11   -0.03629      0.99958     2.02279    0.01392     3.03629
      C   12   -0.03990      0.99954     2.02844    0.01192     3.03990
      N   13   -0.21282      0.99962     2.70235    0.01086     3.71282
      C   14   -0.17656      0.99963     2.16851    0.00842     3.17656
      H   15    0.08861      0.00000     0.41014    0.00125     0.41139
      H   16    0.07811      0.00000     0.42025    0.00164     0.42189
      H   17    0.09636      0.00000     0.40260    0.00104     0.40364
      H   18    0.17358      0.00000     0.32222    0.00420     0.32642
      H   19    0.08083      0.00000     0.41693    0.00224     0.41917
      H   20    0.09697      0.00000     0.40207    0.00097     0.40303
      H   21    0.11297      0.00000     0.38533    0.00170     0.38703
      H   22    0.09844      0.00000     0.40035    0.00121     0.40156
      H   23    0.10092      0.00000     0.39815    0.00093     0.39908
      H   24    0.09871      0.00000     0.39995    0.00134     0.40129
      H   25    0.10034      0.00000     0.39790    0.00176     0.39966
      H   26    0.10335      0.00000     0.39538    0.00127     0.39665
      H   27    0.10078      0.00000     0.39763    0.00159     0.39922
      H   28    0.09369      0.00000     0.40547    0.00084     0.40631
      H   29    0.10365      0.00000     0.39521    0.00115     0.39635
      H   30    0.10215      0.00000     0.39537    0.00248     0.39785
      H   31    0.09926      0.00000     0.39837    0.00237     0.40074
      H   32    0.10939      0.00000     0.38876    0.00185     0.39061
 =======================================================================
   * Total *    0.00000     13.99469    38.81808    0.18723    53.00000

 Normal termination of Gaussian 16 at Thu Dec 10 10:58:37 2020.
