 Gaussian 16, Revision A.03,

 -----------------------------------------------------------
 # opt freq B3LYP/6-31G(d) empiricaldispersion=gd3bj scf=xqc
 -----------------------------------------------------------

 ------------------------------
 CID_82405555_JID_4316_neutraal
 ------------------------------
 Symbolic Z-matrix:
 Charge =  0 Multiplicity = 1

 SCF Done:  E(RB3LYP) =  -629.853747536     A.U. after   15 cycles
 SCF Done:  E(RB3LYP) =  -629.858841109     A.U. after   13 cycles
 SCF Done:  E(RB3LYP) =  -629.859090414     A.U. after   12 cycles
 SCF Done:  E(RB3LYP) =  -629.859005540     A.U. after   12 cycles
 SCF Done:  E(RB3LYP) =  -629.859133976     A.U. after   12 cycles
 SCF Done:  E(RB3LYP) =  -629.859499007     A.U. after   12 cycles
 SCF Done:  E(RB3LYP) =  -629.859503674     A.U. after    9 cycles
 SCF Done:  E(RB3LYP) =  -629.859504297     A.U. after    8 cycles
 SCF Done:  E(RB3LYP) =  -629.859504605     A.U. after    8 cycles
 SCF Done:  E(RB3LYP) =  -629.859505678     A.U. after   10 cycles
 SCF Done:  E(RB3LYP) =  -629.859507395     A.U. after    9 cycles
 SCF Done:  E(RB3LYP) =  -629.859504336     A.U. after   12 cycles
 SCF Done:  E(RB3LYP) =  -629.859508369     A.U. after   12 cycles
 SCF Done:  E(RB3LYP) =  -629.859508571     A.U. after    9 cycles
 SCF Done:  E(RB3LYP) =  -629.859508587     A.U. after    7 cycles
 SCF Done:  E(RB3LYP) =  -629.859508627     A.U. after    9 cycles
 Optimization completed.
    -- Stationary point found.
 Normal termination of Gaussian 16 at Thu Dec 10 09:24:32 2020.

 --------------------------------------------------------------------
 #N Geom=AllCheck Guess=TCheck SCRF=Check GenChk RB3LYP/6-31G(d) Freq
 --------------------------------------------------------------------

 Structure from the checkpoint file:  "JID_4316.chk"
 ------------------------------
 CID_82405555_JID_4316_neutraal
 ------------------------------
 Charge =  0 Multiplicity = 1

 SCF Done:  E(RB3LYP) =  -629.859508627     A.U. after    1 cycles

  Exact polarizability: 171.762  -5.640 154.199   0.020   0.244  48.540
 Approx polarizability: 272.981 -15.693 289.683  -0.351  -0.894  76.829

                      1                      2                      3
                      A                      A                      A
 Frequencies --     16.0625                66.3351               171.2954
 Red. masses --     10.6958                 4.4935                 2.4286
 Frc consts  --      0.0016                 0.0116                 0.0420
 IR Inten    --      1.8404                 0.0522                 0.3829

                      4                      5                      6
                      A                      A                      A
 Frequencies --    180.2590               193.2366               206.8154
 Red. masses --      3.8157                 1.3745                 5.9996
 Frc consts  --      0.0730                 0.0302                 0.1512
 IR Inten    --      0.3245                 0.5334                 2.5184

                      7                      8                      9
                      A                      A                      A
 Frequencies --    256.3292               292.4787               345.6478
 Red. masses --      3.0704                 3.7313                 7.4844
 Frc consts  --      0.1189                 0.1881                 0.5268
 IR Inten    --      4.9545                 0.8444                 4.4339

                     10                     11                     12
                      A                      A                      A
 Frequencies --    404.3429               440.2070               484.1413
 Red. masses --      5.9459                 3.5436                 3.9141
 Frc consts  --      0.5728                 0.4046                 0.5405
 IR Inten    --      0.3465                 0.2762                 1.2183

                     13                     14                     15
                      A                      A                      A
 Frequencies --    500.1854               508.4521               554.8809
 Red. masses --      5.2732                 5.0162                 3.7589
 Frc consts  --      0.7773                 0.7640                 0.6819
 IR Inten    --      1.4269                 0.2843                 1.1422

                     16                     17                     18
                      A                      A                      A
 Frequencies --    573.6855               618.2218               622.6778
 Red. masses --      4.9324                 3.5852                 2.2861
 Frc consts  --      0.9564                 0.8073                 0.5223
 IR Inten    --      2.0243                24.7688                33.5857

                     19                     20                     21
                      A                      A                      A
 Frequencies --    684.9653               691.3363               778.3411
 Red. masses --      2.4607                 3.5551                 2.9108
 Frc consts  --      0.6802                 1.0011                 1.0390
 IR Inten    --     77.9291                84.7178                36.6613

                     22                     23                     24
                      A                      A                      A
 Frequencies --    784.7367               809.3107               839.3381
 Red. masses --      2.0124                 5.9925                 2.3608
 Frc consts  --      0.7301                 2.3125                 0.9799
 IR Inten    --      0.3240                 4.3430                25.2806

                     25                     26                     27
                      A                      A                      A
 Frequencies --    869.4605               875.1007               879.2572
 Red. masses --      1.6627                 5.6919                 4.3587
 Frc consts  --      0.7406                 2.5682                 1.9854
 IR Inten    --     12.2424                 1.0352                 4.8115

                     28                     29                     30
                      A                      A                      A
 Frequencies --    935.0026               984.0299              1002.9739
 Red. masses --      1.3636                 1.3650                 1.2916
 Frc consts  --      0.7024                 0.7787                 0.7655
 IR Inten    --      0.1158                 0.0039                 0.8955

                     31                     32                     33
                      A                      A                      A
 Frequencies --   1023.1293              1079.7031              1107.9255
 Red. masses --      1.7347                 1.5242                 2.4775
 Frc consts  --      1.0699                 1.0469                 1.7918
 IR Inten    --      3.4164                 2.0401                12.4738

                     34                     35                     36
                      A                      A                      A
 Frequencies --   1121.3177              1145.0380              1199.0124
 Red. masses --      3.0396                 2.1968                 2.7287
 Frc consts  --      2.2518                 1.6970                 2.3113
 IR Inten    --     96.4551                39.4899               249.2487

                     37                     38                     39
                      A                      A                      A
 Frequencies --   1212.8768              1248.8274              1271.0036
 Red. masses --      1.2915                 1.8400                 1.9495
 Frc consts  --      1.1194                 1.6907                 1.8555
 IR Inten    --     20.0910                52.7593                10.4903

                     40                     41                     42
                      A                      A                      A
 Frequencies --   1294.4674              1360.8144              1379.8883
 Red. masses --      1.9761                 2.2188                 3.9000
 Frc consts  --      1.9510                 2.4208                 4.3753
 IR Inten    --      3.2052                24.8784                 0.5734

                     43                     44                     45
                      A                      A                      A
 Frequencies --   1402.3495              1438.4227              1445.8675
 Red. masses --      4.4554                 4.3858                 1.3005
 Frc consts  --      5.1624                 5.3465                 1.6018
 IR Inten    --     48.6168                42.9480                 0.9620

                     46                     47                     48
                      A                      A                      A
 Frequencies --   1456.4504              1501.4164              1515.6567
 Red. masses --      2.3780                 2.1951                 1.0440
 Frc consts  --      2.9721                 2.9154                 1.4130
 IR Inten    --      0.2342                14.1705                 7.3048

                     49                     50                     51
                      A                      A                      A
 Frequencies --   1530.7682              1548.2693              1618.7056
 Red. masses --      1.1344                 3.1746                 7.5104
 Frc consts  --      1.5662                 4.4836                11.5945
 IR Inten    --     11.1391                12.3482                 8.9740

                     52                     53                     54
                      A                      A                      A
 Frequencies --   1642.7769              1673.5732              1804.8175
 Red. masses --      5.5905                 5.6265                 9.5926
 Frc consts  --      8.8891                 9.2849                18.4100
 IR Inten    --     26.3790                 1.6656               213.2738

                     55                     56                     57
                      A                      A                      A
 Frequencies --   3043.6265              3094.3688              3133.6133
 Red. masses --      1.0385                 1.1008                 1.0998
 Frc consts  --      5.6679                 6.2101                 6.3629
 IR Inten    --     25.1417                17.8746                15.5977

                     58                     59                     60
                      A                      A                      A
 Frequencies --   3183.9898              3186.0402              3203.5364
 Red. masses --      1.0882                 1.0895                 1.0933
 Frc consts  --      6.5000                 6.5159                 6.6109
 IR Inten    --     16.2385                22.4420                23.0743

                     61                     62                     63
                      A                      A                      A
 Frequencies --   3224.3957              3279.5198              3690.4542
 Red. masses --      1.0930                 1.0920                 1.0639
 Frc consts  --      6.6952                 6.9198                 8.5371
 IR Inten    --     15.7183                 9.7693                71.5515

 - Thermochemistry -
 -------------------
 Temperature   298.150 Kelvin.  Pressure   1.00000 Atm.
 Atom     1 has atomic number  6 and mass  12.00000

 Molecular mass:   187.06333 amu.
 Principal axes and moments of inertia in atomic units:
                           1         2         3
     Eigenvalues --  1368.649883274.440164622.09733
           X            0.99995   0.00983   0.00046
           Y           -0.00983   0.99995   0.00185
           Z           -0.00044  -0.00186   1.00000
 This molecule is an asymmetric top.
 Rotational symmetry number  1.
 Warning -- assumption of classical behavior for rotation
           may cause significant error
 Rotational temperatures (Kelvin)      0.06328     0.02645     0.01874
 Rotational constants (GHZ):           1.31863     0.55116     0.39046
 Zero-point vibrational energy     470322.2 (Joules/Mol)
                                  112.40970 (Kcal/Mol)
 Warning -- explicit consideration of  17 degrees of freedom as
           vibrations may cause significant error
 Vibrational temperatures:     23.11    95.44   246.46   259.35   278.02
          (Kelvin)            297.56   368.80   420.81   497.31   581.76
                              633.36   696.57   719.66   731.55   798.35
                              825.41   889.48   895.89   985.51   994.68
                             1119.86  1129.06  1164.42  1207.62  1250.96
                             1259.07  1265.05  1345.26  1415.80  1443.06
                             1472.05  1553.45  1594.06  1613.33  1647.45
                             1725.11  1745.06  1796.78  1828.69  1862.45
                             1957.91  1985.35  2017.67  2069.57  2080.28
                             2095.51  2160.20  2180.69  2202.43  2227.61
                             2328.96  2363.59  2407.90  2596.73  4379.10
                             4452.11  4508.57  4581.05  4584.00  4609.17
                             4639.19  4718.50  5309.74

 Zero-point correction=                           0.179136 (Hartree/Particle)
 Thermal correction to Energy=                    0.190304
 Thermal correction to Enthalpy=                  0.191248
 Thermal correction to Gibbs Free Energy=         0.140789
 Sum of electronic and zero-point Energies=           -629.680372
 Sum of electronic and thermal Energies=              -629.669205
 Sum of electronic and thermal Enthalpies=            -629.668260
 Sum of electronic and thermal Free Energies=         -629.718720

                     E (Thermal)             CV                S
                      KCal/Mol        Cal/Mol-Kelvin    Cal/Mol-Kelvin
 Total                  119.418             43.657            106.200
 Electronic               0.000              0.000              0.000
 Translational            0.889              2.981             41.585
 Rotational               0.889              2.981             31.405
 Vibrational            117.640             37.695             33.210
 Vibration     1          0.593              1.986              7.070
 Vibration     2          0.598              1.970              4.259
 Vibration     3          0.626              1.878              2.421
 Vibration     4          0.629              1.867              2.326
 Vibration     5          0.635              1.849              2.197
 Vibration     6          0.641              1.830              2.072
 Vibration     7          0.666              1.752              1.687
 Vibration     8          0.688              1.688              1.460
 Vibration     9          0.724              1.584              1.186
 Vibration    10          0.770              1.461              0.947
 Vibration    11          0.800              1.382              0.826
 Vibration    12          0.840              1.285              0.699
 Vibration    13          0.856              1.250              0.658
 Vibration    14          0.864              1.231              0.637
 Vibration    15          0.910              1.129              0.534
 Vibration    16          0.930              1.088              0.497
 Vibration    17          0.978              0.993              0.419

 Optimization completed.
    -- Stationary point found.
 Normal termination of Gaussian 16 at Thu Dec 10 09:31:03 2020.

 ----------------------------------------------------------------------
 # B3LYP/6-311++G(d,p) empiricaldispersion=gd3bj scf=xqc pop=npa geom=c
 heck
 ----------------------------------------------------------------------

 --------------------------------------
 CID_82405555_JID_4316_Energie_neutraal
 --------------------------------------
 Structure from the checkpoint file:  "JID_4316.chk"
 Charge =  0 Multiplicity = 1

 SCF Done:  E(RB3LYP) =  -630.032153999     A.U. after   16 cycles
 Normal termination of Gaussian 16 at Thu Dec 10 09:34:01 2020.

 ----------------------------------------------------------------------
 # B3LYP/6-311++G(d,p) empiricaldispersion=gd3bj scf=xqc pop=npa geom=c
 heck
 ----------------------------------------------------------------------

 ------------------------------------
 CID_82405555_JID_4316_Energie_kation
 ------------------------------------
 Structure from the checkpoint file:  "JID_4316.chk"
 Charge =  1 Multiplicity = 2

 SCF Done:  E(UB3LYP) =  -629.725615113     A.U. after   24 cycles
 Normal termination of Gaussian 16 at Thu Dec 10 09:40:04 2020.
 Gaussian 16:  ES64L-G16RevA.03 25-Dec-2016

 ----------------------------------------------------------------------
 # B3LYP/6-311++G(d,p) empiricaldispersion=gd3bj scf=xqc pop=npa geom=c
 heck
 ----------------------------------------------------------------------

 -----------------------------------
 CID_82405555_JID_4316_Energie_anion
 -----------------------------------
 Structure from the checkpoint file:  "JID_4316.chk"
 Charge = -1 Multiplicity = 2

                         Standard orientation:
 ---------------------------------------------------------------------
 Center     Atomic      Atomic             Coordinates (Angstroms)
 Number     Number       Type             X           Y           Z
 ---------------------------------------------------------------------
      1          6           0        3.675620    0.777933   -0.004695
      2          6           0        2.441744   -0.088636   -0.010845
      3          6           0        1.136061    0.498583    0.007854
      4          6           0        0.945988    1.899779    0.031031
      5          6           0       -0.329920    2.415931    0.040389
      6          7           0       -1.439586    1.649815    0.028351
      7          6           0       -1.303625    0.333448    0.014401
      8          6           0       -0.033350   -0.335697    0.003008
      9          6           0        0.133504   -1.748016   -0.025269
     10          6           0        1.396792   -2.287805   -0.044938
     11          6           0        2.544142   -1.461999   -0.036474
     12          6           0       -2.600375   -0.430946    0.020747
     13          8           0       -2.721929   -1.629563    0.198838
     14          8           0       -3.670935    0.360588   -0.193922
     15          1           0        3.709700    1.442695   -0.876626
     16          1           0        4.578744    0.161782   -0.020720
     17          1           0        3.721299    1.413718    0.888063
     18          1           0        1.798500    2.569733    0.039800
     19          1           0       -0.498073    3.490108    0.057384
     20          1           0       -0.742249   -2.379747   -0.023374
     21          1           0        1.519925   -3.366807   -0.066566
     22          1           0        3.529287   -1.921228   -0.051679
     23          1           0       -4.436616   -0.242598   -0.155323
 ---------------------------------------------------------------------

 SCF Done:  E(UB3LYP) =  -630.062023783     A.U. after   22 cycles

 The electronic state is 2-A.
 Alpha  occ. eigenvalues --  -19.01707 -18.95140 -14.13945 -10.13668 -10.05177
 Alpha  occ. eigenvalues --  -10.04824 -10.04378 -10.04188 -10.04006 -10.03888
 Alpha  occ. eigenvalues --  -10.03247 -10.02977 -10.01650 -10.01532  -0.95854
 Alpha  occ. eigenvalues --   -0.86289  -0.78552  -0.71681  -0.64970  -0.62985
 Alpha  occ. eigenvalues --   -0.60797  -0.55560  -0.52381  -0.48352  -0.47175
 Alpha  occ. eigenvalues --   -0.43046  -0.38582  -0.36725  -0.35246  -0.33825
 Alpha  occ. eigenvalues --   -0.32589  -0.30881  -0.30474  -0.30077  -0.28494
 Alpha  occ. eigenvalues --   -0.27760  -0.26571  -0.26309  -0.24956  -0.23707
 Alpha  occ. eigenvalues --   -0.21752  -0.20484  -0.19959  -0.17922  -0.14633
 Alpha  occ. eigenvalues --   -0.13335  -0.12084  -0.09634  -0.08746   0.02994
 Alpha virt. eigenvalues --    0.08257   0.09572   0.09940   0.10689   0.11520
 Alpha virt. eigenvalues --    0.11858   0.11928   0.13067   0.13359   0.14417
 Alpha virt. eigenvalues --    0.15042   0.16892   0.17158   0.17328   0.17745

  Beta  occ. eigenvalues --  -19.01656 -18.94921 -14.13618 -10.13506 -10.05189
  Beta  occ. eigenvalues --  -10.04882 -10.04243 -10.04080 -10.04035 -10.03715
  Beta  occ. eigenvalues --  -10.03193 -10.02927 -10.01498 -10.01186  -0.95630
  Beta  occ. eigenvalues --   -0.85962  -0.77962  -0.71390  -0.64630  -0.62672
  Beta  occ. eigenvalues --   -0.60394  -0.55392  -0.51737  -0.48221  -0.46901
  Beta  occ. eigenvalues --   -0.42801  -0.38263  -0.36576  -0.35026  -0.33603
  Beta  occ. eigenvalues --   -0.32359  -0.30491  -0.30292  -0.29296  -0.28321
  Beta  occ. eigenvalues --   -0.27624  -0.26513  -0.26151  -0.24155  -0.23488
  Beta  occ. eigenvalues --   -0.21612  -0.19853  -0.19407  -0.17016  -0.13363
  Beta  occ. eigenvalues --   -0.12958  -0.11275  -0.09227  -0.07268
  Beta virt. eigenvalues --    0.08209   0.08608   0.09538   0.09938   0.10648
  Beta virt. eigenvalues --    0.11681   0.11815   0.12346   0.13332   0.14262
  Beta virt. eigenvalues --    0.14393   0.15009   0.16949   0.17264   0.17348

 Mulliken charges and spin densities:
               1          2
     1  C   -0.648843  -0.014216
     2  C    0.609060   0.093320
     3  C    0.877690  -0.055757
     4  C   -0.273668   0.291020
     5  C   -0.102361  -0.037145
     6  N    0.003083   0.160492
     7  C   -1.562852   0.197525
     8  C    1.474840  -0.010035
     9  C   -0.879691   0.087144
    10  C   -0.566784   0.039802
    11  C   -0.594686   0.057787
    12  C    0.021435   0.105908
    13  O   -0.400718   0.079698
    14  O   -0.186208   0.011141
    15  H    0.117753   0.015187
    16  H    0.127826   0.000011
    17  H    0.118540   0.014839
    18  H    0.103616  -0.020832
    19  H    0.137690   0.002998
    20  H    0.187951  -0.010236
    21  H    0.123380  -0.003551
    22  H    0.056838  -0.004284
    23  H    0.256110  -0.000817
 Sum of Mulliken charges =  -1.00000   1.00000

 Dipole moment (field-independent basis, Debye):
    X=              3.0637    Y=              0.0599    Z=             -0.2723  Tot=              3.0763
 Quadrupole moment (field-independent basis, Debye-Ang):
   XX=           -104.1866   YY=           -101.1675   ZZ=            -90.0302
   XY=              2.2883   XZ=              0.8314   YZ=              1.0763

 Summary of Natural Population Analysis:

                                       Natural Population
                Natural  -----------------------------------------------
    Atom  No    Charge         Core      Valence    Rydberg      Total
 -----------------------------------------------------------------------
      C    1   -0.28982      0.99960     2.28571    0.00451     3.28982
      C    2    0.01521      0.99935     1.97668    0.00875     2.98479
      C    3   -0.03605      0.99948     2.02684    0.00972     3.03605
      C    4   -0.05222      0.99953     2.04405    0.00864     3.05222
      C    5   -0.00450      0.99959     1.98961    0.01530     3.00450
      N    6   -0.17630      0.99968     2.66564    0.01098     3.67630
      C    7    0.10833      0.99947     1.87844    0.01376     2.89167
      C    8   -0.03416      0.99949     2.02608    0.00859     3.03416
      C    9   -0.06826      0.99954     2.05994    0.00879     3.06826
      C   10   -0.10320      0.99959     2.09352    0.01009     3.10320
      C   11   -0.09350      0.99943     2.08475    0.00932     3.09350
      C   12    0.41242      0.99970     1.56301    0.02487     2.58758
      O   13   -0.31497      0.99987     3.30743    0.00767     4.31497
      O   14   -0.33610      0.99988     3.32958    0.00664     4.33610
      H   15    0.09880      0.00000     0.39968    0.00152     0.40120
      H   16    0.09411      0.00000     0.40465    0.00124     0.40589
      H   17    0.09879      0.00000     0.39969    0.00152     0.40121
      H   18    0.08931      0.00000     0.40906    0.00163     0.41069
      H   19    0.07797      0.00000     0.42061    0.00141     0.42203
      H   20    0.11519      0.00000     0.38368    0.00113     0.38481
      H   21    0.08888      0.00000     0.40993    0.00120     0.41112
      H   22    0.08584      0.00000     0.41201    0.00215     0.41416
      H   23    0.22420      0.00000     0.27029    0.00551     0.27580
 =======================================================================
   * Total *    0.00001     13.99420    34.84085    0.16494    48.99999

 Normal termination of Gaussian 16 at Thu Dec 10 09:45:51 2020.
