 Gaussian 16, Revision A.03,

 -----------------------------------------------------------
 # opt freq B3LYP/6-31G(d) empiricaldispersion=gd3bj scf=xqc
 -----------------------------------------------------------

 ------------------------------
 CID_23378005_JID_1478_neutraal
 ------------------------------
 Symbolic Z-matrix:
 Charge =  0 Multiplicity = 1

 SCF Done:  E(RB3LYP) =  -854.447311201     A.U. after   15 cycles
 SCF Done:  E(RB3LYP) =  -854.455876647     A.U. after   13 cycles
 SCF Done:  E(RB3LYP) =  -854.459397374     A.U. after   12 cycles
 SCF Done:  E(RB3LYP) =  -854.462802656     A.U. after   13 cycles
 SCF Done:  E(RB3LYP) =  -854.463886362     A.U. after   12 cycles
 SCF Done:  E(RB3LYP) =  -854.464908435     A.U. after   12 cycles
 SCF Done:  E(RB3LYP) =  -854.465100712     A.U. after   11 cycles
 SCF Done:  E(RB3LYP) =  -854.465164812     A.U. after   11 cycles
 SCF Done:  E(RB3LYP) =  -854.465178919     A.U. after    9 cycles
 SCF Done:  E(RB3LYP) =  -854.465182486     A.U. after    9 cycles
 SCF Done:  E(RB3LYP) =  -854.465209856     A.U. after   11 cycles
 SCF Done:  E(RB3LYP) =  -854.465213471     A.U. after   10 cycles
 SCF Done:  E(RB3LYP) =  -854.465215354     A.U. after   10 cycles
 SCF Done:  E(RB3LYP) =  -854.465215474     A.U. after    8 cycles
 SCF Done:  E(RB3LYP) =  -854.465215496     A.U. after    8 cycles
 Optimization completed.
    -- Stationary point found.
 Normal termination of Gaussian 16 at Tue Dec  8 20:10:16 2020.

 --------------------------------------------------------------------
 #N Geom=AllCheck Guess=TCheck SCRF=Check GenChk RB3LYP/6-31G(d) Freq
 --------------------------------------------------------------------

 Structure from the checkpoint file:  "JID_1478.chk"
 ------------------------------
 CID_23378005_JID_1478_neutraal
 ------------------------------
 Charge =  0 Multiplicity = 1

 SCF Done:  E(RB3LYP) =  -854.465215496     A.U. after    1 cycles

  Exact polarizability: 149.262  -0.318 104.012   1.953   2.434  55.513
 Approx polarizability: 218.307   0.922 184.274   1.169   4.602  99.024

                      1                      2                      3
                      A                      A                      A
 Frequencies --     33.7077                87.5901               149.3373
 Red. masses --      1.0437                 6.5154                 4.8667
 Frc consts  --      0.0007                 0.0295                 0.0639
 IR Inten    --      0.1347                 0.8095                 1.6376

                      4                      5                      6
                      A                      A                      A
 Frequencies --    204.8855               252.5751               281.0584
 Red. masses --      4.7315                 3.2830                 3.6836
 Frc consts  --      0.1170                 0.1234                 0.1714
 IR Inten    --      4.5654                 6.2387                17.2274

                      7                      8                      9
                      A                      A                      A
 Frequencies --    325.7768               377.3074               400.8712
 Red. masses --      5.3971                 2.4701                 3.9524
 Frc consts  --      0.3375                 0.2072                 0.3742
 IR Inten    --      2.3394                17.7799                13.4680

                     10                     11                     12
                      A                      A                      A
 Frequencies --    432.7030               464.6316               506.0662
 Red. masses --      2.7528                 4.8303                 1.8977
 Frc consts  --      0.3037                 0.6144                 0.2863
 IR Inten    --     19.4632                19.8619                74.7758

                     13                     14                     15
                      A                      A                      A
 Frequencies --    554.3462               582.8996               601.7824
 Red. masses --      4.0450                 7.7569                 3.8155
 Frc consts  --      0.7324                 1.5528                 0.8141
 IR Inten    --     84.5332                37.4266                12.2589

                     16                     17                     18
                      A                      A                      A
 Frequencies --    679.5691               733.8260               737.5323
 Red. masses --      7.1735                 4.9662                 4.9815
 Frc consts  --      1.9519                 1.5757                 1.5965
 IR Inten    --     35.4446                 1.8845                 4.5999

                     19                     20                     21
                      A                      A                      A
 Frequencies --    790.2045               807.3673               809.7247
 Red. masses --      2.9644                 2.0729                 1.5848
 Frc consts  --      1.0906                 0.7961                 0.6122
 IR Inten    --     70.1066                56.8556                88.8089

                     22                     23                     24
                      A                      A                      A
 Frequencies --    851.3812               866.9327               918.1761
 Red. masses --      3.5921                 1.3623                 1.2761
 Frc consts  --      1.5341                 0.6033                 0.6338
 IR Inten    --     16.9556                 8.2250                 0.2979

                     25                     26                     27
                      A                      A                      A
 Frequencies --    963.3951              1033.5077              1075.2396
 Red. masses --      3.1375                 1.4489                 1.4801
 Frc consts  --      1.7157                 0.9118                 1.0082
 IR Inten    --     10.8542                 1.4296                 5.0585

                     28                     29                     30
                      A                      A                      A
 Frequencies --   1159.9755              1161.9841              1173.8355
 Red. masses --      6.1811                 1.8290                 2.1736
 Frc consts  --      4.9002                 1.4550                 1.7646
 IR Inten    --    164.0026                27.8655                 2.0411

                     31                     32                     33
                      A                      A                      A
 Frequencies --   1245.8593              1267.9974              1305.7620
 Red. masses --      1.8440                 1.5072                 2.8469
 Frc consts  --      1.6863                 1.4277                 2.8599
 IR Inten    --      4.4220                 8.6021                22.8039

                     34                     35                     36
                      A                      A                      A
 Frequencies --   1323.9073              1353.5926              1416.2207
 Red. masses --      2.2741                 1.3005                 3.2277
 Frc consts  --      2.3484                 1.4039                 3.8143
 IR Inten    --    208.4184                 2.2360                71.2163

                     37                     38                     39
                      A                      A                      A
 Frequencies --   1444.4281              1488.2269              1515.8419
 Red. masses --      1.2439                 3.1180                 1.0464
 Frc consts  --      1.5291                 4.0688                 1.4167
 IR Inten    --      0.1265                25.1161                 5.6841

                     40                     41                     42
                      A                      A                      A
 Frequencies --   1530.0340              1551.5846              1657.6689
 Red. masses --      1.1458                 2.8768                 6.5182
 Frc consts  --      1.5803                 4.0805                10.5530
 IR Inten    --     15.4846                82.8039                 4.1939

                     43                     44                     45
                      A                      A                      A
 Frequencies --   1673.2176              3042.0435              3093.0819
 Red. masses --      6.5681                 1.0381                 1.1004
 Frc consts  --     10.8342                 5.6603                 6.2029
 IR Inten    --      1.5392                41.8025                22.5653

                     46                     47                     48
                      A                      A                      A
 Frequencies --   3126.8259              3186.9817              3189.3072
 Red. masses --      1.1005                 1.0905                 1.0875
 Frc consts  --      6.3394                 6.5260                 6.5173
 IR Inten    --     17.3313                12.9580                11.2513

                     49                     50                     51
                      A                      A                      A
 Frequencies --   3206.5645              3557.0769              3559.6562
 Red. masses --      1.0944                 1.0764                 1.0765
 Frc consts  --      6.6299                 8.0242                 8.0371
 IR Inten    --     16.0837                27.3565                24.8810

 - Thermochemistry -
 -------------------
 Temperature   298.150 Kelvin.  Pressure   1.00000 Atm.
 Atom     1 has atomic number  6 and mass  12.00000

 Molecular mass:   168.03573 amu.
 Principal axes and moments of inertia in atomic units:
                           1         2         3
     Eigenvalues --   702.065722961.966023375.97374
           X            0.99990  -0.01249   0.00638
           Y            0.01244   0.99988   0.00876
           Z           -0.00648  -0.00868   0.99994
 This molecule is an asymmetric top.
 Rotational symmetry number  1.
 Warning -- assumption of classical behavior for rotation
           may cause significant error
 Rotational temperatures (Kelvin)      0.12337     0.02924     0.02566
 Rotational constants (GHZ):           2.57062     0.60931     0.53458
 Zero-point vibrational energy     381334.0 (Joules/Mol)
                                   91.14102 (Kcal/Mol)
 Warning -- explicit consideration of  15 degrees of freedom as
           vibrations may cause significant error
 Vibrational temperatures:     48.50   126.02   214.86   294.78   363.40
          (Kelvin)            404.38   468.72   542.86   576.76   622.56
                              668.50   728.12   797.58   838.66   865.83
                              977.75  1055.81  1061.14  1136.93  1161.62
                             1165.01  1224.95  1247.32  1321.05  1386.11
                             1486.99  1547.03  1668.95  1671.84  1688.89
                             1792.51  1824.37  1878.70  1904.81  1947.52
                             2037.63  2078.21  2141.23  2180.96  2201.38
                             2232.38  2385.02  2407.39  4376.82  4450.25
                             4498.81  4585.36  4588.70  4613.53  5117.84
                             5121.55

 Zero-point correction=                           0.145242 (Hartree/Particle)
 Thermal correction to Energy=                    0.155105
 Thermal correction to Enthalpy=                  0.156049
 Thermal correction to Gibbs Free Energy=         0.109258
 Sum of electronic and zero-point Energies=           -854.319973
 Sum of electronic and thermal Energies=              -854.310110
 Sum of electronic and thermal Enthalpies=            -854.309166
 Sum of electronic and thermal Free Energies=         -854.355957

                     E (Thermal)             CV                S
                      KCal/Mol        Cal/Mol-Kelvin    Cal/Mol-Kelvin
 Total                   97.330             37.883             98.480
 Electronic               0.000              0.000              0.000
 Translational            0.889              2.981             41.265
 Rotational               0.889              2.981             30.330
 Vibrational             95.552             31.922             26.885
 Vibration     1          0.594              1.983              5.598
 Vibration     2          0.601              1.958              3.713
 Vibration     3          0.618              1.903              2.681
 Vibration     4          0.640              1.833              2.089
 Vibration     5          0.664              1.758              1.713
 Vibration     6          0.681              1.709              1.527
 Vibration     7          0.710              1.624              1.281
 Vibration     8          0.748              1.518              1.050
 Vibration     9          0.767              1.468              0.959
 Vibration    10          0.794              1.399              0.850
 Vibration    11          0.822              1.329              0.753
 Vibration    12          0.861              1.237              0.643
 Vibration    13          0.910              1.130              0.535
 Vibration    14          0.940              1.068              0.480
 Vibration    15          0.960              1.028              0.447

 Optimization completed.
    -- Stationary point found.
 Normal termination of Gaussian 16 at Tue Dec  8 20:14:40 2020.

 ----------------------------------------------------------------------
 # B3LYP/6-311++G(d,p) empiricaldispersion=gd3bj scf=xqc pop=npa geom=c
 heck
 ----------------------------------------------------------------------

 --------------------------------------
 CID_23378005_JID_1478_Energie_neutraal
 --------------------------------------
 Structure from the checkpoint file:  "JID_1478.chk"
 Charge =  0 Multiplicity = 1

 SCF Done:  E(RB3LYP) =  -854.621938766     A.U. after   17 cycles
 Normal termination of Gaussian 16 at Tue Dec  8 20:16:54 2020.

 ----------------------------------------------------------------------
 # B3LYP/6-311++G(d,p) empiricaldispersion=gd3bj scf=xqc pop=npa geom=c
 heck
 ----------------------------------------------------------------------

 ------------------------------------
 CID_23378005_JID_1478_Energie_kation
 ------------------------------------
 Structure from the checkpoint file:  "JID_1478.chk"
 Charge =  1 Multiplicity = 2

 SCF Done:  E(UB3LYP) =  -854.333680852     A.U. after   22 cycles
 Normal termination of Gaussian 16 at Tue Dec  8 20:19:37 2020.
 Gaussian 16:  ES64L-G16RevA.03 25-Dec-2016

 ----------------------------------------------------------------------
 # B3LYP/6-311++G(d,p) empiricaldispersion=gd3bj scf=xqc pop=npa geom=c
 heck
 ----------------------------------------------------------------------

 -----------------------------------
 CID_23378005_JID_1478_Energie_anion
 -----------------------------------
 Structure from the checkpoint file:  "JID_1478.chk"
 Charge = -1 Multiplicity = 2

                         Standard orientation:
 ---------------------------------------------------------------------
 Center     Atomic      Atomic             Coordinates (Angstroms)
 Number     Number       Type             X           Y           Z
 ---------------------------------------------------------------------
      1          6           0        3.850091   -0.792400    0.253148
      2          6           0        2.463936   -0.216063    0.090308
      3          6           0        1.373477   -1.070664   -0.148747
      4          6           0        0.108436   -0.526035   -0.310295
      5          6           0       -0.098437    0.858378   -0.231212
      6          6           0        0.964858    1.714623    0.012037
      7          6           0        2.242846    1.162524    0.168094
      8          7           0       -1.455901    1.169039   -0.463169
      9         16           0       -2.495943   -0.211607   -0.164460
     10          8           0       -2.826969   -0.344326    1.279566
     11          7           0       -1.103653   -1.187919   -0.596316
     12          1           0        3.870439   -1.580974    1.014963
     13          1           0        4.567313   -0.021646    0.550999
     14          1           0        4.211573   -1.238317   -0.682234
     15          1           0        1.520976   -2.146097   -0.205727
     16          1           0        0.810731    2.787316    0.081662
     17          1           0        3.082771    1.824486    0.358679
     18          1           0       -1.823849    2.012766   -0.031608
     19          1           0       -1.203468   -2.147235   -0.275495
 ---------------------------------------------------------------------

 SCF Done:  E(UB3LYP) =  -854.608313199     A.U. after   33 cycles
 SCF Done:  E(UB3LYP) =  -854.608313199     a.u. after    1 cycles

 The electronic state is 2-A.
 Alpha  occ. eigenvalues --  -88.87396 -18.99111 -14.24077 -14.23149 -10.10538
 Alpha  occ. eigenvalues --  -10.10462 -10.07230 -10.07202 -10.06332 -10.06106
 Alpha  occ. eigenvalues --  -10.05624  -7.94542  -5.90862  -5.90783  -5.90097
 Alpha  occ. eigenvalues --   -0.94494  -0.85751  -0.78694  -0.74268  -0.66111
 Alpha  occ. eigenvalues --   -0.63663  -0.58297  -0.55013  -0.52093  -0.48484
 Alpha  occ. eigenvalues --   -0.43376  -0.39872  -0.37389  -0.35991  -0.34392
 Alpha  occ. eigenvalues --   -0.33705  -0.33217  -0.32267  -0.30891  -0.27693
 Alpha  occ. eigenvalues --   -0.26724  -0.26466  -0.24440  -0.23455  -0.20175
 Alpha  occ. eigenvalues --   -0.19792  -0.15596  -0.12882  -0.10250   0.05013
 Alpha virt. eigenvalues --    0.06829   0.07797   0.08014   0.08835   0.09771
 Alpha virt. eigenvalues --    0.10225   0.10768   0.12164   0.12262   0.12581
 Alpha virt. eigenvalues --    0.14020   0.14034   0.15163   0.16344   0.16714

  Beta  occ. eigenvalues --  -88.87324 -18.98949 -14.24022 -14.23010 -10.10518
  Beta  occ. eigenvalues --  -10.10436 -10.07229 -10.07199 -10.06299 -10.06081
  Beta  occ. eigenvalues --  -10.05581  -7.94476  -5.90825  -5.90553  -5.90059
  Beta  occ. eigenvalues --   -0.94215  -0.85589  -0.78531  -0.74208  -0.66033
  Beta  occ. eigenvalues --   -0.63555  -0.58161  -0.54866  -0.51978  -0.48304
  Beta  occ. eigenvalues --   -0.43280  -0.39716  -0.37215  -0.35651  -0.34267
  Beta  occ. eigenvalues --   -0.33580  -0.33125  -0.32178  -0.30836  -0.27640
  Beta  occ. eigenvalues --   -0.26593  -0.26314  -0.24391  -0.23199  -0.20049
  Beta  occ. eigenvalues --   -0.19304  -0.15304  -0.12784  -0.10147
  Beta virt. eigenvalues --    0.07315   0.07941   0.08749   0.09041   0.09202
  Beta virt. eigenvalues --    0.10415   0.10851   0.11257   0.12504   0.12720
  Beta virt. eigenvalues --    0.13182   0.13884   0.14240   0.15589   0.16209

 Mulliken charges and spin densities:
               1          2
     1  C    3.485752  -3.977807
     2  C   -0.980306   1.712259
     3  C   -2.233868   2.303016
     4  C    0.236483  -0.361873
     5  C    1.167224  -1.171461
     6  C   -0.494024   0.339260
     7  C    0.405033  -1.668986
     8  N   -0.294513   0.001804
     9  S    0.537963   0.176082
    10  O   -0.383703   0.016525
    11  N   -0.216032  -0.057017
    12  H   -0.151869   0.300407
    13  H   -0.758140   0.909934
    14  H   -0.084064   0.238699
    15  H   -0.744238   0.919417
    16  H   -0.018527   0.162939
    17  H   -0.361733   0.482997
    18  H    0.253165   0.011364
    19  H   -0.364601   0.662440
 Sum of Mulliken charges =  -1.00000   1.00000

 Dipole moment (field-independent basis, Debye):
    X=             -4.6951    Y=              5.1104    Z=             -1.5226  Tot=              7.1048
 Quadrupole moment (field-independent basis, Debye-Ang):
   XX=           -143.4289   YY=           -102.2406   ZZ=            -97.4872
   XY=             -5.0452   XZ=              1.5522   YZ=              0.7529

 Summary of Natural Population Analysis:

                                       Natural Population
                Natural  -----------------------------------------------
    Atom  No    Charge         Core      Valence    Rydberg      Total
 -----------------------------------------------------------------------
      C    1   -0.29121      0.99964     2.28573    0.00584     3.29121
      C    2   -0.01917      0.99953     2.01015    0.00949     3.01917
      C    3   -0.11065      0.99947     2.10171    0.00947     3.11065
      C    4    0.07399      0.99943     1.91395    0.01263     2.92601
      C    5    0.06140      0.99943     1.92710    0.01207     2.93860
      C    6   -0.11583      0.99952     2.10712    0.00919     3.11583
      C    7   -0.10858      0.99953     2.09895    0.01011     3.10858
      N    8   -0.40168      0.99971     2.89057    0.01141     3.90168
      S    9    0.75218      4.99954     2.17807    0.07021     7.24782
      O   10   -0.44604      0.99992     3.44036    0.00575     4.44604
      N   11   -0.39721      0.99970     2.88169    0.01581     3.89721
      H   12    0.10355      0.00000     0.39515    0.00130     0.39645
      H   13    0.10287      0.00000     0.39521    0.00193     0.39713
      H   14    0.10341      0.00000     0.39524    0.00135     0.39659
      H   15    0.10485      0.00000     0.39312    0.00203     0.39515
      H   16    0.09755      0.00000     0.40120    0.00124     0.40245
      H   17    0.10004      0.00000     0.39876    0.00120     0.39996
      H   18    0.19134      0.00000     0.30705    0.00161     0.30866
      H   19    0.19920      0.00000     0.29316    0.00764     0.30080
 =======================================================================
   * Total *   -0.00000     14.99541    28.81430    0.19029    44.00000

 Normal termination of Gaussian 16 at Tue Dec  8 20:24:31 2020.
