 Gaussian 16, Revision A.03,

 -----------------------------------------------------------
 # opt freq B3LYP/6-31G(d) empiricaldispersion=gd3bj scf=xqc
 -----------------------------------------------------------

 -------------------------------
 CID_146639846_JID_7651_neutraal
 -------------------------------
 Symbolic Z-matrix:
 Charge =  0 Multiplicity = 1

 SCF Done:  E(RB3LYP) =  -746.059928849     A.U. after   21 cycles
 SCF Done:  E(RB3LYP) =  -746.123560040     A.U. after   16 cycles
 SCF Done:  E(RB3LYP) =  -746.162408106     A.U. after   14 cycles
 SCF Done:  E(RB3LYP) =  -746.171528684     A.U. after   13 cycles
 SCF Done:  E(RB3LYP) =  -746.177571588     A.U. after   13 cycles
 SCF Done:  E(RB3LYP) =  -746.180174512     A.U. after   13 cycles
 SCF Done:  E(RB3LYP) =  -746.180877347     A.U. after   12 cycles
 SCF Done:  E(RB3LYP) =  -746.181144011     A.U. after   11 cycles
 SCF Done:  E(RB3LYP) =  -746.181316303     A.U. after   11 cycles
 SCF Done:  E(RB3LYP) =  -746.181385474     A.U. after   11 cycles
 SCF Done:  E(RB3LYP) =  -746.181447811     A.U. after    7 cycles
 SCF Done:  E(RB3LYP) =  -746.181448624     A.U. after    8 cycles
 SCF Done:  E(RB3LYP) =  -746.181448876     A.U. after    8 cycles
 SCF Done:  E(RB3LYP) =  -746.181449011     A.U. after    7 cycles
 SCF Done:  E(RB3LYP) =  -746.181449079     A.U. after    7 cycles
 Optimization completed.
    -- Stationary point found.
 Normal termination of Gaussian 16 at Fri Dec 11 13:14:22 2020.

 --------------------------------------------------------------------
 #N Geom=AllCheck Guess=TCheck SCRF=Check GenChk RB3LYP/6-31G(d) Freq
 --------------------------------------------------------------------

 Structure from the checkpoint file:  "JID_7651.chk"
 -------------------------------
 CID_146639846_JID_7651_neutraal
 -------------------------------
 Charge =  0 Multiplicity = 1

 SCF Done:  E(RB3LYP) =  -746.181449079     A.U. after    1 cycles

  Exact polarizability: 167.069   5.097 151.560  -4.548   4.444 124.488
 Approx polarizability: 201.085  10.420 230.644  -4.208  17.537 227.529

                      1                      2                      3
                      A                      A                      A
 Frequencies --     18.1878                30.4821                45.5667
 Red. masses --      4.3816                 4.0719                 4.4272
 Frc consts  --      0.0009                 0.0022                 0.0054
 IR Inten    --      1.0793                 0.7063                 1.1136

                      4                      5                      6
                      A                      A                      A
 Frequencies --     53.6211                89.2992               133.5564
 Red. masses --      4.1970                 3.9097                 4.6887
 Frc consts  --      0.0071                 0.0184                 0.0493
 IR Inten    --      1.5204                 0.9573                 0.2028

                      7                      8                      9
                      A                      A                      A
 Frequencies --    166.9492               195.3711               236.8495
 Red. masses --      4.0253                 2.5873                 1.8817
 Frc consts  --      0.0661                 0.0582                 0.0622
 IR Inten    --      0.5307                 2.4177                 0.2270

                     10                     11                     12
                      A                      A                      A
 Frequencies --    281.6904               290.8901               308.4208
 Red. masses --      2.4774                 2.4224                 2.7056
 Frc consts  --      0.1158                 0.1208                 0.1516
 IR Inten    --      7.8803                 5.3125                 4.5914

                     13                     14                     15
                      A                      A                      A
 Frequencies --    331.1351               363.8570               390.1748
 Red. masses --      2.8773                 2.7786                 3.4130
 Frc consts  --      0.1859                 0.2167                 0.3061
 IR Inten    --      0.7881                 4.5773                 3.1555

                     16                     17                     18
                      A                      A                      A
 Frequencies --    426.5726               437.9950               458.8809
 Red. masses --      2.2322                 2.5544                 2.5706
 Frc consts  --      0.2393                 0.2887                 0.3189
 IR Inten    --      6.3193                10.8376                10.4423

                     19                     20                     21
                      A                      A                      A
 Frequencies --    485.9064               527.4586               554.7908
 Red. masses --      2.7111                 4.0380                 4.3054
 Frc consts  --      0.3771                 0.6619                 0.7808
 IR Inten    --      1.2464                10.6022                24.9949

                     22                     23                     24
                      A                      A                      A
 Frequencies --    579.3690               598.7087               639.1927
 Red. masses --      3.0877                 2.1106                 4.2244
 Frc consts  --      0.6107                 0.4457                 1.0169
 IR Inten    --      1.2910                 6.2964                23.5111

                     25                     26                     27
                      A                      A                      A
 Frequencies --    700.6558               716.6254               730.0029
 Red. masses --      3.3845                 3.2510                 4.8738
 Frc consts  --      0.9789                 0.9837                 1.5303
 IR Inten    --      5.6358                 0.8910                 1.8114

                     28                     29                     30
                      A                      A                      A
 Frequencies --    755.5722               784.2134               809.9086
 Red. masses --      1.3933                 1.4660                 2.1811
 Frc consts  --      0.4687                 0.5312                 0.8429
 IR Inten    --     14.0073                36.6946               153.4295

                     31                     32                     33
                      A                      A                      A
 Frequencies --    813.2139               826.0901               848.5460
 Red. masses --      3.5777                 2.8681                 1.5918
 Frc consts  --      1.3940                 1.1532                 0.6753
 IR Inten    --      4.2472                 2.2743                 0.5729

                     34                     35                     36
                      A                      A                      A
 Frequencies --    880.7485               898.1325               919.2445
 Red. masses --      1.8788                 2.1640                 2.4740
 Frc consts  --      0.8587                 1.0284                 1.2317
 IR Inten    --     27.3591                 1.6988                 2.5681

                     37                     38                     39
                      A                      A                      A
 Frequencies --    928.0768               937.1548               976.4034
 Red. masses --      1.7920                 1.8837                 2.5651
 Frc consts  --      0.9094                 0.9747                 1.4408
 IR Inten    --      6.3138                 7.9734                 3.8548

                     40                     41                     42
                      A                      A                      A
 Frequencies --    992.2366              1010.7738              1015.5089
 Red. masses --      2.6539                 2.1884                 2.8569
 Frc consts  --      1.5395                 1.3173                 1.7359
 IR Inten    --      0.3512                27.2599                 2.5474

                     43                     44                     45
                      A                      A                      A
 Frequencies --   1035.6123              1040.6156              1049.3043
 Red. masses --      2.4299                 1.5599                 3.0679
 Frc consts  --      1.5354                 0.9952                 1.9902
 IR Inten    --     14.1940                 7.6631                 4.8812

                     46                     47                     48
                      A                      A                      A
 Frequencies --   1080.8902              1098.5719              1106.9735
 Red. masses --      2.1804                 3.2687                 1.5474
 Frc consts  --      1.5009                 2.3243                 1.1172
 IR Inten    --      1.7160                 3.1664                 5.5060

                     49                     50                     51
                      A                      A                      A
 Frequencies --   1129.7966              1146.9127              1148.8950
 Red. masses --      1.4380                 2.3771                 4.0896
 Frc consts  --      1.0814                 1.8423                 3.1805
 IR Inten    --      2.3519                 0.9374                32.4114

                     52                     53                     54
                      A                      A                      A
 Frequencies --   1177.2051              1217.1785              1220.2180
 Red. masses --      2.0922                 1.3893                 1.2624
 Frc consts  --      1.7082                 1.2127                 1.1075
 IR Inten    --      3.6998                22.5134                52.7248

                     55                     56                     57
                      A                      A                      A
 Frequencies --   1234.7977              1245.8758              1248.8617
 Red. masses --      2.0513                 1.1914                 2.2619
 Frc consts  --      1.8427                 1.0896                 2.0785
 IR Inten    --      9.8829                 0.7282                 3.5831

                     58                     59                     60
                      A                      A                      A
 Frequencies --   1267.2324              1275.7078              1290.2529
 Red. masses --      1.4206                 1.4075                 1.4860
 Frc consts  --      1.3441                 1.3496                 1.4575
 IR Inten    --      0.2138                 3.5915                37.0098

                     61                     62                     63
                      A                      A                      A
 Frequencies --   1298.0658              1314.6823              1317.5537
 Red. masses --      1.4484                 1.5894                 1.7510
 Frc consts  --      1.4379                 1.6185                 1.7909
 IR Inten    --    118.6907                28.5957                17.4367

                     64                     65                     66
                      A                      A                      A
 Frequencies --   1340.4060              1353.0071              1358.6481
 Red. masses --      2.6587                 1.8013                 1.3014
 Frc consts  --      2.8144                 1.9428                 1.4154
 IR Inten    --     48.6191                21.5031                 0.9859

                     67                     68                     69
                      A                      A                      A
 Frequencies --   1374.5009              1391.7404              1408.6406
 Red. masses --      1.2603                 1.2785                 1.3455
 Frc consts  --      1.4029                 1.4591                 1.5730
 IR Inten    --      5.1975                 7.0698                14.7201

                     70                     71                     72
                      A                      A                      A
 Frequencies --   1413.9116              1428.1365              1481.6286
 Red. masses --      1.3552                 1.3368                 2.4443
 Frc consts  --      1.5963                 1.6064                 3.1615
 IR Inten    --      0.6856                11.0445               137.5773

                     73                     74                     75
                      A                      A                      A
 Frequencies --   1497.3004              1503.1746              1503.9894
 Red. masses --      1.0897                 1.1110                 1.0817
 Frc consts  --      1.4394                 1.4791                 1.4417
 IR Inten    --      3.6076                 8.4303                 4.1493

                     76                     77                     78
                      A                      A                      A
 Frequencies --   1509.4424              1511.3659              1516.2149
 Red. masses --      1.1232                 1.1347                 1.1427
 Frc consts  --      1.5078                 1.5271                 1.5478
 IR Inten    --     22.6317                 8.7072                 7.1720

                     79                     80                     81
                      A                      A                      A
 Frequencies --   1520.2292              1537.9789              1549.4476
 Red. masses --      1.1116                 1.0858                 1.0888
 Frc consts  --      1.5136                 1.5133                 1.5401
 IR Inten    --      0.7025                 7.4009                 6.9345

                     82                     83                     84
                      A                      A                      A
 Frequencies --   1627.4309              1755.3469              3000.4477
 Red. masses --      5.6345                10.0190                 1.0733
 Frc consts  --      8.7924                18.1886                 5.6930
 IR Inten    --      2.6859               315.1444                21.6491

                     85                     86                     87
                      A                      A                      A
 Frequencies --   3011.1666              3033.1387              3042.3511
 Red. masses --      1.0730                 1.0680                 1.0618
 Frc consts  --      5.7322                 5.7891                 5.7906
 IR Inten    --     64.5354                33.7808                35.9359

                     88                     89                     90
                      A                      A                      A
 Frequencies --   3050.9206              3071.1535              3077.1514
 Red. masses --      1.0613                 1.0659                 1.0670
 Frc consts  --      5.8203                 5.9235                 5.9526
 IR Inten    --     44.3848                32.8967                48.5556

                     91                     92                     93
                      A                      A                      A
 Frequencies --   3080.3384              3093.9749              3095.7576
 Red. masses --      1.0666                 1.0942                 1.1036
 Frc consts  --      5.9626                 6.1712                 6.2314
 IR Inten    --      8.5146                19.3109                38.4208

                     94                     95                     96
                      A                      A                      A
 Frequencies --   3099.4749              3138.1675              3146.1612
 Red. masses --      1.1053                 1.1003                 1.0981
 Frc consts  --      6.2562                 6.3844                 6.4043
 IR Inten    --     46.2632                 1.8999                10.0130

                     97                     98                     99
                      A                      A                      A
 Frequencies --   3152.4883              3154.2813              3160.4786
 Red. masses --      1.1014                 1.0923                 1.0909
 Frc consts  --      6.4489                 6.4034                 6.4199
 IR Inten    --     26.3021                13.8769                 4.0626

                    100                    101                    102
                      A                      A                      A
 Frequencies --   3169.9124              3201.1940              3459.9626
 Red. masses --      1.0832                 1.1137                 1.0735
 Frc consts  --      6.4127                 6.7244                 7.5718
 IR Inten    --     17.7549                64.3061                 3.1579

 - Thermochemistry -
 -------------------
 Temperature   298.150 Kelvin.  Pressure   1.00000 Atm.
 Atom     1 has atomic number  6 and mass  12.00000

 Molecular mass:   233.15281 amu.
 Principal axes and moments of inertia in atomic units:
                           1         2         3
     Eigenvalues --  1827.870017251.906498425.23185
           X            0.99991  -0.01317  -0.00205
           Y            0.01316   0.99990  -0.00485
           Z            0.00211   0.00482   0.99999
 This molecule is an asymmetric top.
 Rotational symmetry number  1.
 Warning -- assumption of classical behavior for rotation
           may cause significant error
 Rotational temperatures (Kelvin)      0.04739     0.01194     0.01028
 Rotational constants (GHZ):           0.98735     0.24886     0.21421
 Zero-point vibrational energy     819168.6 (Joules/Mol)
                                  195.78600 (Kcal/Mol)
 Warning -- explicit consideration of  23 degrees of freedom as
           vibrations may cause significant error
 Vibrational temperatures:     26.17    43.86    65.56    77.15   128.48
          (Kelvin)            192.16   240.20   281.10   340.77   405.29
                              418.53   443.75   476.43   523.51   561.37
                              613.74   630.18   660.23   699.11   758.90
                              798.22   833.58   861.41   919.66  1008.09
                             1031.06  1050.31  1087.10  1128.31  1165.28
                             1170.03  1188.56  1220.87  1267.20  1292.21
                             1322.59  1335.30  1348.36  1404.83  1427.61
                             1454.28  1461.09  1490.02  1497.21  1509.71
                             1555.16  1580.60  1592.69  1625.53  1650.15
                             1653.00  1693.74  1751.25  1755.62  1776.60
                             1792.54  1796.83  1823.26  1835.46  1856.39
                             1867.63  1891.53  1895.67  1928.55  1946.68
                             1954.79  1977.60  2002.40  2026.72  2034.30
                             2054.77  2131.73  2154.28  2162.73  2163.91
                             2171.75  2174.52  2181.50  2187.27  2212.81
                             2229.31  2341.51  2525.55  4316.98  4332.40
                             4364.01  4377.26  4389.59  4418.70  4427.33
                             4431.92  4451.54  4454.10  4459.45  4515.12
                             4526.62  4535.73  4538.31  4547.22  4560.80
                             4605.80  4978.11

 Zero-point correction=                           0.312005 (Hartree/Particle)
 Thermal correction to Energy=                    0.327348
 Thermal correction to Enthalpy=                  0.328292
 Thermal correction to Gibbs Free Energy=         0.267289
 Sum of electronic and zero-point Energies=           -745.869444
 Sum of electronic and thermal Energies=              -745.854101
 Sum of electronic and thermal Enthalpies=            -745.853157
 Sum of electronic and thermal Free Energies=         -745.914160

                     E (Thermal)             CV                S
                      KCal/Mol        Cal/Mol-Kelvin    Cal/Mol-Kelvin
 Total                  205.414             60.304            128.391
 Electronic               0.000              0.000              0.000
 Translational            0.889              2.981             42.241
 Rotational               0.889              2.981             33.079
 Vibrational            203.636             54.342             53.071
 Vibration     1          0.593              1.986              6.823
 Vibration     2          0.594              1.984              5.798
 Vibration     3          0.595              1.979              5.001
 Vibration     4          0.596              1.976              4.679
 Vibration     5          0.602              1.957              3.675
 Vibration     6          0.613              1.920              2.894
 Vibration     7          0.624              1.883              2.470
 Vibration     8          0.636              1.846              2.176
 Vibration     9          0.656              1.784              1.826
 Vibration    10          0.681              1.708              1.523
 Vibration    11          0.687              1.691              1.469
 Vibration    12          0.698              1.658              1.371
 Vibration    13          0.713              1.613              1.255
 Vibration    14          0.737              1.547              1.106
 Vibration    15          0.758              1.491              0.999
 Vibration    16          0.788              1.412              0.870
 Vibration    17          0.798              1.387              0.833
 Vibration    18          0.817              1.341              0.769
 Vibration    19          0.842              1.281              0.694
 Vibration    20          0.882              1.189              0.593
 Vibration    21          0.910              1.129              0.534
 Vibration    22          0.936              1.076              0.487
 Vibration    23          0.957              1.035              0.452

 Optimization completed.
    -- Stationary point found.
 Normal termination of Gaussian 16 at Fri Dec 11 13:27:59 2020.

 ----------------------------------------------------------------------
 # B3LYP/6-311++G(d,p) empiricaldispersion=gd3bj scf=xqc pop=npa geom=c
 heck
 ----------------------------------------------------------------------

 ---------------------------------------
 CID_146639846_JID_7651_Energie_neutraal
 ---------------------------------------
 Structure from the checkpoint file:  "JID_7651.chk"
 Charge =  0 Multiplicity = 1

 SCF Done:  E(RB3LYP) =  -746.385053569     A.U. after   15 cycles
 Normal termination of Gaussian 16 at Fri Dec 11 13:35:03 2020.

 ----------------------------------------------------------------------
 # B3LYP/6-311++G(d,p) empiricaldispersion=gd3bj scf=xqc pop=npa geom=c
 heck
 ----------------------------------------------------------------------

 -------------------------------------
 CID_146639846_JID_7651_Energie_kation
 -------------------------------------
 Structure from the checkpoint file:  "JID_7651.chk"
 Charge =  1 Multiplicity = 2

 SCF Done:  E(UB3LYP) =  -746.115432060     A.U. after   24 cycles
 Normal termination of Gaussian 16 at Fri Dec 11 13:51:06 2020.
 Gaussian 16:  ES64L-G16RevA.03 25-Dec-2016

 ----------------------------------------------------------------------
 # B3LYP/6-311++G(d,p) empiricaldispersion=gd3bj scf=xqc pop=npa geom=c
 heck
 ----------------------------------------------------------------------

 ------------------------------------
 CID_146639846_JID_7651_Energie_anion
 ------------------------------------
 Structure from the checkpoint file:  "JID_7651.chk"
 Charge = -1 Multiplicity = 2

                         Standard orientation:
 ---------------------------------------------------------------------
 Center     Atomic      Atomic             Coordinates (Angstroms)
 Number     Number       Type             X           Y           Z
 ---------------------------------------------------------------------
      1          6           0       -3.805028    0.987272    0.590572
      2          6           0       -3.947739    0.715469   -0.919464
      3          6           0       -2.977892   -0.499316   -0.817824
      4          6           0       -3.433759   -1.890424   -0.405934
      5          6           0       -3.320914   -1.655650    0.909973
      6          6           0       -2.838707   -0.223931    0.742384
      7          7           0       -1.709751   -0.211478   -0.177214
      8          6           0       -0.987997    1.029731   -0.443712
      9          6           0        0.004288    1.303655    0.710709
     10          6           0        1.446795    1.507785    0.254800
     11          8           0        1.992511    2.601089    0.381148
     12          7           0        2.086409    0.434745   -0.317077
     13          6           0        3.485633    0.571283   -0.717216
     14          6           0        4.362958   -0.362997    0.127866
     15          7           0        3.911172   -1.758786    0.123106
     16          6           0        2.489225   -1.857542    0.460806
     17          6           0        1.587620   -0.937646   -0.378999
     18          1           0       -4.727807    0.835135    1.152138
     19          1           0       -3.376634    1.950240    0.888561
     20          1           0       -4.949776    0.398716   -1.212238
     21          1           0       -3.622062    1.503913   -1.605947
     22          1           0       -3.663940   -2.769020   -1.004241
     23          1           0       -3.428810   -2.267931    1.802487
     24          1           0       -0.460983    0.877424   -1.391193
     25          1           0       -1.640818    1.901965   -0.582825
     26          1           0       -0.264246    2.218072    1.241632
     27          1           0       -0.059972    0.478658    1.428018
     28          1           0        3.575778    0.305100   -1.781708
     29          1           0        3.765282    1.617566   -0.591349
     30          1           0        4.351562   -0.010451    1.167228
     31          1           0        5.401140   -0.328156   -0.221340
     32          1           0        4.052886   -2.146168   -0.810439
     33          1           0        2.376345   -1.589404    1.519862
     34          1           0        2.169642   -2.899813    0.347930
     35          1           0        0.549098   -0.994687   -0.051361
     36          1           0        1.611521   -1.267367   -1.429873
 ---------------------------------------------------------------------

 SCF Done:  E(UB3LYP) =  -746.373731750     A.U. after   33 cycles
 SCF Done:  E(UB3LYP) =  -746.373731750     a.u. after    1 cycles

 The electronic state is 2-A.
 Alpha  occ. eigenvalues --  -18.98884 -14.24547 -14.23882 -14.20765 -10.17460
 Alpha  occ. eigenvalues --  -10.11574 -10.11384 -10.11257 -10.10471 -10.10404
 Alpha  occ. eigenvalues --  -10.10319 -10.10294 -10.09120 -10.08958 -10.08947
 Alpha  occ. eigenvalues --  -10.08739 -10.08651  -0.94152  -0.91294  -0.85464
 Alpha  occ. eigenvalues --   -0.80308  -0.74418  -0.68720  -0.68053  -0.66583
 Alpha  occ. eigenvalues --   -0.61230  -0.57696  -0.57060  -0.55294  -0.51951
 Alpha  occ. eigenvalues --   -0.49369  -0.47526  -0.46028  -0.42108  -0.41399
 Alpha  occ. eigenvalues --   -0.40309  -0.38936  -0.37934  -0.37637  -0.37104
 Alpha  occ. eigenvalues --   -0.35978  -0.35697  -0.33965  -0.33795  -0.33573
 Alpha  occ. eigenvalues --   -0.31992  -0.30716  -0.30181  -0.29481  -0.28149
 Alpha  occ. eigenvalues --   -0.27545  -0.26669  -0.26250  -0.25675  -0.25615
 Alpha  occ. eigenvalues --   -0.23947  -0.22471  -0.20176  -0.16997  -0.16747
 Alpha  occ. eigenvalues --   -0.16014  -0.12554  -0.11171   0.04194
 Alpha virt. eigenvalues --    0.05852   0.06398   0.07062   0.07124   0.08036
 Alpha virt. eigenvalues --    0.08160   0.08681   0.09286   0.09709   0.10676
 Alpha virt. eigenvalues --    0.10932   0.11054   0.11486   0.11824   0.11889

  Beta  occ. eigenvalues --  -18.98867 -14.24554 -14.23837 -14.20742 -10.17449
  Beta  occ. eigenvalues --  -10.11562 -10.11379 -10.11242 -10.10450 -10.10395
  Beta  occ. eigenvalues --  -10.10311 -10.10278 -10.09104 -10.08936 -10.08914
  Beta  occ. eigenvalues --  -10.08651 -10.08647  -0.94126  -0.91239  -0.85446
  Beta  occ. eigenvalues --   -0.80274  -0.74348  -0.68669  -0.68020  -0.66542
  Beta  occ. eigenvalues --   -0.61188  -0.57603  -0.57021  -0.55261  -0.51908
  Beta  occ. eigenvalues --   -0.49229  -0.47460  -0.45983  -0.42046  -0.41337
  Beta  occ. eigenvalues --   -0.40265  -0.38863  -0.37890  -0.37604  -0.37066
  Beta  occ. eigenvalues --   -0.35953  -0.35635  -0.33913  -0.33759  -0.33544
  Beta  occ. eigenvalues --   -0.31946  -0.30685  -0.30151  -0.29443  -0.28114
  Beta  occ. eigenvalues --   -0.27507  -0.26627  -0.26209  -0.25646  -0.25577
  Beta  occ. eigenvalues --   -0.23885  -0.22408  -0.19960  -0.16968  -0.16567
  Beta  occ. eigenvalues --   -0.15995  -0.12518  -0.11051
  Beta virt. eigenvalues --    0.06321   0.06880   0.06920   0.07419   0.07512
  Beta virt. eigenvalues --    0.08417   0.08527   0.08999   0.09580   0.09990
  Beta virt. eigenvalues --    0.10972   0.11106   0.11331   0.11617   0.12049

 Mulliken charges and spin densities:
               1          2
     1  C   -0.244021  -0.372186
     2  C    0.513381  -1.023118
     3  C    0.150136   0.030771
     4  C   -0.370072   0.245954
     5  C   -0.015263  -0.310623
     6  C    0.004051   0.422407
     7  N    0.323389   0.007973
     8  C   -0.152193  -0.373747
     9  C   -0.348035   0.100746
    10  C   -0.087744  -0.270332
    11  O   -0.342693   0.009651
    12  N   -0.002114   0.130575
    13  C    0.141898  -0.245781
    14  C    0.021282  -0.418617
    15  N   -0.258040   0.162517
    16  C    0.544473  -1.121794
    17  C   -0.473457   0.182607
    18  H   -0.131592   0.314558
    19  H    0.079729   0.063529
    20  H   -0.262316   0.438328
    21  H   -0.107887   0.263504
    22  H   -0.551442   0.700837
    23  H    0.043644   0.080982
    24  H   -0.157129   0.381749
    25  H    0.118379   0.008153
    26  H    0.150220   0.060731
    27  H    0.189213  -0.011615
    28  H   -0.190928   0.356366
    29  H    0.175548   0.011266
    30  H    0.194093  -0.043891
    31  H   -0.145547   0.325111
    32  H   -0.109730   0.354974
    33  H    0.141312   0.030561
    34  H   -0.104606   0.292213
    35  H    0.852518  -0.555554
    36  H   -0.588458   0.771196
 Sum of Mulliken charges =  -1.00000   1.00000

 Dipole moment (field-independent basis, Debye):
    X=             -0.7552    Y=              2.0796    Z=              4.9492  Tot=              5.4213
 Quadrupole moment (field-independent basis, Debye-Ang):
   XX=           -194.0179   YY=           -154.4319   ZZ=           -135.5845
   XY=              3.7021   XZ=              0.9033   YZ=             -8.0827

 Summary of Natural Population Analysis:

                                       Natural Population
                Natural  -----------------------------------------------
    Atom  No    Charge         Core      Valence    Rydberg      Total
 -----------------------------------------------------------------------
      C    1   -0.19905      0.99959     2.19003    0.00943     3.19905
      C    2   -0.19962      0.99959     2.19026    0.00976     3.19962
      C    3    0.06403      0.99941     1.92013    0.01643     2.93597
      C    4   -0.07076      0.99946     2.05873    0.01257     3.07076
      C    5   -0.09003      0.99947     2.07939    0.01117     3.09003
      C    6    0.04483      0.99942     1.94196    0.01379     2.95517
      N    7   -0.24955      0.99967     2.73451    0.01537     3.74955
      C    8   -0.08923      0.99959     2.07771    0.01193     3.08923
      C    9   -0.23645      0.99959     2.22854    0.00832     3.23645
      C   10    0.34885      0.99964     1.62822    0.02329     2.65115
      O   11   -0.33067      0.99988     3.32573    0.00506     4.33067
      N   12   -0.25835      0.99964     2.74736    0.01135     3.75835
      C   13   -0.09806      0.99961     2.08773    0.01072     3.09806
      C   14   -0.09372      0.99962     2.08287    0.01123     3.09372
      N   15   -0.33671      0.99976     2.82372    0.01323     3.83671
      C   16   -0.09260      0.99962     2.08162    0.01136     3.09260
      C   17   -0.10256      0.99959     2.09172    0.01124     3.10256
      H   18    0.10698      0.00000     0.39207    0.00095     0.39302
      H   19    0.09841      0.00000     0.40054    0.00105     0.40159
      H   20    0.10785      0.00000     0.39072    0.00142     0.39215
      H   21    0.10051      0.00000     0.39819    0.00130     0.39949
      H   22    0.09662      0.00000     0.40174    0.00165     0.40338
      H   23    0.09363      0.00000     0.40531    0.00106     0.40637
      H   24    0.10462      0.00000     0.39373    0.00165     0.39538
      H   25    0.09005      0.00000     0.40818    0.00177     0.40995
      H   26    0.11101      0.00000     0.38809    0.00091     0.38899
      H   27    0.11128      0.00000     0.38764    0.00108     0.38872
      H   28    0.09318      0.00000     0.40500    0.00182     0.40682
      H   29    0.11604      0.00000     0.38284    0.00113     0.38396
      H   30    0.08974      0.00000     0.40912    0.00114     0.41026
      H   31    0.09685      0.00000     0.40230    0.00085     0.40315
      H   32    0.17339      0.00000     0.32255    0.00406     0.32661
      H   33    0.08740      0.00000     0.41138    0.00122     0.41260
      H   34    0.09948      0.00000     0.39966    0.00086     0.40052
      H   35    0.11727      0.00000     0.38068    0.00205     0.38273
      H   36    0.09535      0.00000     0.40170    0.00294     0.40465
 =======================================================================
   * Total *   -0.00000     16.99315    45.77167    0.23518    63.00000

 Normal termination of Gaussian 16 at Fri Dec 11 14:12:17 2020.
