 Gaussian 16, Revision A.03,

 -----------------------------------------------------------
 # opt freq B3LYP/6-31G(d) empiricaldispersion=gd3bj scf=xqc
 -----------------------------------------------------------

 ------------------------------
 CID_131273827_JID_291_neutraal
 ------------------------------
 Symbolic Z-matrix:
 Charge =  0 Multiplicity = 1

 SCF Done:  E(RB3LYP) =  -437.600133025     A.U. after   14 cycles
 SCF Done:  E(RB3LYP) =  -437.603136142     A.U. after   11 cycles
 SCF Done:  E(RB3LYP) =  -437.603337602     A.U. after   10 cycles
 SCF Done:  E(RB3LYP) =  -437.603397081     A.U. after   11 cycles
 SCF Done:  E(RB3LYP) =  -437.603437794     A.U. after   10 cycles
 SCF Done:  E(RB3LYP) =  -437.603507703     A.U. after   11 cycles
 SCF Done:  E(RB3LYP) =  -437.603525978     A.U. after   11 cycles
 SCF Done:  E(RB3LYP) =  -437.603552304     A.U. after    9 cycles
 SCF Done:  E(RB3LYP) =  -437.603704531     A.U. after   14 cycles
 SCF Done:  E(RB3LYP) =  -437.603796563     A.U. after   12 cycles
 SCF Done:  E(RB3LYP) =  -437.604163089     A.U. after   12 cycles
 SCF Done:  E(RB3LYP) =  -437.604168094     A.U. after   11 cycles
 SCF Done:  E(RB3LYP) =  -437.604176216     A.U. after   11 cycles
 SCF Done:  E(RB3LYP) =  -437.604177285     A.U. after    9 cycles
 SCF Done:  E(RB3LYP) =  -437.604177623     A.U. after    8 cycles
 SCF Done:  E(RB3LYP) =  -437.604177781     A.U. after    8 cycles
 Optimization completed.
    -- Stationary point found.

 1\1\GINC-NODE364\FOpt\RB3LYP\6-31G(d)\C7H11N3\VSC10255\13-Dec-2020\0\\
 # opt freq B3LYP/6-31G(d) empiricaldispersion=gd3bj scf=xqc\\CID_13127
 3827_JID_291_neutraal\\0,1\C,-0.005622137,0.7958498691,0.283418096\C,-
 0.7022373013,-0.5031281356,-0.0441857394\C,0.7653423569,-0.4987915905,
 0.2794618107\C,1.7746989193,-0.7725084251,-0.8157791561\C,3.092538726,
 -0.1149500067,-0.4990937972\C,3.6043465553,0.4755827281,0.6337869347\N
 ,4.907607111,0.8893340389,0.4409917256\C,5.1940518424,0.5590190713,-0.
 7984656882\N,4.1353324814,-0.0543200972,-1.4133942664\N,1.859607002,-2

 Normal termination of Gaussian 16 at Sun Dec 13 12:18:04 2020.

 --------------------------------------------------------------------
 #N Geom=AllCheck Guess=TCheck SCRF=Check GenChk RB3LYP/6-31G(d) Freq
 --------------------------------------------------------------------

 Structure from the checkpoint file:  "JID_291.chk"
 ------------------------------
 CID_131273827_JID_291_neutraal
 ------------------------------
 Charge =  0 Multiplicity = 1

 SCF Done:  E(RB3LYP) =  -437.604177781     A.U. after    1 cycles

  Exact polarizability: 105.814   1.136  82.745   4.200  -8.543  65.678
 Approx polarizability: 140.139   6.815 130.116   5.509 -21.706 105.062

                      1                      2                      3
                      A                      A                      A
 Frequencies --     28.6490                63.6121               136.4535
 Red. masses --      3.5346                 3.2566                 2.9704
 Frc consts  --      0.0017                 0.0078                 0.0326
 IR Inten    --      5.2029                 0.1590                 1.8512

                      4                      5                      6
                      A                      A                      A
 Frequencies --    156.7403               212.8564               245.1356
 Red. masses --      4.1938                 1.3446                 2.0092
 Frc consts  --      0.0607                 0.0359                 0.0711
 IR Inten    --      4.4145                18.0216                29.9723

                      7                      8                      9
                      A                      A                      A
 Frequencies --    307.0557               374.5496               419.2877
 Red. masses --      3.3186                 4.0421                 3.1707
 Frc consts  --      0.1843                 0.3341                 0.3284
 IR Inten    --      2.2244                 8.6295                 8.0923

                     10                     11                     12
                      A                      A                      A
 Frequencies --    480.0533               510.1518               667.9819
 Red. masses --      1.9631                 1.9376                 2.8971
 Frc consts  --      0.2666                 0.2971                 0.7616
 IR Inten    --     49.2831                26.9725                 4.2928

                     13                     14                     15
                      A                      A                      A
 Frequencies --    680.6312               747.0522               786.0314
 Red. masses --      3.3966                 1.9122                 1.2690
 Frc consts  --      0.9271                 0.6288                 0.4620
 IR Inten    --      4.2599                17.0072                 3.5168

                     16                     17                     18
                      A                      A                      A
 Frequencies --    790.2097               840.0652               845.6314
 Red. masses --      1.3957                 1.3224                 1.3787
 Frc consts  --      0.5135                 0.5499                 0.5809
 IR Inten    --     23.4025                 2.5629                10.0238

                     19                     20                     21
                      A                      A                      A
 Frequencies --    862.8555               925.5762               938.9350
 Red. masses --      1.8611                 2.9857                 4.4823
 Frc consts  --      0.8164                 1.5070                 2.3282
 IR Inten    --      3.8558               190.7820                17.6206

                     22                     23                     24
                      A                      A                      A
 Frequencies --    959.7868               978.3477              1041.0544
 Red. masses --      2.3603                 3.3760                 2.9234
 Frc consts  --      1.2810                 1.9039                 1.8667
 IR Inten    --     15.4600                15.1249                 4.6521

                     25                     26                     27
                      A                      A                      A
 Frequencies --   1066.9666              1078.0957              1080.9343
 Red. masses --      1.3700                 1.3641                 1.3684
 Frc consts  --      0.9189                 0.9341                 0.9420
 IR Inten    --      3.7344                15.2048                 9.9210

                     28                     29                     30
                      A                      A                      A
 Frequencies --   1118.5816              1133.0258              1143.6276
 Red. masses --      1.5729                 2.1830                 1.1626
 Frc consts  --      1.1595                 1.6511                 0.8959
 IR Inten    --     21.5018                 7.1767                 4.8789

                     31                     32                     33
                      A                      A                      A
 Frequencies --   1155.7554              1208.2579              1218.5238
 Red. masses --      2.1611                 1.4162                 1.9865
 Frc consts  --      1.7008                 1.2182                 1.7378
 IR Inten    --     20.3060                 0.4614                 3.5214

                     34                     35                     36
                      A                      A                      A
 Frequencies --   1241.0614              1266.5980              1287.2693
 Red. masses --      1.8149                 1.6507                 1.5747
 Frc consts  --      1.6470                 1.5602                 1.5374
 IR Inten    --      1.1728                 2.1927                 2.9765

                     37                     38                     39
                      A                      A                      A
 Frequencies --   1324.1591              1386.0444              1400.7607
 Red. masses --      1.6646                 2.7345                 1.3299
 Frc consts  --      1.7196                 3.0952                 1.5374
 IR Inten    --     23.3166                13.5989                14.4201

                     40                     41                     42
                      A                      A                      A
 Frequencies --   1440.4256              1458.4852              1498.2661
 Red. masses --      2.7361                 1.7929                 1.0884
 Frc consts  --      3.3447                 2.2471                 1.4396
 IR Inten    --     19.1467                 8.9601                 1.5949

                     43                     44                     45
                      A                      A                      A
 Frequencies --   1513.3342              1539.6314              1616.3249
 Red. masses --      4.0728                 1.4169                 4.2003
 Frc consts  --      5.4956                 1.9789                 6.4653
 IR Inten    --     23.0099                 1.0890                 8.9542

                     46                     47                     48
                      A                      A                      A
 Frequencies --   1698.6433              3010.9440              3143.0200
 Red. masses --      1.0899                 1.0832                 1.0844
 Frc consts  --      1.8528                 5.7856                 6.3115
 IR Inten    --     22.2601                31.6289                19.2494

                     49                     50                     51
                      A                      A                      A
 Frequencies --   3147.2236              3152.8709              3221.0937
 Red. masses --      1.0522                 1.0615                 1.1195
 Frc consts  --      6.1406                 6.2168                 6.8436
 IR Inten    --     18.0470                 9.1364                 0.5886

                     52                     53                     54
                      A                      A                      A
 Frequencies --   3235.2773              3263.4742              3269.7539
 Red. masses --      1.1160                 1.0954                 1.0976
 Frc consts  --      6.8826                 6.8735                 6.9142
 IR Inten    --     22.9004                 8.0330                 4.2997

                     55                     56                     57
                      A                      A                      A
 Frequencies --   3443.2433              3527.4967              3640.2458
 Red. masses --      1.0498                 1.0915                 1.0804
 Frc consts  --      7.3332                 8.0019                 8.4349
 IR Inten    --      4.3923                 2.7079                31.3569

 - Thermochemistry -
 -------------------
 Temperature   298.150 Kelvin.  Pressure   1.00000 Atm.
 Atom     1 has atomic number  6 and mass  12.00000

 Molecular mass:   137.09530 amu.
 Principal axes and moments of inertia in atomic units:
                           1         2         3
     Eigenvalues --   649.758452095.846642492.42545
           X            0.99976  -0.02136   0.00417
           Y            0.02139   0.99975  -0.00712
           Z           -0.00401   0.00721   0.99997
 This molecule is an asymmetric top.
 Rotational symmetry number  1.
 Warning -- assumption of classical behavior for rotation
           may cause significant error
 Rotational temperatures (Kelvin)      0.13330     0.04133     0.03475
 Rotational constants (GHZ):           2.77756     0.86110     0.72409
 Zero-point vibrational energy     472095.0 (Joules/Mol)
                                  112.83341 (Kcal/Mol)
 Warning -- explicit consideration of  11 degrees of freedom as
           vibrations may cause significant error
 Vibrational temperatures:     41.22    91.52   196.33   225.51   306.25
          (Kelvin)            352.70   441.78   538.89   603.26   690.69
                              733.99   961.08   979.28  1074.84  1130.92
                             1136.94  1208.67  1216.67  1241.46  1331.70
                             1350.92  1380.92  1407.62  1497.85  1535.13
                             1551.14  1555.22  1609.39  1630.17  1645.42
                             1662.87  1738.41  1753.18  1785.61  1822.35
                             1852.09  1905.17  1994.21  2015.38  2072.45
                             2098.43  2155.67  2177.35  2215.19  2325.53
                             2443.97  4332.08  4522.10  4528.15  4536.28
                             4634.44  4654.84  4695.41  4704.45  4954.06
                             5075.28  5237.50

 Zero-point correction=                           0.179811 (Hartree/Particle)
 Thermal correction to Energy=                    0.189365
 Thermal correction to Enthalpy=                  0.190309
 Thermal correction to Gibbs Free Energy=         0.143947
 Sum of electronic and zero-point Energies=           -437.424366
 Sum of electronic and thermal Energies=              -437.414813
 Sum of electronic and thermal Enthalpies=            -437.413869
 Sum of electronic and thermal Free Energies=         -437.460230

                     E (Thermal)             CV                S
                      KCal/Mol        Cal/Mol-Kelvin    Cal/Mol-Kelvin
 Total                  118.828             35.716             97.577
 Electronic               0.000              0.000              0.000
 Translational            0.889              2.981             40.658
 Rotational               0.889              2.981             29.608
 Vibrational            117.051             29.755             27.310
 Vibration     1          0.593              1.984              5.921
 Vibration     2          0.597              1.972              4.342
 Vibration     3          0.614              1.917              2.853
 Vibration     4          0.620              1.895              2.589
 Vibration     5          0.644              1.821              2.019
 Vibration     6          0.660              1.771              1.765
 Vibration     7          0.697              1.660              1.378
 Vibration     8          0.746              1.524              1.061
 Vibration     9          0.782              1.428              0.894
 Vibration    10          0.836              1.294              0.710
 Vibration    11          0.865              1.228              0.633

                           ! Non-Optimized Parameters !

 1\1\GINC-NODE364\Freq\RB3LYP\6-31G(d)\C7H11N3\VSC10255\13-Dec-2020\0\\
 #N Geom=AllCheck Guess=TCheck SCRF=Check GenChk RB3LYP/6-31G(d) Freq\\
 CID_131273827_JID_291_neutraal\\0,1\C,-0.005622137,0.7958498691,0.2834
 18096\C,-0.7022373013,-0.5031281356,-0.0441857394\C,0.7653423569,-0.49
 87915905,0.2794618107\C,1.7746989193,-0.7725084251,-0.8157791561\C,3.0
 92538726,-0.1149500067,-0.4990937972\C,3.6043465553,0.4755827281,0.633
 7869347\N,4.907607111,0.8893340389,0.4409917256\C,5.1940518424,0.55901
 90713,-0.7984656882\N,4.1353324814,-0.0543200972,-1.4133942664\N,1.859

 Normal termination of Gaussian 16 at Sun Dec 13 12:21:21 2020.

 ----------------------------------------------------------------------
 # B3LYP/6-311++G(d,p) empiricaldispersion=gd3bj scf=xqc pop=npa geom=c
 heck
 ----------------------------------------------------------------------

 --------------------------------------
 CID_131273827_JID_291_Energie_neutraal
 --------------------------------------
 Structure from the checkpoint file:  "JID_291.chk"
 Charge =  0 Multiplicity = 1

 SCF Done:  E(RB3LYP) =  -437.735497857     A.U. after   14 cycles
 Normal termination of Gaussian 16 at Sun Dec 13 12:22:14 2020.

 ----------------------------------------------------------------------
 # B3LYP/6-311++G(d,p) empiricaldispersion=gd3bj scf=xqc pop=npa geom=c
 heck
 ----------------------------------------------------------------------

 ------------------------------------
 CID_131273827_JID_291_Energie_kation
 ------------------------------------
 Structure from the checkpoint file:  "JID_291.chk"
 Charge =  1 Multiplicity = 2

 SCF Done:  E(UB3LYP) =  -437.430623509     A.U. after   21 cycles
 Normal termination of Gaussian 16 at Sun Dec 13 12:24:22 2020.
 Gaussian 16:  ES64L-G16RevA.03 25-Dec-2016

 -----------------------------------
 CID_131273827_JID_291_Energie_anion
 -----------------------------------
 Structure from the checkpoint file:  "JID_291.chk"
 Charge = -1 Multiplicity = 2

                         Standard orientation:
 ---------------------------------------------------------------------
 Center     Atomic      Atomic             Coordinates (Angstroms)
 Number     Number       Type             X           Y           Z
 ---------------------------------------------------------------------
      1          6           0        2.226884   -1.360116   -0.526047
      2          6           0        3.110031   -0.193590   -0.152942
      3          6           0        1.701072   -0.264701    0.365068
      4          6           0        0.660060    0.701237   -0.160795
      5          6           0       -0.718843    0.103653   -0.056418
      6          6           0       -1.221078   -1.003695    0.588280
      7          7           0       -2.589218   -1.101769    0.428838
      8          6           0       -2.925124   -0.066825   -0.308367
      9          7           0       -1.835371    0.698315   -0.628068
     10          7           0        0.815207    2.003551    0.525620
     11          1           0        2.431166   -2.330939   -0.084099
     12          1           0        1.842209   -1.409306   -1.541439
     13          1           0        3.924298   -0.363075    0.545477
     14          1           0        3.324355    0.554517   -0.911109
     15          1           0        1.578867   -0.510905    1.419107
     16          1           0        0.883654    0.890274   -1.221585
     17          1           0       -0.669314   -1.744062    1.149986
     18          1           0       -3.924361    0.180662   -0.641061
     19          1           0       -1.835538    1.523390   -1.210526
     20          1           0        0.095480    2.649599    0.200557
     21          1           0        0.616843    1.863387    1.517299
 ---------------------------------------------------------------------

 SCF Done:  E(UB3LYP) =  -437.726327192     A.U. after   30 cycles

 The electronic state is 2-A.
 Alpha  occ. eigenvalues --  -14.24582 -14.18487 -14.18151 -10.10911 -10.10700
 Alpha  occ. eigenvalues --  -10.08915 -10.08149 -10.07751 -10.07570 -10.06910
 Alpha  occ. eigenvalues --   -0.89880  -0.79266  -0.75737  -0.74881  -0.64509
 Alpha  occ. eigenvalues --   -0.57411  -0.50819  -0.49648  -0.49518  -0.46211
 Alpha  occ. eigenvalues --   -0.43394  -0.39646  -0.38628  -0.34444  -0.33486
 Alpha  occ. eigenvalues --   -0.32634  -0.32436  -0.29813  -0.29068  -0.27283
 Alpha  occ. eigenvalues --   -0.24877  -0.20265  -0.19728  -0.17350  -0.16707
 Alpha  occ. eigenvalues --   -0.14550  -0.11366   0.04790
 Alpha virt. eigenvalues --    0.06860   0.08294   0.08700   0.09363   0.10537
 Alpha virt. eigenvalues --    0.10876   0.11733   0.12292   0.12835   0.13511
 Alpha virt. eigenvalues --    0.14189   0.14956   0.16151   0.16715   0.16984

  Beta  occ. eigenvalues --  -14.24491 -14.18438 -14.18155 -10.10891 -10.10679
  Beta  occ. eigenvalues --  -10.08918 -10.08145 -10.07743 -10.07560 -10.06897
  Beta  occ. eigenvalues --   -0.89819  -0.79209  -0.75678  -0.74806  -0.64455
  Beta  occ. eigenvalues --   -0.57347  -0.50790  -0.49600  -0.49367  -0.46166
  Beta  occ. eigenvalues --   -0.43327  -0.39593  -0.38588  -0.34372  -0.33438
  Beta  occ. eigenvalues --   -0.32559  -0.32391  -0.29786  -0.29008  -0.27271
  Beta  occ. eigenvalues --   -0.24836  -0.20249  -0.19710  -0.17315  -0.16674
  Beta  occ. eigenvalues --   -0.14510  -0.11333
  Beta virt. eigenvalues --    0.06877   0.08534   0.08624   0.08918   0.09940
  Beta virt. eigenvalues --    0.11240   0.11638   0.11896   0.12498   0.12866
  Beta virt. eigenvalues --    0.13913   0.14813   0.15302   0.16330   0.16771

 Mulliken charges and spin densities:
               1          2
     1  C   -0.072714  -0.457472
     2  C    0.525228  -0.946771
     3  C   -1.114980   1.512530
     4  C    3.400577  -4.273071
     5  C   -0.058152   0.399653
     6  C   -0.204288  -0.422104
     7  N   -0.182244   0.011513
     8  C   -0.357801   0.502857
     9  N   -0.260652   0.130427
    10  N   -0.376462   0.171932
    11  H    0.105064   0.019389
    12  H   -0.000121   0.144199
    13  H   -0.072255   0.205676
    14  H    0.107467   0.036140
    15  H   -0.042065   0.256929
    16  H   -0.602963   0.813498
    17  H    0.050360   0.070326
    18  H   -0.836592   1.017181
    19  H   -0.755401   1.102053
    20  H   -0.217063   0.461778
    21  H   -0.034942   0.243337
 Sum of Mulliken charges =  -1.00000   1.00000

 Dipole moment (field-independent basis, Debye):
    X=              5.4220    Y=             -5.9156    Z=              3.1353  Tot=              8.6153
 Quadrupole moment (field-independent basis, Debye-Ang):
   XX=           -112.1519   YY=           -104.7858   ZZ=            -89.2417
   XY=              2.1833   XZ=             -4.4167   YZ=              8.7727

 Summary of Natural Population Analysis:

                                       Natural Population
                Natural  -----------------------------------------------
    Atom  No    Charge         Core      Valence    Rydberg      Total
 -----------------------------------------------------------------------
      C    1   -0.19666      0.99962     2.19049    0.00655     3.19666
      C    2   -0.19249      0.99962     2.18605    0.00682     3.19249
      C    3   -0.11009      0.99957     2.09983    0.01069     3.11009
      C    4   -0.03277      0.99954     2.01708    0.01616     3.03277
      C    5    0.04825      0.99951     1.93671    0.01553     2.95175
      C    6   -0.03650      0.99950     2.02489    0.01210     3.03650
      N    7   -0.26409      0.99973     2.75384    0.01052     3.76409
      C    8    0.10332      0.99965     1.87802    0.01900     2.89668
      N    9   -0.27193      0.99966     2.75973    0.01255     3.77193
      N   10   -0.41321      0.99978     2.90343    0.01000     3.91321
      H   11    0.09841      0.00000     0.40056    0.00104     0.40159
      H   12    0.10324      0.00000     0.39572    0.00104     0.39676
      H   13    0.09851      0.00000     0.40042    0.00106     0.40149
      H   14    0.10474      0.00000     0.39417    0.00109     0.39526
      H   15    0.10238      0.00000     0.39645    0.00117     0.39762
      H   16    0.09947      0.00000     0.39759    0.00294     0.40053
      H   17    0.09490      0.00000     0.40383    0.00126     0.40510
      H   18    0.09367      0.00000     0.40461    0.00172     0.40633
      H   19    0.21989      0.00000     0.22633    0.05378     0.28011
      H   20    0.18146      0.00000     0.31426    0.00428     0.31854
      H   21    0.16949      0.00000     0.32827    0.00225     0.33051
 =======================================================================
   * Total *   -0.00000      9.99617    26.81227    0.19156    37.00000

 Normal termination of Gaussian 16 at Sun Dec 13 12:27:20 2020.
