 Gaussian 16, Revision A.03,

 -----------------------------------------------------------
 # opt freq B3LYP/6-31G(d) empiricaldispersion=gd3bj scf=xqc
 -----------------------------------------------------------

 -------------------------------
 CID_152541053_JID_2633_neutraal
 -------------------------------
 Symbolic Z-matrix:
 Charge =  0 Multiplicity = 1

 SCF Done:  E(RB3LYP) =  -925.752732015     A.U. after   16 cycles
 SCF Done:  E(RB3LYP) =  -925.759330215     A.U. after   16 cycles
 SCF Done:  E(RB3LYP) =  -925.761059652     A.U. after   14 cycles
 SCF Done:  E(RB3LYP) =  -925.762161487     A.U. after   16 cycles
 SCF Done:  E(RB3LYP) =  -925.762651557     A.U. after   13 cycles
 SCF Done:  E(RB3LYP) =  -925.763243927     A.U. after   16 cycles
 SCF Done:  E(RB3LYP) =  -925.764127981     A.U. after   17 cycles
 SCF Done:  E(RB3LYP) =  -925.764946899     A.U. after   16 cycles
 SCF Done:  E(RB3LYP) =  -925.766300110     A.U. after   17 cycles
 SCF Done:  E(RB3LYP) =  -925.766522522     A.U. after   13 cycles
 SCF Done:  E(RB3LYP) =  -925.766686238     A.U. after    9 cycles
 SCF Done:  E(RB3LYP) =  -925.766693008     A.U. after   10 cycles
 SCF Done:  E(RB3LYP) =  -925.766696220     A.U. after   10 cycles
 SCF Done:  E(RB3LYP) =  -925.766696537     A.U. after    8 cycles
 SCF Done:  E(RB3LYP) =  -925.766696650     A.U. after    8 cycles
 Optimization completed.
    -- Stationary point found.
 Normal termination of Gaussian 16 at Wed Dec  9 17:49:02 2020.

 --------------------------------------------------------------------
 #N Geom=AllCheck Guess=TCheck SCRF=Check GenChk RB3LYP/6-31G(d) Freq
 --------------------------------------------------------------------

 Structure from the checkpoint file:  "JID_2633.chk"
 -------------------------------
 CID_152541053_JID_2633_neutraal
 -------------------------------
 Charge =  0 Multiplicity = 1

 SCF Done:  E(RB3LYP) =  -925.766696650     A.U. after    1 cycles

  Exact polarizability: 124.711   1.218 104.933  -7.411   1.105  85.176
 Approx polarizability: 197.565   3.139 158.897 -29.632   7.478 139.410

                      1                      2                      3
                      A                      A                      A
 Frequencies --     38.6194                77.9852                84.1998
 Red. masses --      8.6064                 5.9370                 3.2471
 Frc consts  --      0.0076                 0.0213                 0.0136
 IR Inten    --      0.1304                 2.5304                 3.0734

                      4                      5                      6
                      A                      A                      A
 Frequencies --     94.0430               108.9900               143.9773
 Red. masses --      3.3524                 6.4048                 4.2995
 Frc consts  --      0.0175                 0.0448                 0.0525
 IR Inten    --      2.6128                 4.7031                 1.5240

                      7                      8                      9
                      A                      A                      A
 Frequencies --    163.0005               168.4531               193.1211
 Red. masses --      2.1310                 1.1768                 1.7407
 Frc consts  --      0.0334                 0.0197                 0.0382
 IR Inten    --      1.3192                 1.6921                 1.6634

                     10                     11                     12
                      A                      A                      A
 Frequencies --    217.9272               270.0200               302.9492
 Red. masses --      3.9322                 4.8988                 5.6684
 Frc consts  --      0.1100                 0.2104                 0.3065
 IR Inten    --      0.2929                 7.7606                 5.9315

                     13                     14                     15
                      A                      A                      A
 Frequencies --    331.6943               399.1952               423.3001
 Red. masses --      7.1448                 6.2310                 4.3070
 Frc consts  --      0.4631                 0.5850                 0.4547
 IR Inten    --      2.6844                 5.1563                 0.4301

                     16                     17                     18
                      A                      A                      A
 Frequencies --    458.1216               494.6030               569.4374
 Red. masses --      4.5364                 6.2662                12.9642
 Frc consts  --      0.5610                 0.9032                 2.4768
 IR Inten    --      1.5766                 2.3645                13.4709

                     19                     20                     21
                      A                      A                      A
 Frequencies --    580.7055               668.0462               695.6137
 Red. masses --      7.7444                 5.6631                 4.8573
 Frc consts  --      1.5387                 1.4891                 1.3848
 IR Inten    --      2.4511                 2.4733                 8.3722

                     22                     23                     24
                      A                      A                      A
 Frequencies --    711.6334               780.2218               883.9538
 Red. masses --      6.3011                 6.4881                 3.0145
 Frc consts  --      1.8801                 2.3270                 1.3878
 IR Inten    --      5.3811                17.1530                13.1904

                     25                     26                     27
                      A                      A                      A
 Frequencies --    916.8565               956.4815               997.8138
 Red. masses --      1.6034                 5.7317                 1.6699
 Frc consts  --      0.7941                 3.0895                 0.9796
 IR Inten    --      2.5232                16.7746                11.8471

                     28                     29                     30
                      A                      A                      A
 Frequencies --   1002.4774              1033.3809              1074.6590
 Red. masses --      1.4247                 2.4456                 1.3315
 Frc consts  --      0.8435                 1.5387                 0.9060
 IR Inten    --     12.3851                 8.7825                 1.5209

                     31                     32                     33
                      A                      A                      A
 Frequencies --   1078.1448              1138.3742              1193.3550
 Red. masses --      3.6462                 3.2404                 1.2738
 Frc consts  --      2.4972                 2.4741                 1.0687
 IR Inten    --     37.9227               115.5381                 2.0176

                     34                     35                     36
                      A                      A                      A
 Frequencies --   1224.7208              1272.7124              1302.3491
 Red. masses --      1.4964                 3.7701                 8.5343
 Frc consts  --      1.3224                 3.5981                 8.5285
 IR Inten    --      4.9658                52.3450               212.2849

                     37                     38                     39
                      A                      A                      A
 Frequencies --   1345.5687              1383.0480              1476.4952
 Red. masses --      5.6698                 1.1606                 1.2333
 Frc consts  --      6.0482                 1.3081                 1.5841
 IR Inten    --     37.4143                 0.2236                 7.8660

                     40                     41                     42
                      A                      A                      A
 Frequencies --   1494.8479              1501.2709              1516.9026
 Red. masses --      1.0596                 1.1550                 1.0517
 Frc consts  --      1.3951                 1.5338                 1.4258
 IR Inten    --      3.1986                 0.9458                 4.8838

                     43                     44                     45
                      A                      A                      A
 Frequencies --   1519.0674              1535.3064              2272.3955
 Red. masses --      1.0539                 1.0502                13.9672
 Frc consts  --      1.4328                 1.4585                42.4940
 IR Inten    --     10.9944                10.7111               524.6222

                     46                     47                     48
                      A                      A                      A
 Frequencies --   2360.0964              3035.0867              3077.8295
 Red. masses --     12.6889                 1.0341                 1.0288
 Frc consts  --     41.6422                 5.6124                 5.7421
 IR Inten    --     11.4413                43.2519                15.3393

                     49                     50                     51
                      A                      A                      A
 Frequencies --   3098.2737              3166.2899              3168.3227
 Red. masses --      1.1066                 1.0537                 1.1061
 Frc consts  --      6.2585                 6.2240                 6.5419
 IR Inten    --     29.9810                 0.5580                 3.4262

                     52                     53                     54
                      A                      A                      A
 Frequencies --   3169.6115              3177.1688              3260.8582
 Red. masses --      1.1008                 1.1081                 1.1201
 Frc consts  --      6.5158                 6.5902                 7.0172
 IR Inten    --     17.5910                 2.7650                 0.4189

 - Thermochemistry -
 -------------------
 Temperature   298.150 Kelvin.  Pressure   1.00000 Atm.
 Atom     1 has atomic number  6 and mass  12.00000

 Molecular mass:   184.04188 amu.
 Principal axes and moments of inertia in atomic units:
                           1         2         3
     Eigenvalues --  1641.999352597.471593452.24519
           X            0.99968   0.00630   0.02460
           Y           -0.00501   0.99864  -0.05188
           Z           -0.02490   0.05174   0.99835
 This molecule is an asymmetric top.
 Rotational symmetry number  1.
 Warning -- assumption of classical behavior for rotation
           may cause significant error
 Rotational temperatures (Kelvin)      0.05275     0.03335     0.02509
 Rotational constants (GHZ):           1.09911     0.69481     0.52277
 Zero-point vibrational energy     380469.8 (Joules/Mol)
                                   90.93446 (Kcal/Mol)
 Warning -- explicit consideration of  19 degrees of freedom as
           vibrations may cause significant error
 Vibrational temperatures:     55.56   112.20   121.14   135.31   156.81
          (Kelvin)            207.15   234.52   242.37   277.86   313.55
                              388.50   435.88   477.23   574.35   609.03
                              659.13   711.62   819.29   835.51   961.17
                             1000.83  1023.88  1122.57  1271.81  1319.15
                             1376.16  1435.63  1442.34  1486.80  1546.19
                             1551.21  1637.87  1716.97  1762.10  1831.15
                             1873.79  1935.97  1989.90  2124.35  2150.75
                             2159.99  2182.48  2185.60  2208.96  3269.47
                             3395.65  4366.81  4428.31  4457.72  4555.59
                             4558.51  4560.36  4571.24  4691.65

 Zero-point correction=                           0.144913 (Hartree/Particle)
 Thermal correction to Energy=                    0.158160
 Thermal correction to Enthalpy=                  0.159105
 Thermal correction to Gibbs Free Energy=         0.104362
 Sum of electronic and zero-point Energies=           -925.621783
 Sum of electronic and thermal Energies=              -925.608536
 Sum of electronic and thermal Enthalpies=            -925.607592
 Sum of electronic and thermal Free Energies=         -925.662335

                     E (Thermal)             CV                S
                      KCal/Mol        Cal/Mol-Kelvin    Cal/Mol-Kelvin
 Total                   99.247             45.767            115.216
 Electronic               0.000              0.000              0.000
 Translational            0.889              2.981             41.536
 Rotational               0.889              2.981             31.066
 Vibrational             97.470             39.805             42.613
 Vibration     1          0.594              1.981              5.329
 Vibration     2          0.599              1.964              3.941
 Vibration     3          0.601              1.960              3.791
 Vibration     4          0.603              1.953              3.574
 Vibration     5          0.606              1.942              3.287
 Vibration     6          0.616              1.909              2.750
 Vibration     7          0.623              1.888              2.515
 Vibration     8          0.625              1.881              2.453
 Vibration     9          0.635              1.849              2.198
 Vibration    10          0.646              1.814              1.976
 Vibration    11          0.674              1.728              1.596
 Vibration    12          0.694              1.668              1.401
 Vibration    13          0.714              1.612              1.252
 Vibration    14          0.765              1.472              0.966
 Vibration    15          0.785              1.420              0.881
 Vibration    16          0.816              1.343              0.772
 Vibration    17          0.850              1.262              0.672
 Vibration    18          0.925              1.097              0.505
 Vibration    19          0.937              1.073              0.484

 Optimization completed.
    -- Stationary point found.
 Normal termination of Gaussian 16 at Wed Dec  9 17:53:27 2020.

 ----------------------------------------------------------------------
 # B3LYP/6-311++G(d,p) empiricaldispersion=gd3bj scf=xqc pop=npa geom=c
 heck
 ----------------------------------------------------------------------

 ---------------------------------------
 CID_152541053_JID_2633_Energie_neutraal
 ---------------------------------------
 Structure from the checkpoint file:  "JID_2633.chk"
 Charge =  0 Multiplicity = 1

 SCF Done:  E(RB3LYP) =  -925.940633450     A.U. after   16 cycles
 Normal termination of Gaussian 16 at Wed Dec  9 17:55:44 2020.

 ----------------------------------------------------------------------
 # B3LYP/6-311++G(d,p) empiricaldispersion=gd3bj scf=xqc pop=npa geom=c
 heck
 ----------------------------------------------------------------------

 -------------------------------------
 CID_152541053_JID_2633_Energie_kation
 -------------------------------------
 Structure from the checkpoint file:  "JID_2633.chk"
 Charge =  1 Multiplicity = 2

 SCF Done:  E(UB3LYP) =  -925.613775025     A.U. after   24 cycles
 Normal termination of Gaussian 16 at Wed Dec  9 18:00:08 2020.
 Gaussian 16:  ES64L-G16RevA.03 25-Dec-2016

 ----------------------------------------------------------------------
 # B3LYP/6-311++G(d,p) empiricaldispersion=gd3bj scf=xqc pop=npa geom=c
 heck
 ----------------------------------------------------------------------

 ------------------------------------
 CID_152541053_JID_2633_Energie_anion
 ------------------------------------
 Structure from the checkpoint file:  "JID_2633.chk"
 Charge = -1 Multiplicity = 2

                         Standard orientation:
 ---------------------------------------------------------------------
 Center     Atomic      Atomic             Coordinates (Angstroms)
 Number     Number       Type             X           Y           Z
 ---------------------------------------------------------------------
      1          6           0       -3.178802   -0.549362   -0.574221
      2          8           0       -1.898896   -0.736381    0.029683
      3          6           0       -1.043322    0.341468   -0.137012
      4          6           0       -0.342617    0.542454   -1.475454
      5          6           0        0.435797    0.023109   -0.287688
      6          7           0        1.285292    0.961452    0.429918
      7          7           0        2.414902    1.118658   -0.061324
      8          7           0        3.479370    1.337066   -0.399187
      9         16           0        0.969607   -1.693524   -0.327680
     10          6           0        0.743808   -2.094924    1.442582
     11          6           0       -1.418127    1.522689    0.622386
     12          7           0       -1.801543    2.440726    1.221184
     13          1           0       -3.715312    0.288525   -0.112212
     14          1           0       -3.729662   -1.475612   -0.405602
     15          1           0       -3.081566   -0.368499   -1.652505
     16          1           0       -0.598443   -0.170759   -2.252385
     17          1           0       -0.145488    1.558375   -1.801517
     18          1           0        1.297988   -1.388214    2.064096
     19          1           0       -0.318300   -2.073333    1.693166
     20          1           0        1.141661   -3.100961    1.594679
 ---------------------------------------------------------------------

 SCF Done:  E(UB3LYP) =  -925.936726798     A.U. after   33 cycles
 SCF Done:  E(UB3LYP) =  -925.936726798     a.u. after    1 cycles

 The electronic state is 2-A.
 Alpha  occ. eigenvalues --  -88.74150 -19.04970 -14.31826 -14.23039 -14.22636
 Alpha  occ. eigenvalues --  -14.20870 -10.17452 -10.14969 -10.11571 -10.10846
 Alpha  occ. eigenvalues --  -10.09709 -10.09120  -7.82763  -5.79172  -5.78808
 Alpha  occ. eigenvalues --   -5.78098  -0.99829  -0.96941  -0.85408  -0.80496
 Alpha  occ. eigenvalues --   -0.77509  -0.67968  -0.61511  -0.57389  -0.55784
 Alpha  occ. eigenvalues --   -0.51999  -0.46468  -0.42429  -0.38188  -0.37575
 Alpha  occ. eigenvalues --   -0.37495  -0.35478  -0.34828  -0.33097  -0.32339
 Alpha  occ. eigenvalues --   -0.31631  -0.31052  -0.28168  -0.27032  -0.25834
 Alpha  occ. eigenvalues --   -0.25231  -0.24500  -0.22661  -0.20350  -0.18839
 Alpha  occ. eigenvalues --   -0.17201  -0.13476  -0.12124   0.04808
 Alpha virt. eigenvalues --    0.06478   0.07292   0.08836   0.09738   0.10186
 Alpha virt. eigenvalues --    0.10892   0.11330   0.11767   0.12121   0.12719
 Alpha virt. eigenvalues --    0.13456   0.14056   0.14857   0.15078   0.15260

  Beta  occ. eigenvalues --  -88.74142 -19.04969 -14.31391 -14.22670 -14.22528
  Beta  occ. eigenvalues --  -14.20804 -10.17448 -10.14798 -10.11512 -10.10850
  Beta  occ. eigenvalues --  -10.09702 -10.09104  -7.82754  -5.79145  -5.78807
  Beta  occ. eigenvalues --   -5.78094  -0.99047  -0.96917  -0.85082  -0.80394
  Beta  occ. eigenvalues --   -0.77355  -0.67911  -0.61421  -0.57256  -0.55596
  Beta  occ. eigenvalues --   -0.51768  -0.46357  -0.42294  -0.37496  -0.37292
  Beta  occ. eigenvalues --   -0.37073  -0.34906  -0.34586  -0.33007  -0.32305
  Beta  occ. eigenvalues --   -0.30760  -0.30505  -0.27940  -0.26933  -0.25725
  Beta  occ. eigenvalues --   -0.25116  -0.24293  -0.22513  -0.19929  -0.18737
  Beta  occ. eigenvalues --   -0.16567  -0.13375  -0.12010
  Beta virt. eigenvalues --    0.07306   0.07768   0.09349   0.09868   0.09928
  Beta virt. eigenvalues --    0.11060   0.11380   0.11750   0.11914   0.12391
  Beta virt. eigenvalues --    0.13061   0.13671   0.14205   0.15165   0.15242

 Mulliken charges and spin densities:
               1          2
     1  C    1.177104  -1.457884
     2  O   -0.087721   0.052341
     3  C   -0.221079   0.531973
     4  C    0.132005  -0.553420
     5  C   -0.069799   0.207775
     6  N   -0.652895   0.144324
     7  N    0.946956   0.001938
     8  N   -0.303024   0.243825
     9  S    0.166439  -0.086124
    10  C   -0.521669  -0.179685
    11  C   -0.535110  -0.064840
    12  N   -0.277120   0.030024
    13  H   -0.067982   0.224492
    14  H   -0.539327   0.689936
    15  H   -0.520555   0.663774
    16  H   -0.168776   0.386156
    17  H    0.232884  -0.040951
    18  H    0.167680   0.008291
    19  H    0.134682   0.048346
    20  H    0.007307   0.149709
 Sum of Mulliken charges =  -1.00000   1.00000

 Dipole moment (field-independent basis, Debye):
    X=              2.0672    Y=             -1.0155    Z=              1.0785  Tot=              2.5432
 Quadrupole moment (field-independent basis, Debye-Ang):
   XX=           -140.9701   YY=           -111.5948   ZZ=            -99.4560
   XY=             -9.0992   XZ=             -2.1555   YZ=            -10.3894

 Summary of Natural Population Analysis:

                                       Natural Population
                Natural  -----------------------------------------------
    Atom  No    Charge         Core      Valence    Rydberg      Total
 -----------------------------------------------------------------------
      C    1   -0.09909      0.99959     2.09011    0.00938     3.09909
      O    2   -0.28355      0.99987     3.27328    0.01040     4.28355
      C    3    0.07591      0.99930     1.90739    0.01739     2.92409
      C    4   -0.19734      0.99954     2.18646    0.01134     3.19734
      C    5   -0.00150      0.99946     1.98327    0.01878     3.00150
      N    6   -0.22792      0.99965     2.71381    0.01445     3.72792
      N    7    0.15515      0.99970     2.32924    0.01591     3.34485
      N    8    0.01970      0.99982     2.46772    0.01276     3.48030
      S    9    0.11823      4.99954     2.86346    0.01878     7.88177
      C   10   -0.35259      0.99961     2.34615    0.00683     3.35259
      C   11    0.14983      0.99960     1.83146    0.01911     2.85017
      N   12   -0.16855      0.99979     2.65840    0.01036     3.66855
      H   13    0.08386      0.00000     0.41468    0.00146     0.41614
      H   14    0.09602      0.00000     0.40169    0.00229     0.40398
      H   15    0.08483      0.00000     0.41259    0.00258     0.41517
      H   16    0.11670      0.00000     0.38197    0.00132     0.38330
      H   17    0.11305      0.00000     0.38592    0.00103     0.38695
      H   18    0.10582      0.00000     0.39287    0.00131     0.39418
      H   19    0.10862      0.00000     0.38981    0.00156     0.39138
      H   20    0.10281      0.00000     0.39615    0.00103     0.39719
 =======================================================================
   * Total *   -0.00000     15.99547    31.82646    0.17807    48.00000

 Normal termination of Gaussian 16 at Wed Dec  9 18:06:12 2020.
