 Gaussian 16, Revision A.03,

 -----------------------------------------------------------
 # opt freq B3LYP/6-31G(d) empiricaldispersion=gd3bj scf=xqc
 -----------------------------------------------------------

 ------------------------------
 CID_61766156_JID_5477_neutraal
 ------------------------------
 Symbolic Z-matrix:
 Charge =  0 Multiplicity = 1

 SCF Done:  E(RB3LYP) =  -676.318254740     A.U. after   13 cycles
 SCF Done:  E(RB3LYP) =  -676.321283676     A.U. after   11 cycles
 SCF Done:  E(RB3LYP) =  -676.318331041     A.U. after   12 cycles
 SCF Done:  E(RB3LYP) =  -676.320570573     A.U. after   11 cycles
 SCF Done:  E(RB3LYP) =  -676.322651735     A.U. after    9 cycles
 SCF Done:  E(RB3LYP) =  -676.323613184     A.U. after   11 cycles
 SCF Done:  E(RB3LYP) =  -676.324867590     A.U. after   11 cycles
 SCF Done:  E(RB3LYP) =  -676.325992540     A.U. after   11 cycles
 SCF Done:  E(RB3LYP) =  -676.326958967     A.U. after   11 cycles
 SCF Done:  E(RB3LYP) =  -676.327575459     A.U. after   11 cycles
 SCF Done:  E(RB3LYP) =  -676.329946871     A.U. after    9 cycles
 SCF Done:  E(RB3LYP) =  -676.329963485     A.U. after   10 cycles
 SCF Done:  E(RB3LYP) =  -676.329965687     A.U. after    9 cycles
 SCF Done:  E(RB3LYP) =  -676.329967219     A.U. after    8 cycles
 SCF Done:  E(RB3LYP) =  -676.329967513     A.U. after    6 cycles
 SCF Done:  E(RB3LYP) =  -676.329967523     A.U. after    6 cycles
 Optimization completed.
    -- Stationary point found.
 Normal termination of Gaussian 16 at Thu Dec 10 17:07:02 2020.

 --------------------------------------------------------------------
 #N Geom=AllCheck Guess=TCheck SCRF=Check GenChk RB3LYP/6-31G(d) Freq
 --------------------------------------------------------------------

 Structure from the checkpoint file:  "JID_5477.chk"
 ------------------------------
 CID_61766156_JID_5477_neutraal
 ------------------------------
 Charge =  0 Multiplicity = 1

 SCF Done:  E(RB3LYP) =  -676.329967523     A.U. after    1 cycles

  Exact polarizability: 155.463   1.601 132.794   3.270   2.680 117.768
 Approx polarizability: 193.397   1.711 186.230   3.434   0.393 178.793

                      1                      2                      3
                      A                      A                      A
 Frequencies --     29.5051                54.5577                64.5425
 Red. masses --      4.2397                 2.9317                 2.7537
 Frc consts  --      0.0022                 0.0051                 0.0068
 IR Inten    --      0.2234                 0.1580                 0.0149

                      4                      5                      6
                      A                      A                      A
 Frequencies --     79.1284                94.4833               137.9353
 Red. masses --      3.1880                 2.9254                 3.7702
 Frc consts  --      0.0118                 0.0154                 0.0423
 IR Inten    --      0.0370                 0.1924                 3.0059

                      7                      8                      9
                      A                      A                      A
 Frequencies --    169.2220               186.3535               202.0353
 Red. masses --      2.1056                 3.3846                 2.7909
 Frc consts  --      0.0355                 0.0693                 0.0671
 IR Inten    --      0.3210                 0.4039                 2.3853

                     10                     11                     12
                      A                      A                      A
 Frequencies --    227.6768               254.2599               270.9910
 Red. masses --      1.5806                 2.2916                 2.7870
 Frc consts  --      0.0483                 0.0873                 0.1206
 IR Inten    --      0.1454                 0.4587                 0.0855

                     13                     14                     15
                      A                      A                      A
 Frequencies --    293.7711               328.7660               345.4361
 Red. masses --      3.0022                 2.9512                 2.4599
 Frc consts  --      0.1527                 0.1879                 0.1729
 IR Inten    --      2.3150                 0.3999                 8.1363

                     16                     17                     18
                      A                      A                      A
 Frequencies --    377.5642               414.6604               420.3241
 Red. masses --      2.6748                 2.7135                 2.0902
 Frc consts  --      0.2247                 0.2749                 0.2176
 IR Inten    --      2.8454                 2.7818                 2.0442

                     19                     20                     21
                      A                      A                      A
 Frequencies --    450.9448               512.0239               529.2949
 Red. masses --      2.0838                 3.1205                 2.9240
 Frc consts  --      0.2497                 0.4820                 0.4826
 IR Inten    --      0.6656                11.0026                10.1614

                     22                     23                     24
                      A                      A                      A
 Frequencies --    546.2751               624.6856               637.2645
 Red. masses --      2.9933                 1.4301                 1.7743
 Frc consts  --      0.5263                 0.3288                 0.4245
 IR Inten    --      6.8555                31.6322                38.3061

                     25                     26                     27
                      A                      A                      A
 Frequencies --    705.7616               771.6157               784.9767
 Red. masses --      2.6043                 1.4510                 1.1765
 Frc consts  --      0.7643                 0.5090                 0.4271
 IR Inten    --      9.2125                 2.7934                 1.8083

                     28                     29                     30
                      A                      A                      A
 Frequencies --    807.1208               814.9294               846.0798
 Red. masses --      1.9395                 1.4331                 1.8535
 Frc consts  --      0.7444                 0.5608                 0.7817
 IR Inten    --      1.3457                 3.3155                 9.6808

                     31                     32                     33
                      A                      A                      A
 Frequencies --    856.1403               889.6527               890.9918
 Red. masses --      2.4952                 2.6135                 2.6654
 Frc consts  --      1.0776                 1.2188                 1.2467
 IR Inten    --      4.7329                 8.1505                 7.8304

                     34                     35                     36
                      A                      A                      A
 Frequencies --    910.7975               916.1787               947.1219
 Red. masses --      1.9397                 1.8156                 1.6363
 Frc consts  --      0.9480                 0.8979                 0.8648
 IR Inten    --      7.6556                 1.6591                 5.2339

                     37                     38                     39
                      A                      A                      A
 Frequencies --    959.4573               990.8384              1015.3467
 Red. masses --      2.3944                 2.9430                 2.1971
 Frc consts  --      1.2987                 1.7024                 1.3346
 IR Inten    --     24.1991                 8.4570                35.9240

                     40                     41                     42
                      A                      A                      A
 Frequencies --   1018.5317              1036.3581              1057.7409
 Red. masses --      2.3497                 1.6134                 1.8177
 Frc consts  --      1.4362                 1.0210                 1.1982
 IR Inten    --      4.8884                19.5039                 5.0202

                     43                     44                     45
                      A                      A                      A
 Frequencies --   1064.5252              1071.8973              1085.8808
 Red. masses --      1.4171                 2.0908                 1.8585
 Frc consts  --      0.9461                 1.4154                 1.2911
 IR Inten    --     28.3423                32.2728                14.4896

                     46                     47                     48
                      A                      A                      A
 Frequencies --   1087.5507              1108.7535              1128.2528
 Red. masses --      1.6744                 2.1216                 2.7703
 Frc consts  --      1.1669                 1.5367                 2.0778
 IR Inten    --     21.2346                15.8620                 3.6679

                     49                     50                     51
                      A                      A                      A
 Frequencies --   1141.7250              1144.7385              1157.1778
 Red. masses --      1.7671                 1.9806                 1.8672
 Frc consts  --      1.3572                 1.5291                 1.4732
 IR Inten    --     51.1107                76.1602                 4.4106

                     52                     53                     54
                      A                      A                      A
 Frequencies --   1175.6398              1209.7514              1218.6290
 Red. masses --      2.6102                 1.4876                 2.0980
 Frc consts  --      2.1255                 1.2827                 1.8357
 IR Inten    --     16.6538                 1.9604                11.8565

                     55                     56                     57
                      A                      A                      A
 Frequencies --   1221.8302              1243.8312              1250.7294
 Red. masses --      2.0490                 2.0198                 1.2896
 Frc consts  --      1.8022                 1.8412                 1.1886
 IR Inten    --      3.7957                10.1183                19.2736

                     58                     59                     60
                      A                      A                      A
 Frequencies --   1269.5582              1309.6797              1316.7438
 Red. masses --      1.3292                 1.2277                 1.1825
 Frc consts  --      1.2622                 1.2407                 1.2080
 IR Inten    --      7.2286                13.9878                26.2155

                     61                     62                     63
                      A                      A                      A
 Frequencies --   1318.5164              1332.4443              1350.8667
 Red. masses --      1.1477                 1.3336                 1.2736
 Frc consts  --      1.1756                 1.3950                 1.3693
 IR Inten    --     31.9878                10.4278                18.5680

                     64                     65                     66
                      A                      A                      A
 Frequencies --   1355.9514              1378.5000              1384.6920
 Red. masses --      1.3946                 1.2513                 1.3079
 Frc consts  --      1.5107                 1.4009                 1.4775
 IR Inten    --      4.6302                 1.9050                19.0177

                     67                     68                     69
                      A                      A                      A
 Frequencies --   1390.6240              1400.9768              1409.5379
 Red. masses --      1.2475                 1.3391                 1.4063
 Frc consts  --      1.4213                 1.5485                 1.6462
 IR Inten    --      2.2962                 6.8229                 9.3519

                     70                     71                     72
                      A                      A                      A
 Frequencies --   1416.8953              1434.0190              1439.7974
 Red. masses --      1.4045                 1.3036                 1.4880
 Frc consts  --      1.6614                 1.5794                 1.8174
 IR Inten    --     14.8998                 3.1586                23.5252

                     73                     74                     75
                      A                      A                      A
 Frequencies --   1448.6019              1450.7188              1468.8888
 Red. masses --      1.3454                 1.3361                 1.5085
 Frc consts  --      1.6634                 1.6567                 1.9177
 IR Inten    --      2.0955                11.9113                41.7478

                     76                     77                     78
                      A                      A                      A
 Frequencies --   1495.6977              1497.9301              1512.6934
 Red. masses --      1.0877                 1.1013                 1.0829
 Frc consts  --      1.4337                 1.4559                 1.4600
 IR Inten    --      1.2643                 5.8090                 3.4207

                     79                     80                     81
                      A                      A                      A
 Frequencies --   1521.5643              1523.3751              1528.7075
 Red. masses --      1.0799                 1.0631                 1.1089
 Frc consts  --      1.4731                 1.4536                 1.5269
 IR Inten    --      2.3300                 1.4444                 4.1768

                     82                     83                     84
                      A                      A                      A
 Frequencies --   1534.6732              1536.7483              1539.4892
 Red. masses --      1.0744                 1.2011                 1.1037
 Frc consts  --      1.4909                 1.6712                 1.5412
 IR Inten    --      4.0836                 1.3960                 5.2385

                     85                     86                     87
                      A                      A                      A
 Frequencies --   1544.1240              2976.8500              2990.8429
 Red. masses --      1.1323                 1.0825                 1.0737
 Frc consts  --      1.5906                 5.6520                 5.6585
 IR Inten    --     11.7291                57.0247                32.8520

                     88                     89                     90
                      A                      A                      A
 Frequencies --   2996.7974              3011.4931              3025.0532
 Red. masses --      1.0801                 1.0699                 1.0685
 Frc consts  --      5.7152                 5.7169                 5.7608
 IR Inten    --     45.0244                59.8868                46.6633

                     91                     92                     93
                      A                      A                      A
 Frequencies --   3049.1422              3051.3271              3056.2700
 Red. masses --      1.0385                 1.0617                 1.0611
 Frc consts  --      5.6885                 5.8243                 5.8398
 IR Inten    --     28.5658                26.7986                33.3028

                     94                     95                     96
                      A                      A                      A
 Frequencies --   3061.1943              3081.5093              3100.8694
 Red. masses --      1.0675                 1.0944                 1.1007
 Frc consts  --      5.8939                 6.1227                 6.2359
 IR Inten    --     20.1641                21.3497                43.1480

                     97                     98                     99
                      A                      A                      A
 Frequencies --   3101.2199              3112.8157              3114.8643
 Red. masses --      1.1010                 1.1000                 1.0984
 Frc consts  --      6.2387                 6.2796                 6.2793
 IR Inten    --     15.0832                26.7532                54.1866

                    100                    101                    102
                      A                      A                      A
 Frequencies --   3121.1513              3125.4461              3130.8744
 Red. masses --      1.0964                 1.1004                 1.0909
 Frc consts  --      6.2928                 6.3331                 6.3005
 IR Inten    --     36.1893                28.7887                59.0296

                    103                    104                    105
                      A                      A                      A
 Frequencies --   3141.7685              3148.4302              3157.3638
 Red. masses --      1.0528                 1.0570                 1.0887
 Frc consts  --      6.1225                 6.1734                 6.3947
 IR Inten    --     19.7190                19.9401                12.7621

                    106                    107                    108
                      A                      A                      A
 Frequencies --   3216.7291              3231.5266              3584.0513
 Red. masses --      1.1187                 1.1156                 1.0640
 Frc consts  --      6.8200                 6.8637                 8.0525
 IR Inten    --      0.5378                26.2357               128.8428

 - Thermochemistry -
 -------------------
 Temperature   298.150 Kelvin.  Pressure   1.00000 Atm.
 Atom     1 has atomic number  6 and mass  12.00000

 Molecular mass:   213.17288 amu.
 Principal axes and moments of inertia in atomic units:
                           1         2         3
     Eigenvalues --  2183.661934747.821465547.73484
           X            0.99996   0.00753   0.00421
           Y           -0.00759   0.99986   0.01507
           Z           -0.00410  -0.01511   0.99988
 This molecule is an asymmetric top.
 Rotational symmetry number  1.
 Warning -- assumption of classical behavior for rotation
           may cause significant error
 Rotational temperatures (Kelvin)      0.03966     0.01824     0.01561
 Rotational constants (GHZ):           0.82647     0.38012     0.32531
 Zero-point vibrational energy     912044.1 (Joules/Mol)
                                  217.98376 (Kcal/Mol)
 Warning -- explicit consideration of  22 degrees of freedom as
           vibrations may cause significant error
 Vibrational temperatures:     42.45    78.50    92.86   113.85   135.94
          (Kelvin)            198.46   243.47   268.12   290.68   327.58
                              365.82   389.90   422.67   473.02   497.01
                              543.23   596.60   604.75   648.81   736.69
                              761.54   785.97   898.78   916.88  1015.43
                             1110.18  1129.41  1161.27  1172.50  1217.32
                             1231.79  1280.01  1281.94  1310.43  1318.18
                             1362.70  1380.45  1425.60  1460.86  1465.44
                             1491.09  1521.85  1531.61  1542.22  1562.34
                             1564.74  1595.25  1623.30  1642.69  1647.02
                             1664.92  1691.48  1740.56  1753.34  1757.94
                             1789.60  1799.52  1826.61  1884.34  1894.50
                             1897.05  1917.09  1943.60  1950.91  1983.35
                             1992.26  2000.80  2015.69  2028.01  2038.60
                             2063.23  2071.55  2084.21  2087.26  2113.40
                             2151.98  2155.19  2176.43  2189.19  2191.80
                             2199.47  2208.05  2211.04  2214.98  2221.65
                             4283.02  4303.16  4311.72  4332.87  4352.38
                             4387.04  4390.18  4397.29  4404.38  4433.60
                             4461.46  4461.96  4478.65  4481.59  4490.64
                             4496.82  4504.63  4520.30  4529.89  4542.74
                             4628.16  4649.45  5156.65

 Zero-point correction=                           0.347379 (Hartree/Particle)
 Thermal correction to Energy=                    0.362906
 Thermal correction to Enthalpy=                  0.363851
 Thermal correction to Gibbs Free Energy=         0.304182
 Sum of electronic and zero-point Energies=           -675.982588
 Sum of electronic and thermal Energies=              -675.967061
 Sum of electronic and thermal Enthalpies=            -675.966117
 Sum of electronic and thermal Free Energies=         -676.025786

                     E (Thermal)             CV                S
                      KCal/Mol        Cal/Mol-Kelvin    Cal/Mol-Kelvin
 Total                  227.727             60.276            125.583
 Electronic               0.000              0.000              0.000
 Translational            0.889              2.981             41.974
 Rotational               0.889              2.981             32.420
 Vibrational            225.950             54.315             51.189
 Vibration     1          0.593              1.984              5.862
 Vibration     2          0.596              1.976              4.645
 Vibration     3          0.597              1.971              4.313
 Vibration     4          0.600              1.963              3.912
 Vibration     5          0.603              1.953              3.565
 Vibration     6          0.614              1.915              2.832
 Vibration     7          0.625              1.880              2.444
 Vibration     8          0.632              1.859              2.264
 Vibration     9          0.639              1.837              2.114
 Vibration    10          0.651              1.799              1.897
 Vibration    11          0.665              1.756              1.701
 Vibration    12          0.675              1.727              1.590
 Vibration    13          0.689              1.685              1.452
 Vibration    14          0.712              1.618              1.266
 Vibration    15          0.724              1.585              1.187
 Vibration    16          0.748              1.518              1.049
 Vibration    17          0.778              1.438              0.910
 Vibration    18          0.783              1.426              0.891
 Vibration    19          0.810              1.359              0.793
 Vibration    20          0.867              1.223              0.629
 Vibration    21          0.884              1.185              0.589
 Vibration    22          0.901              1.148              0.552

 Optimization completed.
    -- Stationary point found.
 Normal termination of Gaussian 16 at Thu Dec 10 17:21:45 2020.

 ----------------------------------------------------------------------
 # B3LYP/6-311++G(d,p) empiricaldispersion=gd3bj scf=xqc pop=npa geom=c
 heck
 ----------------------------------------------------------------------

 --------------------------------------
 CID_61766156_JID_5477_Energie_neutraal
 --------------------------------------
 Structure from the checkpoint file:  "JID_5477.chk"
 Charge =  0 Multiplicity = 1

 SCF Done:  E(RB3LYP) =  -676.528597236     A.U. after   13 cycles
 Normal termination of Gaussian 16 at Thu Dec 10 17:27:50 2020.

 ----------------------------------------------------------------------
 # B3LYP/6-311++G(d,p) empiricaldispersion=gd3bj scf=xqc pop=npa geom=c
 heck
 ----------------------------------------------------------------------

 ------------------------------------
 CID_61766156_JID_5477_Energie_kation
 ------------------------------------
 Structure from the checkpoint file:  "JID_5477.chk"
 Charge =  1 Multiplicity = 2

 SCF Done:  E(UB3LYP) =  -676.236341359     A.U. after   22 cycles
 Normal termination of Gaussian 16 at Thu Dec 10 17:42:57 2020.
 Gaussian 16:  ES64L-G16RevA.03 25-Dec-2016

 ----------------------------------------------------------------------
 # B3LYP/6-311++G(d,p) empiricaldispersion=gd3bj scf=xqc pop=npa geom=c
 heck
 ----------------------------------------------------------------------

 -----------------------------------
 CID_61766156_JID_5477_Energie_anion
 -----------------------------------
 Structure from the checkpoint file:  "JID_5477.chk"
 Charge = -1 Multiplicity = 2

                         Standard orientation:
 ---------------------------------------------------------------------
 Center     Atomic      Atomic             Coordinates (Angstroms)
 Number     Number       Type             X           Y           Z
 ---------------------------------------------------------------------
      1          6           0        1.490318    3.065148   -0.623724
      2          6           0        2.056448    2.144064    0.458615
      3          6           0        1.039835    1.118869    0.978608
      4          7           0        0.439633    0.314549   -0.093431
      5          6           0        1.416242   -0.536701   -0.790669
      6          6           0        2.119663   -1.583581    0.057888
      7          6           0        3.369592   -2.236892   -0.477899
      8          6           0        3.455850   -1.304460    0.703737
      9          6           0       -0.807434   -0.416317    0.222201
     10          6           0       -1.647761    0.250868    1.325524
     11          8           0       -2.869910   -0.439059    1.519168
     12          6           0       -3.705585   -0.364994    0.367228
     13          6           0       -3.041249   -1.058404   -0.816118
     14          6           0       -1.652888   -0.477663   -1.076986
     15          8           0       -1.792251    0.836603   -1.593473
     16          1           0        1.238153    2.505371   -1.529892
     17          1           0        2.211666    3.842641   -0.897572
     18          1           0        0.575747    3.562134   -0.277494
     19          1           0        2.957806    1.644573    0.085370
     20          1           0        2.382373    2.738812    1.321638
     21          1           0        1.511478    0.493458    1.754237
     22          1           0        0.241228    1.683990    1.462930
     23          1           0        0.893927   -1.035796   -1.612878
     24          1           0        2.167902    0.107889   -1.261011
     25          1           0        1.453221   -2.236743    0.617630
     26          1           0        3.510389   -3.301104   -0.313067
     27          1           0        3.753638   -1.882189   -1.431750
     28          1           0        3.908124   -0.329466    0.544570
     29          1           0        3.653015   -1.727816    1.684702
     30          1           0       -0.605214   -1.444673    0.561792
     31          1           0       -1.843619    1.301751    1.062261
     32          1           0       -1.132955    0.218501    2.288505
     33          1           0       -3.914801    0.686650    0.121531
     34          1           0       -4.644547   -0.852904    0.643498
     35          1           0       -3.650771   -0.950853   -1.720818
     36          1           0       -2.944165   -2.129404   -0.599095
     37          1           0       -1.141625   -1.118924   -1.813389
     38          1           0       -0.919300    1.242287   -1.413680
 ---------------------------------------------------------------------

 SCF Done:  E(UB3LYP) =  -676.513684627     A.U. after   30 cycles

 The electronic state is 2-A.
 Alpha  occ. eigenvalues --  -19.03624 -19.01960 -14.21894 -10.12626 -10.12598
 Alpha  occ. eigenvalues --  -10.12550 -10.11040 -10.10122 -10.09740 -10.08119
 Alpha  occ. eigenvalues --  -10.07891 -10.07497 -10.07414 -10.07114 -10.06305
 Alpha  occ. eigenvalues --   -0.95285  -0.92756  -0.83352  -0.76220  -0.69683
 Alpha  occ. eigenvalues --   -0.68558  -0.66520  -0.61266  -0.57818  -0.55312
 Alpha  occ. eigenvalues --   -0.53165  -0.50611  -0.49359  -0.47839  -0.45500
 Alpha  occ. eigenvalues --   -0.42668  -0.41578  -0.40519  -0.39718  -0.38647
 Alpha  occ. eigenvalues --   -0.37712  -0.35826  -0.35573  -0.34761  -0.33335
 Alpha  occ. eigenvalues --   -0.32455  -0.31617  -0.30348  -0.29028  -0.28871
 Alpha  occ. eigenvalues --   -0.27720  -0.27474  -0.27183  -0.26927  -0.25584
 Alpha  occ. eigenvalues --   -0.24857  -0.23689  -0.22632  -0.22213  -0.20378
 Alpha  occ. eigenvalues --   -0.19368  -0.18950  -0.16295  -0.12970   0.04348
 Alpha virt. eigenvalues --    0.06147   0.06621   0.07104   0.08065   0.08410
 Alpha virt. eigenvalues --    0.08685   0.09213   0.09258   0.10635   0.10766
 Alpha virt. eigenvalues --    0.10924   0.11449   0.11961   0.12381   0.12930

  Beta  occ. eigenvalues --  -19.03620 -19.01955 -14.21888 -10.12618 -10.12592
  Beta  occ. eigenvalues --  -10.12542 -10.11035 -10.10107 -10.09730 -10.08109
  Beta  occ. eigenvalues --  -10.07880 -10.07473 -10.07391 -10.07091 -10.06280
  Beta  occ. eigenvalues --   -0.95278  -0.92746  -0.83334  -0.76198  -0.69658
  Beta  occ. eigenvalues --   -0.68534  -0.66495  -0.61231  -0.57790  -0.55286
  Beta  occ. eigenvalues --   -0.53127  -0.50535  -0.49303  -0.47804  -0.45461
  Beta  occ. eigenvalues --   -0.42636  -0.41557  -0.40486  -0.39691  -0.38621
  Beta  occ. eigenvalues --   -0.37677  -0.35785  -0.35550  -0.34734  -0.33305
  Beta  occ. eigenvalues --   -0.32430  -0.31599  -0.30328  -0.29006  -0.28848
  Beta  occ. eigenvalues --   -0.27691  -0.27445  -0.27155  -0.26899  -0.25546
  Beta  occ. eigenvalues --   -0.24821  -0.23661  -0.22615  -0.22196  -0.20348
  Beta  occ. eigenvalues --   -0.19342  -0.18934  -0.16278  -0.12942
  Beta virt. eigenvalues --    0.06364   0.06927   0.07292   0.07761   0.08478
  Beta virt. eigenvalues --    0.08698   0.09203   0.09439   0.09808   0.10905
  Beta virt. eigenvalues --    0.11091   0.11190   0.11816   0.12368   0.12562

 Mulliken charges and spin densities:
               1          2
     1  C    0.631906  -1.120440
     2  C   -0.375109   0.059140
     3  C   -0.120012  -0.080598
     4  N    0.280557   0.124792
     5  C    2.561889  -3.408340
     6  C   -3.484440   3.944740
     7  C    1.171083  -1.615354
     8  C    1.155885  -1.545920
     9  C   -1.392753   0.621570
    10  C   -0.155866  -0.279875
    11  O   -0.099659   0.023319
    12  C   -0.096690  -0.192772
    13  C    0.488590  -0.857176
    14  C    0.103938  -0.106908
    15  O   -0.146390   0.042544
    16  H   -0.057982   0.193703
    17  H   -0.374552   0.533263
    18  H    0.070865   0.052797
    19  H    0.129687  -0.018285
    20  H   -0.678134   0.848760
    21  H    0.167963   0.006243
    22  H   -0.120233   0.290163
    23  H    0.331850  -0.219211
    24  H   -0.057007   0.252863
    25  H   -0.740364   0.972467
    26  H   -0.274307   0.429378
    27  H   -0.294383   0.433155
    28  H   -0.111563   0.246511
    29  H   -0.234607   0.391244
    30  H    0.394861  -0.219450
    31  H    0.200158   0.008659
    32  H   -0.055776   0.275663
    33  H    0.125788   0.005303
    34  H    0.011795   0.177223
    35  H    0.062424   0.103758
    36  H   -0.125735   0.263975
    37  H   -0.205718   0.376386
    38  H    0.312043  -0.013289
 Sum of Mulliken charges =  -1.00000   1.00000

 Dipole moment (field-independent basis, Debye):
    X=             -5.2844    Y=              0.3264    Z=             -0.9927  Tot=              5.3868
 Quadrupole moment (field-independent basis, Debye-Ang):
   XX=           -165.3709   YY=           -156.7200   ZZ=           -137.1062
   XY=             -1.0522   XZ=             -2.1643   YZ=              1.8514

 Summary of Natural Population Analysis:

                                       Natural Population
                Natural  -----------------------------------------------
    Atom  No    Charge         Core      Valence    Rydberg      Total
 -----------------------------------------------------------------------
      C    1   -0.28709      0.99966     2.28093    0.00649     3.28709
      C    2   -0.19442      0.99963     2.18653    0.00825     3.19442
      C    3   -0.08361      0.99959     2.07209    0.01192     3.08361
      N    4   -0.29727      0.99971     2.78343    0.01413     3.79727
      C    5   -0.08563      0.99957     2.07305    0.01301     3.08563
      C    6   -0.12816      0.99958     2.11874    0.00983     3.12816
      C    7   -0.19597      0.99962     2.18758    0.00877     3.19597
      C    8   -0.19716      0.99961     2.18849    0.00906     3.19716
      C    9   -0.02333      0.99955     2.01098    0.01280     3.02333
      C   10   -0.01801      0.99955     2.00442    0.01405     3.01801
      O   11   -0.29835      0.99989     3.28959    0.00888     4.29835
      C   12   -0.01010      0.99958     1.99929    0.01123     3.01010
      C   13   -0.21134      0.99960     2.20243    0.00931     3.21134
      C   14    0.06045      0.99954     1.92385    0.01617     2.93955
      O   15   -0.38343      0.99989     3.37734    0.00619     4.38343
      H   16    0.09727      0.00000     0.40149    0.00124     0.40273
      H   17    0.10035      0.00000     0.39863    0.00102     0.39965
      H   18    0.09521      0.00000     0.40373    0.00107     0.40479
      H   19    0.09457      0.00000     0.40377    0.00166     0.40543
      H   20    0.09972      0.00000     0.39892    0.00136     0.40028
      H   21    0.09015      0.00000     0.40835    0.00150     0.40985
      H   22    0.09532      0.00000     0.40307    0.00162     0.40468
      H   23    0.09846      0.00000     0.39983    0.00171     0.40154
      H   24    0.09837      0.00000     0.39996    0.00167     0.40163
      H   25    0.10380      0.00000     0.39446    0.00175     0.39620
      H   26    0.10407      0.00000     0.39461    0.00132     0.39593
      H   27    0.10052      0.00000     0.39838    0.00110     0.39948
      H   28    0.10112      0.00000     0.39741    0.00146     0.39888
      H   29    0.10393      0.00000     0.39473    0.00133     0.39607
      H   30    0.09255      0.00000     0.40469    0.00275     0.40745
      H   31    0.08352      0.00000     0.41481    0.00167     0.41648
      H   32    0.09619      0.00000     0.40229    0.00152     0.40381
      H   33    0.08279      0.00000     0.41585    0.00136     0.41721
      H   34    0.08916      0.00000     0.40970    0.00114     0.41084
      H   35    0.10458      0.00000     0.39441    0.00100     0.39542
      H   36    0.10223      0.00000     0.39655    0.00122     0.39777
      H   37    0.08155      0.00000     0.41684    0.00161     0.41845
      H   38    0.23800      0.00000     0.25844    0.00356     0.26200
 =======================================================================
   * Total *    0.00000     14.99458    43.80966    0.19576    59.00000

 Normal termination of Gaussian 16 at Thu Dec 10 17:58:55 2020.
