 Gaussian 16, Revision A.03,

 -----------------------------------------------------------
 # opt freq B3LYP/6-31G(d) empiricaldispersion=gd3bj scf=xqc
 -----------------------------------------------------------

 -------------------------------
 CID_115391497_JID_5106_neutraal
 -------------------------------
 Symbolic Z-matrix:
 Charge =  0 Multiplicity = 1

 SCF Done:  E(RB3LYP) =  -1025.40455128     A.U. after   15 cycles
 SCF Done:  E(RB3LYP) =  -1025.41152547     A.U. after   12 cycles
 SCF Done:  E(RB3LYP) =  -1025.41273926     A.U. after   12 cycles
 SCF Done:  E(RB3LYP) =  -1025.41305065     A.U. after   12 cycles
 SCF Done:  E(RB3LYP) =  -1025.41325608     A.U. after   12 cycles
 SCF Done:  E(RB3LYP) =  -1025.41332829     A.U. after   10 cycles
 SCF Done:  E(RB3LYP) =  -1025.41334080     A.U. after   10 cycles
 SCF Done:  E(RB3LYP) =  -1025.41334863     A.U. after    9 cycles
 SCF Done:  E(RB3LYP) =  -1025.41334892     A.U. after    8 cycles
 SCF Done:  E(RB3LYP) =  -1025.41334909     A.U. after    8 cycles
 SCF Done:  E(RB3LYP) =  -1025.41334913     A.U. after    6 cycles
 Optimization completed.
    -- Stationary point found.
 Normal termination of Gaussian 16 at Thu Dec 10 14:45:29 2020.

 --------------------------------------------------------------------
 #N Geom=AllCheck Guess=TCheck SCRF=Check GenChk RB3LYP/6-31G(d) Freq
 --------------------------------------------------------------------

 Structure from the checkpoint file:  "JID_5106.chk"
 -------------------------------
 CID_115391497_JID_5106_neutraal
 -------------------------------
 Charge =  0 Multiplicity = 1

 SCF Done:  E(RB3LYP) =  -1025.41334912     A.U. after    1 cycles

  Exact polarizability: 227.209  -6.553 144.157   1.396  -2.156  70.637
 Approx polarizability: 330.116  -3.849 245.780   2.600  -0.834 114.240

                      1                      2                      3
                      A                      A                      A
 Frequencies --     37.9704                60.5217               100.0989
 Red. masses --      5.0075                 7.2211                 5.3639
 Frc consts  --      0.0043                 0.0156                 0.0317
 IR Inten    --      0.1580                 2.2748                 0.9262

                      4                      5                      6
                      A                      A                      A
 Frequencies --    135.9234               144.2259               186.9986
 Red. masses --      3.8382                 3.5653                 5.0756
 Frc consts  --      0.0418                 0.0437                 0.1046
 IR Inten    --      0.5092                 0.9071                 0.1199

                      7                      8                      9
                      A                      A                      A
 Frequencies --    211.6006               233.3894               242.7817
 Red. masses --      1.2242                 4.7019                 4.4533
 Frc consts  --      0.0323                 0.1509                 0.1547
 IR Inten    --      0.8189                 0.7894                 1.8535

                     10                     11                     12
                      A                      A                      A
 Frequencies --    296.4687               322.0880               336.0046
 Red. masses --      3.6765                 4.0072                 6.1878
 Frc consts  --      0.1904                 0.2449                 0.4116
 IR Inten    --      1.9001                 4.4507                 0.1940

                     13                     14                     15
                      A                      A                      A
 Frequencies --    380.3163               412.1626               435.7760
 Red. masses --      1.1079                 3.8839                 3.5901
 Frc consts  --      0.0944                 0.3887                 0.4017
 IR Inten    --    119.9368                12.7204                 7.9279

                     16                     17                     18
                      A                      A                      A
 Frequencies --    463.2911               504.8000               527.7222
 Red. masses --      3.4528                 4.0898                 1.7231
 Frc consts  --      0.4366                 0.6140                 0.2827
 IR Inten    --      7.9940                 9.1706                50.0763

                     19                     20                     21
                      A                      A                      A
 Frequencies --    548.9531               583.9940               616.7763
 Red. masses --      4.9605                 5.1101                 4.3827
 Frc consts  --      0.8807                 1.0268                 0.9823
 IR Inten    --     10.1559                16.5810                 9.2199

                     22                     23                     24
                      A                      A                      A
 Frequencies --    679.3143               686.5063               705.0547
 Red. masses --      4.5886                 3.8444                 4.0981
 Frc consts  --      1.2476                 1.0675                 1.2003
 IR Inten    --     10.2867                 2.6884                 2.6294

                     25                     26                     27
                      A                      A                      A
 Frequencies --    709.5219               733.4999               795.5955
 Red. masses --      3.8178                 5.8822                 1.3468
 Frc consts  --      1.1324                 1.8646                 0.5023
 IR Inten    --      4.1385                22.6710                25.8310

                     28                     29                     30
                      A                      A                      A
 Frequencies --    813.2479               867.8759               900.9744
 Red. masses --      1.2482                 1.5628                 1.4413
 Frc consts  --      0.4864                 0.6935                 0.6893
 IR Inten    --     19.1189                22.4327                 4.3182

                     31                     32                     33
                      A                      A                      A
 Frequencies --    905.1287               973.8553               985.5944
 Red. masses --      4.8854                 1.2737                 2.3144
 Frc consts  --      2.3582                 0.7117                 1.3246
 IR Inten    --     29.7911                 0.2871                 2.2841

                     34                     35                     36
                      A                      A                      A
 Frequencies --    995.2669              1019.1629              1101.3535
 Red. masses --      3.8616                 6.0514                 2.2201
 Frc consts  --      2.2537                 3.7034                 1.5866
 IR Inten    --      9.5189                 5.6180                 4.1406

                     37                     38                     39
                      A                      A                      A
 Frequencies --   1116.7071              1122.6461              1131.3143
 Red. masses --      2.0031                 1.8042                 2.6620
 Frc consts  --      1.4717                 1.3397                 2.0074
 IR Inten    --     24.8100                 7.8867                17.4283

                     40                     41                     42
                      A                      A                      A
 Frequencies --   1179.5720              1201.6696              1218.1900
 Red. masses --      2.7053                 1.1558                 1.3199
 Frc consts  --      2.2177                 0.9834                 1.1541
 IR Inten    --     42.7676                27.7187               172.2154

                     43                     44                     45
                      A                      A                      A
 Frequencies --   1234.0391              1271.5132              1300.8479
 Red. masses --      2.9396                 2.6199                 2.3209
 Frc consts  --      2.6375                 2.4956                 2.3140
 IR Inten    --      7.5343               100.9845                50.1970

                     46                     47                     48
                      A                      A                      A
 Frequencies --   1336.9478              1360.4178              1373.9522
 Red. masses --      2.9531                 1.7397                 2.3241
 Frc consts  --      3.1100                 1.8971                 2.5849
 IR Inten    --    113.5206                20.2147                23.9921

                     49                     50                     51
                      A                      A                      A
 Frequencies --   1380.5628              1411.7397              1440.6914
 Red. masses --      2.8603                 1.3447                 1.4474
 Frc consts  --      3.2119                 1.5790                 1.7700
 IR Inten    --      6.6392                 4.7642                27.4481

                     52                     53                     54
                      A                      A                      A
 Frequencies --   1449.6519              1500.2584              1505.8039
 Red. masses --      2.0396                 1.8066                 2.9549
 Frc consts  --      2.5254                 2.3958                 3.9476
 IR Inten    --     11.0648               103.6088               385.7273

                     55                     56                     57
                      A                      A                      A
 Frequencies --   1516.7857              1519.7110              1539.8810
 Red. masses --      1.1492                 1.4160                 1.0688
 Frc consts  --      1.5578                 1.9268                 1.4932
 IR Inten    --     25.0503                 7.4771                 3.9379

                     58                     59                     60
                      A                      A                      A
 Frequencies --   1551.3680              1602.9726              1660.1964
 Red. masses --      2.5275                 6.1375                 5.9860
 Frc consts  --      3.5840                 9.2916                 9.7209
 IR Inten    --     45.3234                34.7457                51.7698

                     61                     62                     63
                      A                      A                      A
 Frequencies --   1667.6664              3062.8144              3095.1387
 Red. masses --      5.9741                 1.0365                 1.0629
 Frc consts  --      9.7891                 5.7289                 5.9991
 IR Inten    --     65.9423                17.5569                10.2997

                     64                     65                     66
                      A                      A                      A
 Frequencies --   3129.8140              3144.5523              3160.7996
 Red. masses --      1.1001                 1.1039                 1.1038
 Frc consts  --      6.3491                 6.4314                 6.4971
 IR Inten    --     30.6089                 2.6235                10.0794

                     67                     68                     69
                      A                      A                      A
 Frequencies --   3199.8237              3201.6136              3224.7099
 Red. masses --      1.0904                 1.0886                 1.0935
 Frc consts  --      6.5782                 6.5741                 6.6994
 IR Inten    --      8.4505                 6.2071                 6.8593

                     70                     71                     72
                      A                      A                      A
 Frequencies --   3243.6548              3676.8288              3749.5854
 Red. masses --      1.0917                 1.0821                 1.0659
 Frc consts  --      6.7675                 8.6194                 8.8298
 IR Inten    --      3.4117               104.2894                46.6533

 - Thermochemistry -
 -------------------
 Temperature   298.150 Kelvin.  Pressure   1.00000 Atm.
 Atom     1 has atomic number  6 and mass  12.00000

 Molecular mass:   221.06228 amu.
 Principal axes and moments of inertia in atomic units:
                           1         2         3
     Eigenvalues --  1465.050456141.546307337.94050
           X            0.99995   0.00960  -0.00094
           Y           -0.00961   0.99993  -0.00644
           Z            0.00088   0.00645   0.99998
 This molecule is an asymmetric top.
 Rotational symmetry number  1.
 Warning -- assumption of classical behavior for rotation
           may cause significant error
 Rotational temperatures (Kelvin)      0.05912     0.01410     0.01180
 Rotational constants (GHZ):           1.23186     0.29386     0.24595
 Zero-point vibrational energy     539146.5 (Joules/Mol)
                                  128.85911 (Kcal/Mol)
 Warning -- explicit consideration of  21 degrees of freedom as
           vibrations may cause significant error
 Vibrational temperatures:     54.63    87.08   144.02   195.56   207.51
          (Kelvin)            269.05   304.45   335.80   349.31   426.55
                              463.41   483.44   547.19   593.01   626.98
                              666.57   726.29   759.27   789.82   840.24
                              887.40   977.38   987.73  1014.42  1020.84
                             1055.34  1144.68  1170.08  1248.68  1296.30
                             1302.28  1401.16  1418.05  1431.97  1466.35
                             1584.60  1606.69  1615.24  1627.71  1697.14
                             1728.93  1752.70  1775.51  1829.42  1871.63
                             1923.57  1957.34  1976.81  1986.32  2031.18
                             2072.83  2085.73  2158.54  2166.52  2182.32
                             2186.53  2215.55  2232.07  2306.32  2388.65
                             2399.40  4406.71  4453.21  4503.10  4524.31
                             4547.69  4603.83  4606.41  4639.64  4666.90
                             5290.14  5394.82

 Zero-point correction=                           0.205350 (Hartree/Particle)
 Thermal correction to Energy=                    0.218632
 Thermal correction to Enthalpy=                  0.219576
 Thermal correction to Gibbs Free Energy=         0.164917
 Sum of electronic and zero-point Energies=          -1025.207999
 Sum of electronic and thermal Energies=             -1025.194717
 Sum of electronic and thermal Enthalpies=           -1025.193773
 Sum of electronic and thermal Free Energies=        -1025.248432

                     E (Thermal)             CV                S
                      KCal/Mol        Cal/Mol-Kelvin    Cal/Mol-Kelvin
 Total                  137.194             51.136            115.039
 Electronic               0.000              0.000              0.000
 Translational            0.889              2.981             42.083
 Rotational               0.889              2.981             32.557
 Vibrational            135.416             45.174             40.400
 Vibration     1          0.594              1.982              5.362
 Vibration     2          0.597              1.973              4.440
 Vibration     3          0.604              1.949              3.452
 Vibration     4          0.614              1.917              2.860
 Vibration     5          0.616              1.909              2.747
 Vibration     6          0.632              1.858              2.257
 Vibration     7          0.643              1.823              2.030
 Vibration     8          0.654              1.790              1.853
 Vibration     9          0.659              1.775              1.782
 Vibration    10          0.690              1.680              1.437
 Vibration    11          0.707              1.631              1.299
 Vibration    12          0.717              1.604              1.231
 Vibration    13          0.750              1.512              1.038
 Vibration    14          0.776              1.444              0.919
 Vibration    15          0.796              1.392              0.840
 Vibration    16          0.821              1.331              0.757
 Vibration    17          0.860              1.239              0.646
 Vibration    18          0.883              1.189              0.592
 Vibration    19          0.904              1.142              0.546
 Vibration    20          0.941              1.066              0.478
 Vibration    21          0.976              0.996              0.422

 Optimization completed.
    -- Stationary point found.
 Normal termination of Gaussian 16 at Thu Dec 10 14:53:10 2020.

 ----------------------------------------------------------------------
 # B3LYP/6-311++G(d,p) empiricaldispersion=gd3bj scf=xqc pop=npa geom=c
 heck
 ----------------------------------------------------------------------

 ---------------------------------------
 CID_115391497_JID_5106_Energie_neutraal
 ---------------------------------------
 Structure from the checkpoint file:  "JID_5106.chk"
 Charge =  0 Multiplicity = 1

 SCF Done:  E(RB3LYP) =  -1025.61378717     A.U. after   15 cycles
 Normal termination of Gaussian 16 at Thu Dec 10 14:56:03 2020.

 ----------------------------------------------------------------------
 # B3LYP/6-311++G(d,p) empiricaldispersion=gd3bj scf=xqc pop=npa geom=c
 heck
 ----------------------------------------------------------------------

 -------------------------------------
 CID_115391497_JID_5106_Energie_kation
 -------------------------------------
 Structure from the checkpoint file:  "JID_5106.chk"
 Charge =  1 Multiplicity = 2

 SCF Done:  E(UB3LYP) =  -1025.33480451     A.U. after   27 cycles
 Normal termination of Gaussian 16 at Thu Dec 10 15:02:55 2020.
 Gaussian 16:  ES64L-G16RevA.03 25-Dec-2016

 ----------------------------------------------------------------------
 # B3LYP/6-311++G(d,p) empiricaldispersion=gd3bj scf=xqc pop=npa geom=c
 heck
 ----------------------------------------------------------------------

 ------------------------------------
 CID_115391497_JID_5106_Energie_anion
 ------------------------------------
 Structure from the checkpoint file:  "JID_5106.chk"
 Charge = -1 Multiplicity = 2

                         Standard orientation:
 ---------------------------------------------------------------------
 Center     Atomic      Atomic             Coordinates (Angstroms)
 Number     Number       Type             X           Y           Z
 ---------------------------------------------------------------------
      1          6           0        2.001493    2.525078   -0.226089
      2          6           0        1.521356    1.468866    0.766470
      3          7           0        1.380720    0.147600    0.152753
      4          6           0        0.226228   -0.523940   -0.226250
      5          7           0        0.507415   -1.736301   -0.640996
      6          7           0        1.864214   -1.824515   -0.516985
      7          6           0        2.460286   -0.702891   -0.032562
      8         16           0        4.078886   -0.439251    0.287664
      9          6           0       -1.148965   -0.012991   -0.155604
     10          6           0       -2.165353   -0.926162    0.162219
     11          6           0       -3.493728   -0.506511    0.212370
     12          6           0       -3.820058    0.830735   -0.044499
     13          6           0       -2.809481    1.729912   -0.365446
     14          6           0       -1.476054    1.321879   -0.427520
     15          8           0       -4.518735   -1.352875    0.517534
     16          1           0        2.982117    2.246068   -0.619592
     17          1           0        2.091100    3.492330    0.279329
     18          1           0        1.308180    2.637205   -1.066279
     19          1           0        2.253245    1.355698    1.570881
     20          1           0        0.556122    1.727142    1.205430
     21          1           0        2.352105   -2.664931   -0.787879
     22          1           0       -1.901327   -1.960051    0.365467
     23          1           0       -4.859214    1.137449    0.007928
     24          1           0       -3.062653    2.763755   -0.580318
     25          1           0       -0.709942    2.029039   -0.718974
     26          1           0       -4.162819   -2.244026    0.659181
 ---------------------------------------------------------------------

 SCF Done:  E(UB3LYP) =  -1025.61664081     A.U. after   33 cycles
 SCF Done:  E(UB3LYP) =  -1025.61664081     a.u. after    1 cycles

 The electronic state is 2-A.
 Alpha  occ. eigenvalues --  -88.67340 -19.03330 -14.26501 -14.25042 -14.19452
 Alpha  occ. eigenvalues --  -10.15683 -10.10435 -10.10042 -10.09561 -10.06206
 Alpha  occ. eigenvalues --  -10.03439 -10.03339 -10.02890 -10.02240 -10.01600
 Alpha  occ. eigenvalues --   -7.76116  -5.72565  -5.71866  -5.71686  -0.95761
 Alpha  occ. eigenvalues --   -0.94234  -0.82178  -0.73864  -0.70651  -0.66472
 Alpha  occ. eigenvalues --   -0.62043  -0.60452  -0.59568  -0.55311  -0.52718
 Alpha  occ. eigenvalues --   -0.48980  -0.47839  -0.45720  -0.42936  -0.39281
 Alpha  occ. eigenvalues --   -0.37869  -0.36450  -0.35667  -0.34385  -0.33172
 Alpha  occ. eigenvalues --   -0.30655  -0.29984  -0.28920  -0.28466  -0.28036
 Alpha  occ. eigenvalues --   -0.26867  -0.26379  -0.25321  -0.22910  -0.21827
 Alpha  occ. eigenvalues --   -0.21247  -0.19227  -0.18679  -0.18236  -0.12360
 Alpha  occ. eigenvalues --   -0.10366  -0.09936  -0.08391   0.05233
 Alpha virt. eigenvalues --    0.07888   0.08450   0.09284   0.09663   0.10365
 Alpha virt. eigenvalues --    0.11214   0.11722   0.11812   0.12583   0.13257
 Alpha virt. eigenvalues --    0.13577   0.14174   0.14767   0.15339   0.15877

  Beta  occ. eigenvalues --  -88.67343 -19.03341 -14.26447 -14.24927 -14.19055
  Beta  occ. eigenvalues --  -10.15717 -10.10439 -10.09879 -10.09641 -10.06193
  Beta  occ. eigenvalues --  -10.03427 -10.03061 -10.02820 -10.02007 -10.01244
  Beta  occ. eigenvalues --   -7.76119  -5.72566  -5.71878  -5.71689  -0.95488
  Beta  occ. eigenvalues --   -0.94255  -0.81904  -0.73427  -0.70291  -0.66420
  Beta  occ. eigenvalues --   -0.61471  -0.60162  -0.59387  -0.55233  -0.52209
  Beta  occ. eigenvalues --   -0.48848  -0.47733  -0.45360  -0.42794  -0.39082
  Beta  occ. eigenvalues --   -0.37694  -0.36249  -0.35248  -0.34248  -0.33008
  Beta  occ. eigenvalues --   -0.30429  -0.29738  -0.28733  -0.28219  -0.27944
  Beta  occ. eigenvalues --   -0.26825  -0.26241  -0.25286  -0.22707  -0.21091
  Beta  occ. eigenvalues --   -0.20847  -0.18511  -0.18160  -0.17386  -0.10905
  Beta  occ. eigenvalues --   -0.10274  -0.09052  -0.07406
  Beta virt. eigenvalues --    0.07819   0.08393   0.09226   0.09605   0.10322
  Beta virt. eigenvalues --    0.11115   0.11306   0.11753   0.11851   0.12654
  Beta virt. eigenvalues --    0.13298   0.13586   0.14087   0.14745   0.15309

 Mulliken charges and spin densities:
               1          2
     1  C   -0.157919  -0.226288
     2  C   -0.491184   0.088244
     3  N    0.121691   0.029774
     4  C   -0.263369   0.053501
     5  N   -0.139697   0.195007
     6  N   -0.032827  -0.007679
     7  C    0.357983   0.029241
     8  S   -0.920832  -0.010406
     9  C    0.908761   0.074170
    10  C   -0.133940   0.203096
    11  C   -0.631235  -0.006264
    12  C    0.074011   0.184170
    13  C   -0.079414  -0.058497
    14  C   -0.702865   0.196145
    15  O   -0.264855  -0.000090
    16  H    0.113333   0.033182
    17  H    0.026914   0.084047
    18  H    0.078276   0.075233
    19  H    0.107027   0.017353
    20  H    0.152894   0.012587
    21  H    0.325478   0.011707
    22  H    0.128239  -0.017281
    23  H    0.115761  -0.019439
    24  H    0.078860   0.054974
    25  H   -0.016867  -0.000902
    26  H    0.245775   0.004416
 Sum of Mulliken charges =  -1.00000   1.00000

 Dipole moment (field-independent basis, Debye):
    X=              0.0459    Y=             -0.2187    Z=              0.6706  Tot=              0.7068
 Quadrupole moment (field-independent basis, Debye-Ang):
   XX=           -169.0736   YY=           -103.2327   ZZ=           -108.0094
   XY=              4.8374   XZ=             -3.7008   YZ=              0.0814

 Summary of Natural Population Analysis:

                                       Natural Population
                Natural  -----------------------------------------------
    Atom  No    Charge         Core      Valence    Rydberg      Total
 -----------------------------------------------------------------------
      C    1   -0.29131      0.99966     2.28738    0.00427     3.29131
      C    2   -0.09003      0.99963     2.08107    0.00932     3.09003
      N    3   -0.20922      0.99957     2.69851    0.01114     3.70922
      C    4    0.22036      0.99958     1.76109    0.01897     2.77964
      N    5   -0.10759      0.99968     2.59659    0.01131     3.60759
      N    6   -0.18591      0.99963     2.67375    0.01254     3.68591
      C    7    0.10971      0.99963     1.87074    0.01991     2.89029
      S    8   -0.18745      4.99961     3.17257    0.01527     8.18745
      C    9   -0.00304      0.99950     1.99454    0.00900     3.00304
      C   10   -0.08373      0.99950     2.07580    0.00843     3.08373
      C   11    0.14052      0.99938     1.84812    0.01197     2.85948
      C   12   -0.06867      0.99953     2.05860    0.01054     3.06867
      C   13   -0.10304      0.99958     2.09338    0.01008     3.10304
      C   14   -0.10190      0.99954     2.09414    0.00822     3.10190
      O   15   -0.35004      0.99987     3.34387    0.00630     4.35004
      H   16    0.10912      0.00000     0.38951    0.00137     0.39088
      H   17    0.09532      0.00000     0.40337    0.00131     0.40468
      H   18    0.09830      0.00000     0.40064    0.00106     0.40170
      H   19    0.10511      0.00000     0.39300    0.00189     0.39489
      H   20    0.10833      0.00000     0.39035    0.00131     0.39167
      H   21    0.19739      0.00000     0.30070    0.00192     0.30261
      H   22    0.09586      0.00000     0.40283    0.00132     0.40414
      H   23    0.09162      0.00000     0.40707    0.00131     0.40838
      H   24    0.09056      0.00000     0.40827    0.00117     0.40944
      H   25    0.09124      0.00000     0.40673    0.00203     0.40876
      H   26    0.22847      0.00000     0.26913    0.00239     0.27153
 =======================================================================
   * Total *    0.00000     18.99390    38.82175    0.18436    58.00000

 Normal termination of Gaussian 16 at Thu Dec 10 15:11:39 2020.
