 Gaussian 16, Revision A.03,

 -----------------------------------------------------------
 # opt freq B3LYP/6-31G(d) empiricaldispersion=gd3bj scf=xqc
 -----------------------------------------------------------

 -------------------------------
 CID_107065365_JID_6087_neutraal
 -------------------------------
 Symbolic Z-matrix:
 Charge =  0 Multiplicity = 1

 SCF Done:  E(RB3LYP) =  -777.369721494     A.U. after   15 cycles
 SCF Done:  E(RB3LYP) =  -777.369213472     A.U. after   13 cycles
 SCF Done:  E(RB3LYP) =  -777.375419216     A.U. after   12 cycles
 SCF Done:  E(RB3LYP) =  -777.376867621     A.U. after   12 cycles
 SCF Done:  E(RB3LYP) =  -777.376342377     A.U. after   12 cycles
 SCF Done:  E(RB3LYP) =  -777.376803908     A.U. after   12 cycles
 SCF Done:  E(RB3LYP) =  -777.377233950     A.U. after    8 cycles
 SCF Done:  E(RB3LYP) =  -777.377386011     A.U. after   11 cycles
 SCF Done:  E(RB3LYP) =  -777.377419409     A.U. after   11 cycles
 SCF Done:  E(RB3LYP) =  -777.377434812     A.U. after   10 cycles
 SCF Done:  E(RB3LYP) =  -777.377449375     A.U. after    9 cycles
 SCF Done:  E(RB3LYP) =  -777.377451026     A.U. after    9 cycles
 SCF Done:  E(RB3LYP) =  -777.377452201     A.U. after    9 cycles
 SCF Done:  E(RB3LYP) =  -777.377452357     A.U. after    7 cycles
 SCF Done:  E(RB3LYP) =  -777.377452347     A.U. after    6 cycles
 Optimization completed.
    -- Stationary point found.
 Normal termination of Gaussian 16 at Thu Dec 10 21:16:18 2020.

 --------------------------------------------------------------------
 #N Geom=AllCheck Guess=TCheck SCRF=Check GenChk RB3LYP/6-31G(d) Freq
 --------------------------------------------------------------------

 Structure from the checkpoint file:  "JID_6087.chk"
 -------------------------------
 CID_107065365_JID_6087_neutraal
 -------------------------------
 Charge =  0 Multiplicity = 1

 SCF Done:  E(RB3LYP) =  -777.377452347     A.U. after    1 cycles

  Exact polarizability: 135.796  -8.181 129.365   6.292   9.020 111.676
 Approx polarizability: 196.204 -12.105 181.396  10.092  25.869 180.912

                      1                      2                      3
                      A                      A                      A
 Frequencies --     42.5859                73.9344                75.8918
 Red. masses --      3.5250                 3.9521                 2.9470
 Frc consts  --      0.0038                 0.0127                 0.0100
 IR Inten    --      1.7735                 0.1769                 1.7019

                      4                      5                      6
                      A                      A                      A
 Frequencies --     90.9832               112.7476               121.4807
 Red. masses --      3.5723                 1.4975                 2.7697
 Frc consts  --      0.0174                 0.0112                 0.0241
 IR Inten    --      0.7263                 0.8449                 0.6293

                      7                      8                      9
                      A                      A                      A
 Frequencies --    140.8114               176.1119               191.1480
 Red. masses --      3.2614                 2.8219                 3.4926
 Frc consts  --      0.0381                 0.0516                 0.0752
 IR Inten    --      0.6630                 0.9514                 1.0412

                     10                     11                     12
                      A                      A                      A
 Frequencies --    206.9460               236.0557               275.7544
 Red. masses --      1.7231                 3.8424                 2.4216
 Frc consts  --      0.0435                 0.1261                 0.1085
 IR Inten    --      4.0073                13.1211                 2.6574

                     13                     14                     15
                      A                      A                      A
 Frequencies --    296.2953               308.8610               362.5106
 Red. masses --      2.5409                 3.4266                 2.9796
 Frc consts  --      0.1314                 0.1926                 0.2307
 IR Inten    --      2.5711                 1.7896                 3.4293

                     16                     17                     18
                      A                      A                      A
 Frequencies --    380.5286               418.4496               429.4354
 Red. masses --      4.1559                 2.3030                 3.4528
 Frc consts  --      0.3546                 0.2376                 0.3752
 IR Inten    --      0.7195                 2.8631                 5.4202

                     19                     20                     21
                      A                      A                      A
 Frequencies --    469.5589               487.1997               539.2449
 Red. masses --      5.7584                 2.4880                 3.0594
 Frc consts  --      0.7481                 0.3480                 0.5242
 IR Inten    --      0.7062                 8.5525                 3.9171

                     22                     23                     24
                      A                      A                      A
 Frequencies --    601.3264               663.6232               692.0830
 Red. masses --      2.7988                 4.2956                 8.2267
 Frc consts  --      0.5963                 1.1146                 2.3216
 IR Inten    --      3.0863                 6.1200                 4.6507

                     25                     26                     27
                      A                      A                      A
 Frequencies --    744.4015               763.5865               790.7481
 Red. masses --      4.3100                 4.8983                 3.1134
 Frc consts  --      1.4072                 1.6827                 1.1470
 IR Inten    --     12.8745                 2.3794                 1.7899

                     28                     29                     30
                      A                      A                      A
 Frequencies --    822.6871               837.9273               872.2147
 Red. masses --      3.4282                 1.9372                 2.9582
 Frc consts  --      1.3671                 0.8014                 1.3260
 IR Inten    --     29.4526                54.9244                 8.7667

                     31                     32                     33
                      A                      A                      A
 Frequencies --    897.3149               909.9739               942.8763
 Red. masses --      2.5742                 1.9055                 2.5173
 Frc consts  --      1.2212                 0.9297                 1.3186
 IR Inten    --     51.6150                21.7720                14.1103

                     34                     35                     36
                      A                      A                      A
 Frequencies --    999.6423              1033.6946              1044.7818
 Red. masses --      2.3280                 1.9678                 2.7238
 Frc consts  --      1.3706                 1.2389                 1.7518
 IR Inten    --      2.5294                19.3689                 9.0898

                     37                     38                     39
                      A                      A                      A
 Frequencies --   1057.5273              1063.1205              1082.0051
 Red. masses --      2.2801                 3.6786                 2.2345
 Frc consts  --      1.5024                 2.4496                 1.5413
 IR Inten    --     27.7237                 4.8050                18.8007

                     40                     41                     42
                      A                      A                      A
 Frequencies --   1108.0683              1130.0688              1138.2935
 Red. masses --      6.8830                 2.5118                 2.8204
 Frc consts  --      4.9792                 1.8899                 2.1532
 IR Inten    --      3.7377                35.9968                12.9378

                     43                     44                     45
                      A                      A                      A
 Frequencies --   1145.2447              1158.0371              1160.5317
 Red. masses --      2.5571                 1.4190                 2.4124
 Frc consts  --      1.9760                 1.1212                 1.9143
 IR Inten    --     11.2133                 5.2605                55.3648

                     46                     47                     48
                      A                      A                      A
 Frequencies --   1167.3310              1177.5749              1208.2322
 Red. masses --      2.2922                 1.8186                 2.2740
 Frc consts  --      1.8403                 1.4858                 1.9559
 IR Inten    --      1.7983                93.5424                35.7944

                     49                     50                     51
                      A                      A                      A
 Frequencies --   1251.5305              1269.7098              1278.0386
 Red. masses --      2.6266                 2.3225                 1.1269
 Frc consts  --      2.4240                 2.2060                 1.0845
 IR Inten    --      9.6773                31.2668                 5.9836

                     52                     53                     54
                      A                      A                      A
 Frequencies --   1293.8194              1310.4482              1328.0508
 Red. masses --      1.7711                 1.2240                 2.3688
 Frc consts  --      1.7468                 1.2385                 2.4615
 IR Inten    --      9.0109                30.4286                 2.1454

                     55                     56                     57
                      A                      A                      A
 Frequencies --   1348.4701              1352.4356              1376.2793
 Red. masses --      1.2845                 1.2607                 1.2877
 Frc consts  --      1.3761                 1.3586                 1.4370
 IR Inten    --      2.4412                 6.2892                 9.4941

                     58                     59                     60
                      A                      A                      A
 Frequencies --   1385.0526              1407.1187              1416.0830
 Red. masses --      1.3970                 1.3064                 1.3969
 Frc consts  --      1.5790                 1.5240                 1.6504
 IR Inten    --     17.4387                10.7577                15.2401

                     61                     62                     63
                      A                      A                      A
 Frequencies --   1426.8605              1436.0413              1444.8635
 Red. masses --     10.1268                 1.3090                 1.5634
 Frc consts  --     12.1475                 1.5905                 1.9230
 IR Inten    --      8.2086                 8.6788                 8.9574

                     64                     65                     66
                      A                      A                      A
 Frequencies --   1448.6705              1466.4126              1483.9252
 Red. masses --      2.3150                 1.1954                 1.1779
 Frc consts  --      2.8625                 1.5145                 1.5282
 IR Inten    --      9.2867                 0.3235                 3.3422

                     67                     68                     69
                      A                      A                      A
 Frequencies --   1505.9537              1508.5921              1510.4201
 Red. masses --      1.0465                 1.0986                 1.1042
 Frc consts  --      1.3983                 1.4732                 1.4842
 IR Inten    --      9.2121                 5.3477                 8.4254

                     70                     71                     72
                      A                      A                      A
 Frequencies --   1521.7533              1526.7880              1530.4190
 Red. masses --      1.1359                 1.0830                 1.1822
 Frc consts  --      1.5498                 1.4875                 1.6313
 IR Inten    --     12.8773                 8.0422                 3.7214

                     73                     74                     75
                      A                      A                      A
 Frequencies --   1535.8796              1542.6984              1547.7472
 Red. masses --      1.0991                 1.4100                 2.3638
 Frc consts  --      1.5275                 1.9772                 3.3363
 IR Inten    --      6.0027                20.5305                17.1624

                     76                     77                     78
                      A                      A                      A
 Frequencies --   1557.3041              2962.5793              2990.7121
 Red. masses --      1.1124                 1.0599                 1.0721
 Frc consts  --      1.5895                 5.4808                 5.6497
 IR Inten    --     23.4638                84.5807                13.8393

                     79                     80                     81
                      A                      A                      A
 Frequencies --   2996.8613              3046.6772              3058.3160
 Red. masses --      1.0721                 1.0813                 1.0740
 Frc consts  --      5.6733                 5.9137                 5.9184
 IR Inten    --    111.9125                 8.7223                31.1781

                     82                     83                     84
                      A                      A                      A
 Frequencies --   3071.0492              3074.7584              3075.8959
 Red. masses --      1.0604                 1.0781                 1.0786
 Frc consts  --      5.8925                 6.0052                 6.0127
 IR Inten    --     45.5878                 9.2956                81.8957

                     85                     86                     87
                      A                      A                      A
 Frequencies --   3087.3826              3114.0030              3121.1607
 Red. masses --      1.0328                 1.1050                 1.1029
 Frc consts  --      5.8003                 6.3134                 6.3300
 IR Inten    --     20.3128                42.4850                29.3210

                     88                     89                     90
                      A                      A                      A
 Frequencies --   3124.3260              3130.5422              3149.6563
 Red. masses --      1.0961                 1.0924                 1.0908
 Frc consts  --      6.3042                 6.3075                 6.3756
 IR Inten    --     25.5348                 8.0589                19.5050

                     91                     92                     93
                      A                      A                      A
 Frequencies --   3162.9127              3197.9961              3499.6845
 Red. masses --      1.1057                 1.1053                 1.0737
 Frc consts  --      6.5170                 6.6601                 7.7478
 IR Inten    --      7.2460                 1.2484                18.8028

 - Thermochemistry -
 -------------------
 Temperature   298.150 Kelvin.  Pressure   1.00000 Atm.
 Atom     1 has atomic number  6 and mass  12.00000

 Molecular mass:   227.13822 amu.
 Principal axes and moments of inertia in atomic units:
                           1         2         3
     Eigenvalues --  2711.280463346.340634637.61160
           X            0.99753  -0.06551   0.02519
           Y            0.06543   0.99785   0.00383
           Z           -0.02539  -0.00217   0.99968
 This molecule is an asymmetric top.
 Rotational symmetry number  1.
 Warning -- assumption of classical behavior for rotation
           may cause significant error
 Rotational temperatures (Kelvin)      0.03195     0.02588     0.01868
 Rotational constants (GHZ):           0.66564     0.53932     0.38915
 Zero-point vibrational energy     744826.9 (Joules/Mol)
                                  178.01790 (Kcal/Mol)
 Warning -- explicit consideration of  22 degrees of freedom as
           vibrations may cause significant error
 Vibrational temperatures:     61.27   106.38   109.19   130.90   162.22
          (Kelvin)            174.78   202.60   253.39   275.02   297.75
                              339.63   396.75   426.30   444.38   521.57
                              547.50   602.06   617.86   675.59   700.97
                              775.85   865.17   954.81   995.75  1071.03
                             1098.63  1137.71  1183.66  1205.59  1254.92
                             1291.04  1309.25  1356.59  1438.26  1487.26
                             1503.21  1521.55  1529.59  1556.76  1594.26
                             1625.92  1637.75  1647.75  1666.16  1669.75
                             1679.53  1694.27  1738.38  1800.67  1826.83
                             1838.81  1861.52  1885.44  1910.77  1940.15
                             1945.85  1980.16  1992.78  2024.53  2037.43
                             2052.93  2066.14  2078.84  2084.31  2109.84
                             2135.04  2166.73  2170.53  2173.16  2189.46
                             2196.71  2201.93  2209.79  2219.60  2226.86
                             2240.61  4262.49  4302.97  4311.81  4383.49
                             4400.23  4418.55  4423.89  4425.53  4442.05
                             4480.36  4490.65  4495.21  4504.15  4531.65
                             4550.73  4601.20  5035.27

 Zero-point correction=                           0.283690 (Hartree/Particle)
 Thermal correction to Energy=                    0.298789
 Thermal correction to Enthalpy=                  0.299733
 Thermal correction to Gibbs Free Energy=         0.241254
 Sum of electronic and zero-point Energies=           -777.093763
 Sum of electronic and thermal Energies=              -777.078664
 Sum of electronic and thermal Enthalpies=            -777.077719
 Sum of electronic and thermal Free Energies=         -777.136198

                     E (Thermal)             CV                S
                      KCal/Mol        Cal/Mol-Kelvin    Cal/Mol-Kelvin
 Total                  187.493             56.670            123.079
 Electronic               0.000              0.000              0.000
 Translational            0.889              2.981             42.163
 Rotational               0.889              2.981             32.109
 Vibrational            185.715             50.709             48.806
 Vibration     1          0.595              1.980              5.135
 Vibration     2          0.599              1.966              4.046
 Vibration     3          0.599              1.965              3.994
 Vibration     4          0.602              1.956              3.639
 Vibration     5          0.607              1.939              3.221
 Vibration     6          0.609              1.931              3.077
 Vibration     7          0.615              1.912              2.793
 Vibration     8          0.628              1.872              2.369
 Vibration     9          0.634              1.852              2.217
 Vibration    10          0.641              1.830              2.070
 Vibration    11          0.655              1.786              1.832
 Vibration    12          0.677              1.718              1.560
 Vibration    13          0.690              1.681              1.438
 Vibration    14          0.698              1.657              1.368
 Vibration    15          0.736              1.549              1.111
 Vibration    16          0.750              1.512              1.037
 Vibration    17          0.781              1.430              0.897
 Vibration    18          0.791              1.406              0.860
 Vibration    19          0.827              1.318              0.739
 Vibration    20          0.843              1.278              0.691
 Vibration    21          0.894              1.163              0.567
 Vibration    22          0.960              1.029              0.447

 Optimization completed.
    -- Stationary point found.
 Normal termination of Gaussian 16 at Thu Dec 10 21:28:42 2020.

 ----------------------------------------------------------------------
 # B3LYP/6-311++G(d,p) empiricaldispersion=gd3bj scf=xqc pop=npa geom=c
 heck
 ----------------------------------------------------------------------

 ---------------------------------------
 CID_107065365_JID_6087_Energie_neutraal
 ---------------------------------------
 Structure from the checkpoint file:  "JID_6087.chk"
 Charge =  0 Multiplicity = 1

 SCF Done:  E(RB3LYP) =  -777.595283843     A.U. after   15 cycles
 Normal termination of Gaussian 16 at Thu Dec 10 21:33:43 2020.

 ----------------------------------------------------------------------
 # B3LYP/6-311++G(d,p) empiricaldispersion=gd3bj scf=xqc pop=npa geom=c
 heck
 ----------------------------------------------------------------------

 -------------------------------------
 CID_107065365_JID_6087_Energie_kation
 -------------------------------------
 Structure from the checkpoint file:  "JID_6087.chk"
 Charge =  1 Multiplicity = 2

 SCF Done:  E(UB3LYP) =  -777.294442488     A.U. after   25 cycles
 Normal termination of Gaussian 16 at Thu Dec 10 21:47:19 2020.
 Gaussian 16:  ES64L-G16RevA.03 25-Dec-2016

 ----------------------------------------------------------------------
 # B3LYP/6-311++G(d,p) empiricaldispersion=gd3bj scf=xqc pop=npa geom=c
 heck
 ----------------------------------------------------------------------

 ------------------------------------
 CID_107065365_JID_6087_Energie_anion
 ------------------------------------
 Structure from the checkpoint file:  "JID_6087.chk"
 Charge = -1 Multiplicity = 2

                         Standard orientation:
 ---------------------------------------------------------------------
 Center     Atomic      Atomic             Coordinates (Angstroms)
 Number     Number       Type             X           Y           Z
 ---------------------------------------------------------------------
      1          6           0       -2.167036    3.112593    0.169355
      2          7           0       -1.668443    1.835367    0.664350
      3          6           0       -1.759690    0.733256   -0.295390
      4          6           0       -0.712326    0.804797   -1.438168
      5          6           0        0.701496    0.620902   -1.002580
      6          7           0        1.258381    1.248712    0.034766
      7          7           0        2.464252    0.685350    0.077420
      8          7           0        2.667347   -0.220976   -0.869096
      9          7           0        1.558330   -0.266738   -1.570544
     10          6           0        3.425418    0.950932    1.128145
     11          6           0       -1.864176   -0.589182    0.513325
     12          6           0       -0.786812   -0.861464    1.570787
     13          8           0        0.394955   -1.440785    1.036230
     14          6           0        0.077920   -2.667640    0.388288
     15          6           0       -0.898743   -2.425790   -0.752174
     16          8           0       -2.072784   -1.734494   -0.318042
     17          1           0       -3.241232    3.031467   -0.032408
     18          1           0       -1.679501    3.478844   -0.752387
     19          1           0       -2.029393    3.874490    0.943284
     20          1           0       -0.695373    1.941865    0.945371
     21          1           0       -2.732287    0.825819   -0.794640
     22          1           0       -0.933240    0.055929   -2.202278
     23          1           0       -0.823379    1.782655   -1.923697
     24          1           0        3.560951    2.029104    1.231458
     25          1           0        3.061459    0.529111    2.068610
     26          1           0        4.362130    0.473811    0.841397
     27          1           0       -2.800809   -0.474332    1.069336
     28          1           0       -1.212905   -1.546533    2.321882
     29          1           0       -0.496066    0.061569    2.074107
     30          1           0        1.017722   -3.075710    0.006627
     31          1           0       -0.352638   -3.370858    1.120477
     32          1           0       -1.253809   -3.377652   -1.160677
     33          1           0       -0.384366   -1.879770   -1.549752
 ---------------------------------------------------------------------

 SCF Done:  E(UB3LYP) =  -777.582250198     A.U. after   33 cycles
 SCF Done:  E(UB3LYP) =  -777.582250198     a.u. after    1 cycles

 The electronic state is 2-A.
 Alpha  occ. eigenvalues --  -19.03680 -19.03574 -14.32578 -14.27404 -14.24403
 Alpha  occ. eigenvalues --  -14.23281 -14.19679 -10.12861 -10.12851 -10.12699
 Alpha  occ. eigenvalues --  -10.12455 -10.12355 -10.11685 -10.10873 -10.08550
 Alpha  occ. eigenvalues --  -10.08415  -1.03923  -0.96601  -0.92938  -0.84310
 Alpha  occ. eigenvalues --   -0.81442  -0.78908  -0.69802  -0.67420  -0.64076
 Alpha  occ. eigenvalues --   -0.61244  -0.58912  -0.56773  -0.54114  -0.52206
 Alpha  occ. eigenvalues --   -0.50430  -0.46269  -0.42025  -0.41572  -0.41434
 Alpha  occ. eigenvalues --   -0.40162  -0.39835  -0.38607  -0.37272  -0.36175
 Alpha  occ. eigenvalues --   -0.34793  -0.33387  -0.32855  -0.32170  -0.31400
 Alpha  occ. eigenvalues --   -0.30374  -0.29878  -0.29039  -0.28017  -0.27814
 Alpha  occ. eigenvalues --   -0.26976  -0.26427  -0.24417  -0.21268  -0.21175
 Alpha  occ. eigenvalues --   -0.21016  -0.19222  -0.18583  -0.17720  -0.15306
 Alpha  occ. eigenvalues --   -0.13020   0.04466
 Alpha virt. eigenvalues --    0.06382   0.06446   0.06926   0.08024   0.08713
 Alpha virt. eigenvalues --    0.09317   0.09496   0.10342   0.10545   0.11012
 Alpha virt. eigenvalues --    0.11635   0.11857   0.12648   0.12709   0.12856

  Beta  occ. eigenvalues --  -19.03676 -19.03574 -14.32456 -14.27299 -14.24316
  Beta  occ. eigenvalues --  -14.23290 -14.19673 -10.12857 -10.12846 -10.12692
  Beta  occ. eigenvalues --  -10.12449 -10.12350 -10.11641 -10.10866 -10.08509
  Beta  occ. eigenvalues --  -10.08407  -1.03774  -0.96595  -0.92933  -0.84176
  Beta  occ. eigenvalues --   -0.81414  -0.78784  -0.69785  -0.67365  -0.64010
  Beta  occ. eigenvalues --   -0.61220  -0.58892  -0.56722  -0.54060  -0.52070
  Beta  occ. eigenvalues --   -0.50385  -0.46237  -0.41894  -0.41506  -0.41290
  Beta  occ. eigenvalues --   -0.40129  -0.39692  -0.38583  -0.37247  -0.36137
  Beta  occ. eigenvalues --   -0.34752  -0.33319  -0.32799  -0.32127  -0.31326
  Beta  occ. eigenvalues --   -0.30323  -0.29831  -0.29021  -0.27931  -0.27798
  Beta  occ. eigenvalues --   -0.26941  -0.26395  -0.24377  -0.21188  -0.20935
  Beta  occ. eigenvalues --   -0.20780  -0.19167  -0.18505  -0.17448  -0.15264
  Beta  occ. eigenvalues --   -0.12984
  Beta virt. eigenvalues --    0.06389   0.07160   0.07448   0.07858   0.08182
  Beta virt. eigenvalues --    0.09107   0.09558   0.09982   0.10617   0.10939
  Beta virt. eigenvalues --    0.11502   0.11920   0.12247   0.12764   0.12824

 Mulliken charges and spin densities:
               1          2
     1  C    1.051125  -1.371763
     2  N   -0.139302   0.128739
     3  C   -0.030433  -0.085998
     4  C   -0.313043  -0.245269
     5  C   -0.117922  -0.411149
     6  N   -0.246333   0.157582
     7  N    0.068665   0.271620
     8  N   -0.032618   0.130460
     9  N   -0.037934  -0.039523
    10  C    1.378073  -1.667869
    11  C   -0.562881   0.313446
    12  C   -0.438376  -0.160720
    13  O   -0.012702   0.008425
    14  C    0.134444  -0.340054
    15  C   -0.335760   0.096470
    16  O   -0.045188  -0.014161
    17  H   -0.377403   0.518895
    18  H   -0.240356   0.361004
    19  H   -0.283460   0.423019
    20  H    0.249284  -0.010557
    21  H   -0.042041   0.261378
    22  H    0.106373   0.062503
    23  H    0.083561   0.103263
    24  H   -0.749813   0.951194
    25  H   -0.095497   0.276336
    26  H   -0.352628   0.524410
    27  H   -0.000681   0.213830
    28  H   -0.043417   0.176651
    29  H    0.097219   0.075154
    30  H    0.150553   0.018907
    31  H    0.036190   0.090739
    32  H   -0.015101   0.187666
    33  H    0.157401  -0.004625
 Sum of Mulliken charges =  -1.00000   1.00000

 Dipole moment (field-independent basis, Debye):
    X=             -2.8406    Y=             -6.6794    Z=             -1.1189  Tot=              7.3441
 Quadrupole moment (field-independent basis, Debye-Ang):
   XX=           -170.0933   YY=           -150.3493   ZZ=           -127.5792
   XY=             -2.9894   XZ=             -4.4882   YZ=             -5.9819

 Summary of Natural Population Analysis:

                                       Natural Population
                Natural  -----------------------------------------------
    Atom  No    Charge         Core      Valence    Rydberg      Total
 -----------------------------------------------------------------------
      C    1   -0.17619      0.99966     2.16820    0.00833     3.17619
      N    2   -0.35242      0.99973     2.84076    0.01192     3.85242
      C    3   -0.01098      0.99956     1.99680    0.01462     3.01098
      C    4   -0.22451      0.99956     2.21533    0.00963     3.22451
      C    5    0.16309      0.99965     1.81745    0.01982     2.83691
      N    6   -0.14978      0.99967     2.63787    0.01224     3.64978
      N    7    0.00999      0.99971     2.47407    0.01623     3.49001
      N    8   -0.01898      0.99977     2.50408    0.01513     3.51898
      N    9   -0.16728      0.99971     2.65416    0.01341     3.66728
      C   10   -0.17620      0.99963     2.16839    0.00819     3.17620
      C   11    0.05511      0.99950     1.92894    0.01645     2.94489
      C   12   -0.02704      0.99955     2.01439    0.01311     3.02704
      O   13   -0.29977      0.99989     3.28885    0.01103     4.29977
      C   14   -0.02545      0.99959     2.01405    0.01181     3.02545
      C   15   -0.02728      0.99956     2.01732    0.01041     3.02728
      O   16   -0.30551      0.99989     3.29628    0.00934     4.30551
      H   17    0.09084      0.00000     0.40753    0.00162     0.40916
      H   18    0.07976      0.00000     0.41859    0.00165     0.42024
      H   19    0.09686      0.00000     0.40204    0.00110     0.40314
      H   20    0.18517      0.00000     0.31050    0.00433     0.31483
      H   21    0.09806      0.00000     0.40013    0.00181     0.40194
      H   22    0.11205      0.00000     0.38669    0.00126     0.38795
      H   23    0.11309      0.00000     0.38573    0.00118     0.38691
      H   24    0.11200      0.00000     0.38242    0.00558     0.38800
      H   25    0.10267      0.00000     0.39604    0.00129     0.39733
      H   26    0.10911      0.00000     0.38896    0.00193     0.39089
      H   27    0.09823      0.00000     0.40014    0.00163     0.40177
      H   28    0.07989      0.00000     0.41869    0.00142     0.42011
      H   29    0.10250      0.00000     0.39581    0.00169     0.39750
      H   30    0.09732      0.00000     0.40182    0.00087     0.40268
      H   31    0.07664      0.00000     0.42192    0.00145     0.42336
      H   32    0.08848      0.00000     0.41044    0.00108     0.41152
      H   33    0.09056      0.00000     0.40750    0.00194     0.40944
 =======================================================================
   * Total *    0.00000     15.99461    44.77189    0.23349    61.00000

 Normal termination of Gaussian 16 at Thu Dec 10 22:04:37 2020.
