 Gaussian 16, Revision A.03,

 -----------------------------------------------------------
 # opt freq B3LYP/6-31G(d) empiricaldispersion=gd3bj scf=xqc
 -----------------------------------------------------------

 -------------------------------
 CID_124248866_JID_3549_neutraal
 -------------------------------
 Symbolic Z-matrix:
 Charge =  0 Multiplicity = 1

 SCF Done:  E(RB3LYP) =  -521.085988480     A.U. after   13 cycles
 SCF Done:  E(RB3LYP) =  -521.091279937     A.U. after   11 cycles
 SCF Done:  E(RB3LYP) =  -521.092070048     A.U. after   11 cycles
 SCF Done:  E(RB3LYP) =  -521.092215377     A.U. after   11 cycles
 SCF Done:  E(RB3LYP) =  -521.092231030     A.U. after    9 cycles
 SCF Done:  E(RB3LYP) =  -521.092233489     A.U. after    8 cycles
 SCF Done:  E(RB3LYP) =  -521.092233743     A.U. after    7 cycles
 SCF Done:  E(RB3LYP) =  -521.092233926     A.U. after    6 cycles
 SCF Done:  E(RB3LYP) =  -521.092234102     A.U. after    6 cycles
 SCF Done:  E(RB3LYP) =  -521.092234425     A.U. after    7 cycles
 SCF Done:  E(RB3LYP) =  -521.092235578     A.U. after    9 cycles
 SCF Done:  E(RB3LYP) =  -521.092236396     A.U. after    9 cycles
 SCF Done:  E(RB3LYP) =  -521.092237302     A.U. after    8 cycles
 SCF Done:  E(RB3LYP) =  -521.092237584     A.U. after    8 cycles
 SCF Done:  E(RB3LYP) =  -521.092237602     A.U. after    6 cycles
 Optimization completed.
    -- Stationary point found.
 Normal termination of Gaussian 16 at Wed Dec  9 23:38:10 2020.

 --------------------------------------------------------------------
 #N Geom=AllCheck Guess=TCheck SCRF=Check GenChk RB3LYP/6-31G(d) Freq
 --------------------------------------------------------------------

 Structure from the checkpoint file:  "JID_3549.chk"
 -------------------------------
 CID_124248866_JID_3549_neutraal
 -------------------------------
 Charge =  0 Multiplicity = 1

 SCF Done:  E(RB3LYP) =  -521.092237602     A.U. after    1 cycles

  Exact polarizability: 170.674  -1.402 127.529   0.300   1.853  79.659
 Approx polarizability: 226.865  -0.576 208.473   1.746   6.656 121.653

                      1                      2                      3
                      A                      A                      A
 Frequencies --     32.4203                77.9851               105.5864
 Red. masses --      1.0198                 3.6257                 2.8905
 Frc consts  --      0.0006                 0.0130                 0.0190
 IR Inten    --      0.2839                 0.5460                 1.0501

                      4                      5                      6
                      A                      A                      A
 Frequencies --    130.2692               198.1420               220.1140
 Red. masses --      2.4285                 3.2074                 2.4074
 Frc consts  --      0.0243                 0.0742                 0.0687
 IR Inten    --      1.8104                 0.6942                 1.7318

                      7                      8                      9
                      A                      A                      A
 Frequencies --    242.6743               313.9928               325.8797
 Red. masses --      2.7956                 2.7244                 2.7287
 Frc consts  --      0.0970                 0.1583                 0.1707
 IR Inten    --      0.9357                 1.1172                 0.2870

                     10                     11                     12
                      A                      A                      A
 Frequencies --    404.2763               423.3721               456.8502
 Red. masses --      2.9387                 3.1054                 3.0362
 Frc consts  --      0.2830                 0.3280                 0.3734
 IR Inten    --      2.3620                 0.9000                 2.0015

                     13                     14                     15
                      A                      A                      A
 Frequencies --    470.6670               543.2718               572.6617
 Red. masses --      3.5328                 3.9720                 2.9983
 Frc consts  --      0.4611                 0.6907                 0.5793
 IR Inten    --      1.3432                 3.3913                 2.1656

                     16                     17                     18
                      A                      A                      A
 Frequencies --    603.2321               662.3736               714.2905
 Red. masses --      4.7519                 2.8726                 2.1422
 Frc consts  --      1.0188                 0.7426                 0.6440
 IR Inten    --      3.4864                 6.9026                43.5114

                     19                     20                     21
                      A                      A                      A
 Frequencies --    750.8831               764.1146               789.9298
 Red. masses --      3.0498                 5.3401                 1.4106
 Frc consts  --      1.0131                 1.8370                 0.5186
 IR Inten    --      0.7193                 1.9782                26.9569

                     22                     23                     24
                      A                      A                      A
 Frequencies --    826.6947               843.1053               895.7750
 Red. masses --      1.7139                 1.3516                 1.3107
 Frc consts  --      0.6901                 0.5660                 0.6197
 IR Inten    --      3.4431                15.8101                 1.8832

                     25                     26                     27
                      A                      A                      A
 Frequencies --    923.8284               930.8322               946.3999
 Red. masses --      2.2622                 2.5167                 2.1060
 Frc consts  --      1.1375                 1.2848                 1.1114
 IR Inten    --      0.7607                 7.8151                 4.4150

                     28                     29                     30
                      A                      A                      A
 Frequencies --    963.3775               965.3587               980.0887
 Red. masses --      1.6696                 1.7126                 2.0532
 Frc consts  --      0.9130                 0.9403                 1.1620
 IR Inten    --      0.6346                 0.8419                 0.2761

                     31                     32                     33
                      A                      A                      A
 Frequencies --    989.4474              1029.7468              1030.4019
 Red. masses --      2.0299                 2.1746                 1.8433
 Frc consts  --      1.1709                 1.3586                 1.1531
 IR Inten    --      1.1850                16.5521                 7.9147

                     34                     35                     36
                      A                      A                      A
 Frequencies --   1073.2872              1081.3450              1099.4656
 Red. masses --      1.6320                 2.9106                 1.9486
 Frc consts  --      1.1077                 2.0052                 1.3878
 IR Inten    --      6.7208                13.3497                10.9186

                     37                     38                     39
                      A                      A                      A
 Frequencies --   1136.1357              1158.0306              1161.6840
 Red. masses --      2.1797                 1.7002                 1.4206
 Frc consts  --      1.6577                 1.3433                 1.1295
 IR Inten    --     12.2508                 7.8602                13.5737

                     40                     41                     42
                      A                      A                      A
 Frequencies --   1172.2284              1205.8395              1211.0115
 Red. masses --      1.7606                 1.3627                 1.3259
 Frc consts  --      1.4254                 1.1674                 1.1457
 IR Inten    --      0.4148                 0.2421                 0.6318

                     43                     44                     45
                      A                      A                      A
 Frequencies --   1220.2235              1263.8471              1274.1059
 Red. masses --      1.2898                 1.5915                 2.2786
 Frc consts  --      1.1315                 1.4978                 2.1794
 IR Inten    --      1.7411                 1.1464                 0.2124

                     46                     47                     48
                      A                      A                      A
 Frequencies --   1300.4451              1318.4255              1326.6845
 Red. masses --      1.3528                 2.5451                 1.4911
 Frc consts  --      1.3479                 2.6066                 1.5463
 IR Inten    --      5.5396                17.4368                 6.8884

                     49                     50                     51
                      A                      A                      A
 Frequencies --   1339.9687              1355.7159              1369.0776
 Red. masses --      1.6131                 1.6235                 4.6089
 Frc consts  --      1.7064                 1.7580                 5.0899
 IR Inten    --      5.6683                 1.4405                21.3915

                     52                     53                     54
                      A                      A                      A
 Frequencies --   1396.6443              1441.9470              1469.2836
 Red. masses --      1.5008                 1.2483                 3.0603
 Frc consts  --      1.7248                 1.5292                 3.8925
 IR Inten    --     15.6192                 0.3701                 2.6216

                     55                     56                     57
                      A                      A                      A
 Frequencies --   1506.0440              1514.4082              1518.5520
 Red. masses --      1.1124                 1.1156                 1.0491
 Frc consts  --      1.4866                 1.5074                 1.4254
 IR Inten    --      3.0326                 2.2386                 5.0983

                     58                     59                     60
                      A                      A                      A
 Frequencies --   1524.6004              1526.4184              1541.6319
 Red. masses --      1.1199                 1.1336                 2.5990
 Frc consts  --      1.5337                 1.5561                 3.6392
 IR Inten    --      2.8657                10.7833                10.6303

                     61                     62                     63
                      A                      A                      A
 Frequencies --   1556.7304              1643.8261              1675.7493
 Red. masses --      1.1169                 6.5814                 6.5575
 Frc consts  --      1.5948                10.4780                10.8494
 IR Inten    --      3.0824                 1.8966                 8.2598

                     64                     65                     66
                      A                      A                      A
 Frequencies --   3015.4523              3031.3194              3039.2884
 Red. masses --      1.0664                 1.0696                 1.0409
 Frc consts  --      5.7129                 5.7909                 5.6651
 IR Inten    --     85.3342                27.3353                40.3486

                     67                     68                     69
                      A                      A                      A
 Frequencies --   3040.8163              3079.3219              3086.7306
 Red. masses --      1.0647                 1.0968                 1.0939
 Frc consts  --      5.8004                 6.1277                 6.1405
 IR Inten    --     33.2950                54.4469                35.1531

                     70                     71                     72
                      A                      A                      A
 Frequencies --   3093.9183              3096.0851              3103.3019
 Red. masses --      1.0615                 1.0951                 1.0994
 Frc consts  --      5.9866                 6.1850                 6.2384
 IR Inten    --     22.7225                24.3189                48.4438

                     73                     74                     75
                      A                      A                      A
 Frequencies --   3123.1279              3148.8964              3168.8424
 Red. masses --      1.1027                 1.1102                 1.0900
 Frc consts  --      6.3369                 6.4859                 6.4490
 IR Inten    --     17.0860                25.6155                25.5029

                     76                     77                     78
                      A                      A                      A
 Frequencies --   3175.4558              3202.8474              3480.3693
 Red. masses --      1.0881                 1.0930                 1.0756
 Frc consts  --      6.4645                 6.6058                 7.6764
 IR Inten    --     18.3923                12.7636                 3.5417

 - Thermochemistry -
 -------------------
 Temperature   298.150 Kelvin.  Pressure   1.00000 Atm.
 Atom     1 has atomic number  6 and mass  12.00000

 Molecular mass:   173.12045 amu.
 Principal axes and moments of inertia in atomic units:
                           1         2         3
     Eigenvalues --   972.779753388.180284027.52779
           X            0.99999  -0.00437  -0.00190
           Y            0.00436   0.99997  -0.00663
           Z            0.00193   0.00663   0.99998
 This molecule is an asymmetric top.
 Rotational symmetry number  1.
 Warning -- assumption of classical behavior for rotation
           may cause significant error
 Rotational temperatures (Kelvin)      0.08904     0.02556     0.02151
 Rotational constants (GHZ):           1.85524     0.53266     0.44810
 Zero-point vibrational energy     642377.8 (Joules/Mol)
                                  153.53197 (Kcal/Mol)
 Warning -- explicit consideration of  16 degrees of freedom as
           vibrations may cause significant error
 Vibrational temperatures:     46.65   112.20   151.92   187.43   285.08
          (Kelvin)            316.70   349.15   451.77   468.87   581.66
                              609.14   657.31   677.18   781.65   823.93
                              867.92   953.01  1027.70  1080.35  1099.39
                             1136.53  1189.43  1213.04  1288.82  1329.18
                             1339.26  1361.66  1386.09  1388.94  1410.13
                             1423.59  1481.58  1482.52  1544.22  1555.81
                             1581.89  1634.65  1666.15  1671.40  1686.58
                             1734.93  1742.38  1755.63  1818.39  1833.15
                             1871.05  1896.92  1908.80  1927.92  1950.57
                             1969.80  2009.46  2074.64  2113.97  2166.86
                             2178.90  2184.86  2193.56  2196.18  2218.06
                             2239.79  2365.10  2411.03  4338.56  4361.39
                             4372.86  4375.06  4430.46  4441.12  4451.46
                             4454.58  4464.96  4493.48  4530.56  4559.26
                             4568.77  4608.18  5007.48

 Zero-point correction=                           0.244669 (Hartree/Particle)
 Thermal correction to Energy=                    0.255971
 Thermal correction to Enthalpy=                  0.256915
 Thermal correction to Gibbs Free Energy=         0.206918
 Sum of electronic and zero-point Energies=           -520.847569
 Sum of electronic and thermal Energies=              -520.836267
 Sum of electronic and thermal Enthalpies=            -520.835323
 Sum of electronic and thermal Free Energies=         -520.885320

                     E (Thermal)             CV                S
                      KCal/Mol        Cal/Mol-Kelvin    Cal/Mol-Kelvin
 Total                  160.624             44.861            105.229
 Electronic               0.000              0.000              0.000
 Translational            0.889              2.981             41.354
 Rotational               0.889              2.981             30.963
 Vibrational            158.847             38.900             32.912
 Vibration     1          0.594              1.983              5.676
 Vibration     2          0.599              1.964              3.941
 Vibration     3          0.605              1.945              3.348
 Vibration     4          0.612              1.923              2.942
 Vibration     5          0.637              1.842              2.150
 Vibration     6          0.647              1.810              1.958
 Vibration     7          0.659              1.775              1.783
 Vibration     8          0.702              1.647              1.341
 Vibration     9          0.710              1.624              1.280
 Vibration    10          0.769              1.461              0.947
 Vibration    11          0.786              1.419              0.881
 Vibration    12          0.815              1.346              0.775
 Vibration    13          0.828              1.315              0.736
 Vibration    14          0.898              1.154              0.558
 Vibration    15          0.929              1.090              0.499
 Vibration    16          0.962              1.025              0.444

 Optimization completed.
    -- Stationary point found.
 Normal termination of Gaussian 16 at Wed Dec  9 23:45:06 2020.

 ----------------------------------------------------------------------
 # B3LYP/6-311++G(d,p) empiricaldispersion=gd3bj scf=xqc pop=npa geom=c
 heck
 ----------------------------------------------------------------------

 ---------------------------------------
 CID_124248866_JID_3549_Energie_neutraal
 ---------------------------------------
 Structure from the checkpoint file:  "JID_3549.chk"
 Charge =  0 Multiplicity = 1

 SCF Done:  E(RB3LYP) =  -521.227063228     A.U. after   14 cycles
 Normal termination of Gaussian 16 at Wed Dec  9 23:48:12 2020.

 ----------------------------------------------------------------------
 # B3LYP/6-311++G(d,p) empiricaldispersion=gd3bj scf=xqc pop=npa geom=c
 heck
 ----------------------------------------------------------------------

 -------------------------------------
 CID_124248866_JID_3549_Energie_kation
 -------------------------------------
 Structure from the checkpoint file:  "JID_3549.chk"
 Charge =  1 Multiplicity = 2

 SCF Done:  E(UB3LYP) =  -520.935655479     A.U. after   24 cycles
 Normal termination of Gaussian 16 at Wed Dec  9 23:55:37 2020.
 Gaussian 16:  ES64L-G16RevA.03 25-Dec-2016

 ----------------------------------------------------------------------
 # B3LYP/6-311++G(d,p) empiricaldispersion=gd3bj scf=xqc pop=npa geom=c
 heck
 ----------------------------------------------------------------------

 ------------------------------------
 CID_124248866_JID_3549_Energie_anion
 ------------------------------------
 Structure from the checkpoint file:  "JID_3549.chk"
 Charge = -1 Multiplicity = 2

                         Standard orientation:
 ---------------------------------------------------------------------
 Center     Atomic      Atomic             Coordinates (Angstroms)
 Number     Number       Type             X           Y           Z
 ---------------------------------------------------------------------
      1          6           0        4.242675   -0.260545    0.073648
      2          6           0        2.732777   -0.242124    0.042388
      3          6           0        2.033187    0.971994    0.102671
      4          6           0        0.643568    0.975480    0.031210
      5          6           0       -0.060292   -0.225995   -0.088808
      6          6           0        0.614559   -1.440099   -0.147884
      7          6           0        2.008906   -1.438423   -0.082213
      8          6           0       -1.546978    0.020442   -0.099198
      9          6           0       -1.627761    1.522462   -0.474271
     10          6           0       -0.321455    2.143163    0.075139
     11          6           0       -2.363323   -0.370768    1.175025
     12          6           0       -3.424904   -0.923079    0.199340
     13          7           0       -2.396454   -0.921798   -0.867690
     14          1           0        4.622114   -1.166721    0.557858
     15          1           0        4.642476    0.604659    0.612881
     16          1           0        4.662859   -0.234789   -0.940733
     17          1           0        2.584451    1.905956    0.194932
     18          1           0        0.056528   -2.365598   -0.259065
     19          1           0        2.551382   -2.379784   -0.133830
     20          1           0       -2.534843    2.009891   -0.102234
     21          1           0       -1.629350    1.601943   -1.569798
     22          1           0       -0.461425    2.489405    1.108982
     23          1           0        0.018187    3.007836   -0.505724
     24          1           0       -1.868488   -1.154203    1.753481
     25          1           0       -2.657005    0.446579    1.838341
     26          1           0       -3.845242   -1.911446    0.416847
     27          1           0       -4.252746   -0.217039    0.038284
     28          1           0       -2.699468   -0.579164   -1.778685
 ---------------------------------------------------------------------

 SCF Done:  E(UB3LYP) =  -521.209353364     A.U. after   33 cycles
 SCF Done:  E(UB3LYP) =  -521.209353364     a.u. after    1 cycles

 The electronic state is 2-A.
 Alpha  occ. eigenvalues --  -14.19414 -10.10649 -10.09088 -10.08174 -10.07319
 Alpha  occ. eigenvalues --  -10.07178 -10.06937 -10.06853 -10.06845 -10.06778
 Alpha  occ. eigenvalues --  -10.06629 -10.06535 -10.06351  -0.83347  -0.76513
 Alpha  occ. eigenvalues --   -0.71103  -0.66077  -0.63117  -0.61571  -0.59322
 Alpha  occ. eigenvalues --   -0.56446  -0.51138  -0.50254  -0.46311  -0.44441
 Alpha  occ. eigenvalues --   -0.41647  -0.38435  -0.37136  -0.35607  -0.35098
 Alpha  occ. eigenvalues --   -0.33673  -0.32131  -0.31265  -0.30226  -0.28888
 Alpha  occ. eigenvalues --   -0.27839  -0.27710  -0.26202  -0.25686  -0.24599
 Alpha  occ. eigenvalues --   -0.24509  -0.23359  -0.22183  -0.20902  -0.14821
 Alpha  occ. eigenvalues --   -0.13291  -0.12976   0.04673
 Alpha virt. eigenvalues --    0.06153   0.07523   0.07760   0.08183   0.08497
 Alpha virt. eigenvalues --    0.08689   0.08901   0.10145   0.10298   0.10691
 Alpha virt. eigenvalues --    0.11049   0.11272   0.12668   0.13114   0.13429

  Beta  occ. eigenvalues --  -14.19402 -10.10651 -10.09061 -10.08176 -10.07317
  Beta  occ. eigenvalues --  -10.07160 -10.06930 -10.06839 -10.06811 -10.06760
  Beta  occ. eigenvalues --  -10.06608 -10.06504 -10.06350  -0.83330  -0.76496
  Beta  occ. eigenvalues --   -0.71078  -0.66051  -0.63083  -0.61528  -0.59283
  Beta  occ. eigenvalues --   -0.56394  -0.51071  -0.50208  -0.46273  -0.44390
  Beta  occ. eigenvalues --   -0.41596  -0.38405  -0.37102  -0.35579  -0.35059
  Beta  occ. eigenvalues --   -0.33643  -0.32098  -0.31231  -0.30198  -0.28856
  Beta  occ. eigenvalues --   -0.27807  -0.27671  -0.26163  -0.25642  -0.24560
  Beta  occ. eigenvalues --   -0.24472  -0.23337  -0.22152  -0.20873  -0.14773
  Beta  occ. eigenvalues --   -0.13268  -0.12949
  Beta virt. eigenvalues --    0.06759   0.07322   0.07910   0.08104   0.08523
  Beta virt. eigenvalues --    0.08897   0.09041   0.09474   0.10506   0.10645
  Beta virt. eigenvalues --    0.11040   0.11479   0.11760   0.13016   0.13416

 Mulliken charges and spin densities:
               1          2
     1  C    2.436527  -2.831707
     2  C   -0.711193   1.441827
     3  C    0.155210  -0.382919
     4  C    0.198517  -0.327764
     5  C    0.099076   0.259568
     6  C   -0.457862   0.243369
     7  C   -1.589285   0.944392
     8  C   -1.174812   1.068066
     9  C    1.077773  -1.584896
    10  C    0.142753  -0.760169
    11  C    0.548094  -0.986793
    12  C    0.823209  -1.054493
    13  N   -0.102352   0.143076
    14  H   -0.257954   0.395590
    15  H   -0.438622   0.584617
    16  H    0.033029   0.129654
    17  H   -0.306659   0.443211
    18  H    0.087049   0.081238
    19  H   -0.207274   0.343097
    20  H   -0.463943   0.649245
    21  H   -0.017599   0.180702
    22  H   -0.106001   0.279145
    23  H   -0.032079   0.191686
    24  H    0.050277   0.076494
    25  H   -0.253235   0.414835
    26  H   -0.013157   0.158038
    27  H   -0.498486   0.643236
    28  H   -0.020998   0.257656
 Sum of Mulliken charges =  -1.00000   1.00000

 Dipole moment (field-independent basis, Debye):
    X=              0.9624    Y=             -2.1147    Z=             -0.8742  Tot=              2.4824
 Quadrupole moment (field-independent basis, Debye-Ang):
   XX=           -167.9996   YY=           -115.8243   ZZ=           -109.3485
   XY=              6.1376   XZ=             -1.6556   YZ=             -2.8187

 Summary of Natural Population Analysis:

                                       Natural Population
                Natural  -----------------------------------------------
    Atom  No    Charge         Core      Valence    Rydberg      Total
 -----------------------------------------------------------------------
      C    1   -0.29267      0.99964     2.28724    0.00579     3.29267
      C    2   -0.01592      0.99953     2.00587    0.01053     3.01592
      C    3   -0.09972      0.99946     2.09102    0.00924     3.09972
      C    4   -0.00295      0.99947     1.99371    0.00976     3.00295
      C    5   -0.02418      0.99942     2.01388    0.01088     3.02418
      C    6   -0.08818      0.99951     2.07991    0.00876     3.08818
      C    7   -0.10247      0.99952     2.09415    0.00880     3.10247
      C    8    0.05646      0.99954     1.92723    0.01676     2.94354
      C    9   -0.18630      0.99960     2.17733    0.00937     3.18630
      C   10   -0.19695      0.99961     2.18892    0.00842     3.19695
      C   11   -0.18469      0.99958     2.17707    0.00804     3.18469
      C   12   -0.08524      0.99965     2.07436    0.01123     3.08524
      N   13   -0.34067      0.99973     2.82972    0.01122     3.84067
      H   14    0.10207      0.00000     0.39674    0.00119     0.39793
      H   15    0.10347      0.00000     0.39512    0.00141     0.39653
      H   16    0.10335      0.00000     0.39559    0.00105     0.39665
      H   17    0.09878      0.00000     0.39983    0.00139     0.40122
      H   18    0.10497      0.00000     0.39347    0.00156     0.39503
      H   19    0.09679      0.00000     0.40230    0.00092     0.40321
      H   20    0.10467      0.00000     0.39286    0.00247     0.39533
      H   21    0.09684      0.00000     0.40165    0.00151     0.40316
      H   22    0.10369      0.00000     0.39481    0.00151     0.39631
      H   23    0.10242      0.00000     0.39652    0.00106     0.39758
      H   24    0.09954      0.00000     0.39927    0.00119     0.40046
      H   25    0.10181      0.00000     0.39687    0.00132     0.39819
      H   26    0.08506      0.00000     0.41369    0.00124     0.41494
      H   27    0.08667      0.00000     0.41044    0.00288     0.41333
      H   28    0.17334      0.00000     0.32380    0.00286     0.32666
 =======================================================================
   * Total *   -0.00000     12.99426    33.85337    0.15238    47.00000

 Normal termination of Gaussian 16 at Thu Dec 10 00:05:19 2020.
