 Gaussian 16, Revision A.03,

 -----------------------------------------------------------
 # opt freq B3LYP/6-31G(d) empiricaldispersion=gd3bj scf=xqc
 -----------------------------------------------------------

 ------------------------------
 CID_23544381_JID_2433_neutraal
 ------------------------------
 Symbolic Z-matrix:
 Charge =  0 Multiplicity = 1

 SCF Done:  E(RB3LYP) =  -499.050964205     A.U. after   14 cycles
 SCF Done:  E(RB3LYP) =  -499.053915030     A.U. after   12 cycles
 SCF Done:  E(RB3LYP) =  -499.054163410     A.U. after   10 cycles
 SCF Done:  E(RB3LYP) =  -499.054214501     A.U. after   10 cycles
 SCF Done:  E(RB3LYP) =  -499.054237294     A.U. after    9 cycles
 SCF Done:  E(RB3LYP) =  -499.054249075     A.U. after    9 cycles
 SCF Done:  E(RB3LYP) =  -499.054249985     A.U. after    7 cycles
 SCF Done:  E(RB3LYP) =  -499.054250238     A.U. after    7 cycles
 SCF Done:  E(RB3LYP) =  -499.054250322     A.U. after    7 cycles
 Optimization completed.
    -- Stationary point found.
 Normal termination of Gaussian 16 at Wed Dec  9 17:20:05 2020.

 --------------------------------------------------------------------
 #N Geom=AllCheck Guess=TCheck SCRF=Check GenChk RB3LYP/6-31G(d) Freq
 --------------------------------------------------------------------

 Structure from the checkpoint file:  "JID_2433.chk"
 ------------------------------
 CID_23544381_JID_2433_neutraal
 ------------------------------
 Charge =  0 Multiplicity = 1

 SCF Done:  E(RB3LYP) =  -499.054250322     A.U. after    1 cycles

  Exact polarizability: 168.155  -1.306 113.780   0.338  -1.515  68.803
 Approx polarizability: 223.920  -4.916 191.043  -1.556  -3.306 105.915

                      1                      2                      3
                      A                      A                      A
 Frequencies --     65.5423               105.6251               120.4863
 Red. masses --      3.0245                 2.5044                 2.4674
 Frc consts  --      0.0077                 0.0165                 0.0211
 IR Inten    --      1.3328                 0.4664                 1.9991

                      4                      5                      6
                      A                      A                      A
 Frequencies --    182.3190               216.5448               236.7498
 Red. masses --      2.6735                 2.0502                 1.4800
 Frc consts  --      0.0524                 0.0566                 0.0489
 IR Inten    --      1.3916                 0.4033                 0.8903

                      7                      8                      9
                      A                      A                      A
 Frequencies --    298.4581               320.2354               354.9709
 Red. masses --      2.2847                 2.2080                 2.4811
 Frc consts  --      0.1199                 0.1334                 0.1842
 IR Inten    --      3.1966                11.2971                 1.4274

                     10                     11                     12
                      A                      A                      A
 Frequencies --    411.7818               439.3100               452.0932
 Red. masses --      3.8909                 2.0142                 3.0165
 Frc consts  --      0.3887                 0.2290                 0.3633
 IR Inten    --      4.6004                96.6792                 2.7146

                     13                     14                     15
                      A                      A                      A
 Frequencies --    469.2329               503.9604               584.1881
 Red. masses --      4.3272                 2.8071                 2.9278
 Frc consts  --      0.5614                 0.4200                 0.5887
 IR Inten    --     14.2420                20.4795                19.0109

                     16                     17                     18
                      A                      A                      A
 Frequencies --    606.0618               632.9461               727.7464
 Red. masses --      3.2243                 2.3975                 3.0528
 Frc consts  --      0.6978                 0.5659                 0.9526
 IR Inten    --      6.1620                10.6591                 0.9291

                     19                     20                     21
                      A                      A                      A
 Frequencies --    737.1310               748.0851               842.0564
 Red. masses --      4.0666                 3.9519                 1.5469
 Frc consts  --      1.3019                 1.3031                 0.6463
 IR Inten    --      7.0389                 2.1087                 3.8890

                     22                     23                     24
                      A                      A                      A
 Frequencies --    877.9968               881.2732               903.7437
 Red. masses --      2.2580                 1.7586                 1.3365
 Frc consts  --      1.0256                 0.8047                 0.6431
 IR Inten    --      4.9253                14.2949                 0.2187

                     25                     26                     27
                      A                      A                      A
 Frequencies --    932.3442               940.7003               965.4490
 Red. masses --      1.8010                 2.0328                 2.8275
 Frc consts  --      0.9224                 1.0599                 1.5528
 IR Inten    --      5.1705                 1.0489                 2.9876

                     28                     29                     30
                      A                      A                      A
 Frequencies --   1013.5609              1082.8236              1097.3937
 Red. masses --      2.4259                 1.9280                 1.8953
 Frc consts  --      1.4683                 1.3319                 1.3448
 IR Inten    --      6.8791                 1.4916                 2.3637

                     31                     32                     33
                      A                      A                      A
 Frequencies --   1113.9249              1159.7185              1165.7389
 Red. masses --      1.8691                 1.4275                 1.2531
 Frc consts  --      1.3665                 1.1312                 1.0033
 IR Inten    --      1.4978                11.2720                 3.5424

                     34                     35                     36
                      A                      A                      A
 Frequencies --   1168.2444              1194.5273              1198.2775
 Red. masses --      1.6846                 2.6958                 1.4614
 Frc consts  --      1.3546                 2.2664                 1.2363
 IR Inten    --      1.7377                41.6684                 0.0843

                     37                     38                     39
                      A                      A                      A
 Frequencies --   1250.9716              1271.1874              1286.6268
 Red. masses --      1.7246                 1.8026                 1.3150
 Frc consts  --      1.5901                 1.7162                 1.2826
 IR Inten    --     17.1598                 0.4329                10.3108

                     40                     41                     42
                      A                      A                      A
 Frequencies --   1315.3961              1319.8410              1349.4306
 Red. masses --      1.7669                 2.6741                 1.9811
 Frc consts  --      1.8013                 2.7445                 2.1254
 IR Inten    --      1.7810                31.6855                61.4882

                     43                     44                     45
                      A                      A                      A
 Frequencies --   1384.4443              1388.6817              1391.7465
 Red. masses --      1.4734                 1.5198                 1.4917
 Frc consts  --      1.6639                 1.7268                 1.7023
 IR Inten    --      9.9847                 6.2018                 5.1326

                     46                     47                     48
                      A                      A                      A
 Frequencies --   1404.2677              1441.4033              1489.4939
 Red. masses --      1.6197                 2.6490                 1.2798
 Frc consts  --      1.8819                 3.2426                 1.6728
 IR Inten    --     23.6876                31.2179                16.8845

                     49                     50                     51
                      A                      A                      A
 Frequencies --   1499.2023              1509.3225              1513.4744
 Red. masses --      1.2431                 1.0888                 1.0833
 Frc consts  --      1.6462                 1.4614                 1.4620
 IR Inten    --      3.7991                 4.4136                18.6362

                     52                     53                     54
                      A                      A                      A
 Frequencies --   1520.3701              1522.4186              1531.8491
 Red. masses --      1.2542                 1.4166                 1.1054
 Frc consts  --      1.7081                 1.9345                 1.5283
 IR Inten    --     23.3318                35.3553                 0.1287

                     55                     56                     57
                      A                      A                      A
 Frequencies --   1544.3790              1558.9902              1620.2844
 Red. masses --      1.4943                 1.4033                 4.5431
 Frc consts  --      2.0999                 2.0096                 7.0272
 IR Inten    --     15.2416               106.7183                 4.9044

                     58                     59                     60
                      A                      A                      A
 Frequencies --   1664.9184              2996.8463              3014.5011
 Red. masses --      5.9263                 1.0545                 1.0686
 Frc consts  --      9.6788                 5.5800                 5.7211
 IR Inten    --     80.8123                84.9781                26.4593

                     61                     62                     63
                      A                      A                      A
 Frequencies --   3018.1526              3030.6041              3037.3055
 Red. masses --      1.0726                 1.0672                 1.0615
 Frc consts  --      5.7565                 5.7751                 5.7695
 IR Inten    --     17.0642                21.3777                34.2949

                     64                     65                     66
                      A                      A                      A
 Frequencies --   3064.6639              3082.6330              3084.4276
 Red. masses --      1.0926                 1.0948                 1.1018
 Frc consts  --      6.0459                 6.1298                 6.1758
 IR Inten    --     42.2359                77.0863                46.3938

                     67                     68                     69
                      A                      A                      A
 Frequencies --   3085.4439              3090.5829              3140.1231
 Red. masses --      1.0839                 1.0946                 1.1002
 Frc consts  --      6.0797                 6.1603                 6.3917
 IR Inten    --     37.5384                31.7351                25.4679

                     70                     71                     72
                      A                      A                      A
 Frequencies --   3154.2881              3184.0976              3589.4956
 Red. masses --      1.0897                 1.0890                 1.0759
 Frc consts  --      6.3882                 6.5051                 8.1673
 IR Inten    --     22.7498                34.3180                 8.8453

 - Thermochemistry -
 -------------------
 Temperature   298.150 Kelvin.  Pressure   1.00000 Atm.
 Atom     1 has atomic number  6 and mass  12.00000

 Molecular mass:   162.11570 amu.
 Principal axes and moments of inertia in atomic units:
                           1         2         3
     Eigenvalues --   715.850593330.731973954.87230
           X            0.99999   0.00405   0.00255
           Y           -0.00405   0.99999  -0.00234
           Z           -0.00256   0.00233   0.99999
 This molecule is an asymmetric top.
 Rotational symmetry number  1.
 Warning -- assumption of classical behavior for rotation
           may cause significant error
 Rotational temperatures (Kelvin)      0.12099     0.02600     0.02190
 Rotational constants (GHZ):           2.52111     0.54185     0.45633
 Zero-point vibrational energy     598749.5 (Joules/Mol)
                                  143.10458 (Kcal/Mol)
 Warning -- explicit consideration of  16 degrees of freedom as
           vibrations may cause significant error
 Vibrational temperatures:     94.30   151.97   173.35   262.32   311.56
          (Kelvin)            340.63   429.41   460.75   510.72   592.46
                              632.07   650.46   675.12   725.09   840.52
                              871.99   910.67  1047.06  1060.57  1076.33
                             1211.53  1263.24  1267.96  1300.29  1341.44
                             1353.46  1389.07  1458.29  1557.94  1578.90
                             1602.69  1668.58  1677.24  1680.84  1718.66
                             1724.05  1799.87  1828.96  1851.17  1892.56
                             1898.96  1941.53  1991.91  1998.00  2002.41
                             2020.43  2073.86  2143.05  2157.02  2171.58
                             2177.55  2187.47  2190.42  2203.99  2222.02
                             2243.04  2331.23  2395.45  4311.79  4337.19
                             4342.45  4360.36  4370.01  4409.37  4435.22
                             4437.80  4439.27  4446.66  4517.94  4538.32
                             4581.21  5164.48

 Zero-point correction=                           0.228052 (Hartree/Particle)
 Thermal correction to Energy=                    0.238702
 Thermal correction to Enthalpy=                  0.239646
 Thermal correction to Gibbs Free Energy=         0.191957
 Sum of electronic and zero-point Energies=           -498.826199
 Sum of electronic and thermal Energies=              -498.815548
 Sum of electronic and thermal Enthalpies=            -498.814604
 Sum of electronic and thermal Free Energies=         -498.862294

                     E (Thermal)             CV                S
                      KCal/Mol        Cal/Mol-Kelvin    Cal/Mol-Kelvin
 Total                  149.788             42.129            100.372
 Electronic               0.000              0.000              0.000
 Translational            0.889              2.981             41.158
 Rotational               0.889              2.981             30.623
 Vibrational            148.011             36.167             28.591
 Vibration     1          0.597              1.971              4.283
 Vibration     2          0.605              1.945              3.348
 Vibration     3          0.609              1.932              3.093
 Vibration     4          0.630              1.864              2.305
 Vibration     5          0.645              1.816              1.988
 Vibration     6          0.656              1.784              1.827
 Vibration     7          0.692              1.677              1.426
 Vibration     8          0.706              1.635              1.309
 Vibration     9          0.731              1.565              1.144
 Vibration    10          0.776              1.445              0.920
 Vibration    11          0.799              1.384              0.829
 Vibration    12          0.811              1.356              0.789
 Vibration    13          0.826              1.318              0.740
 Vibration    14          0.859              1.241              0.648
 Vibration    15          0.941              1.066              0.478
 Vibration    16          0.965              1.019              0.439

 Optimization completed.
    -- Stationary point found.
 Normal termination of Gaussian 16 at Wed Dec  9 17:26:24 2020.

 ----------------------------------------------------------------------
 # B3LYP/6-311++G(d,p) empiricaldispersion=gd3bj scf=xqc pop=npa geom=c
 heck
 ----------------------------------------------------------------------

 --------------------------------------
 CID_23544381_JID_2433_Energie_neutraal
 --------------------------------------
 Structure from the checkpoint file:  "JID_2433.chk"
 Charge =  0 Multiplicity = 1

 SCF Done:  E(RB3LYP) =  -499.186635880     A.U. after   14 cycles
 Normal termination of Gaussian 16 at Wed Dec  9 17:29:21 2020.

 ----------------------------------------------------------------------
 # B3LYP/6-311++G(d,p) empiricaldispersion=gd3bj scf=xqc pop=npa geom=c
 heck
 ----------------------------------------------------------------------

 ------------------------------------
 CID_23544381_JID_2433_Energie_kation
 ------------------------------------
 Structure from the checkpoint file:  "JID_2433.chk"
 Charge =  1 Multiplicity = 2

 SCF Done:  E(UB3LYP) =  -498.913866714     A.U. after   21 cycles
 Normal termination of Gaussian 16 at Wed Dec  9 17:35:05 2020.
 Gaussian 16:  ES64L-G16RevA.03 25-Dec-2016

 ----------------------------------------------------------------------
 # B3LYP/6-311++G(d,p) empiricaldispersion=gd3bj scf=xqc pop=npa geom=c
 heck
 ----------------------------------------------------------------------

 -----------------------------------
 CID_23544381_JID_2433_Energie_anion
 -----------------------------------
 Structure from the checkpoint file:  "JID_2433.chk"
 Charge = -1 Multiplicity = 2

                         Standard orientation:
 ---------------------------------------------------------------------
 Center     Atomic      Atomic             Coordinates (Angstroms)
 Number     Number       Type             X           Y           Z
 ---------------------------------------------------------------------
      1          6           0        4.227336    0.102900    0.144728
      2          7           0        3.088200   -0.756161   -0.120627
      3          6           0        1.791884   -0.255704   -0.060896
      4          6           0        0.690937   -1.121338   -0.006911
      5          6           0       -0.607267   -0.620266    0.009152
      6          6           0       -0.778236    0.776296   -0.035305
      7          6           0       -2.152827    1.412025   -0.063438
      8          6           0       -3.263754    0.455800    0.383511
      9          6           0       -3.110887   -0.899555   -0.313927
     10          6           0       -1.792172   -1.561710    0.100192
     11          7           0        0.266227    1.614288   -0.082381
     12          6           0        1.504862    1.121827   -0.089273
     13          1           0        4.165368    0.626805    1.112511
     14          1           0        4.325137    0.858508   -0.642443
     15          1           0        5.134653   -0.506005    0.133306
     16          1           0        3.177757   -1.691491    0.253658
     17          1           0        0.854419   -2.198369    0.017055
     18          1           0       -2.359009    1.751808   -1.089541
     19          1           0       -2.132206    2.317008    0.553393
     20          1           0       -4.245301    0.895085    0.170687
     21          1           0       -3.211303    0.307720    1.471511
     22          1           0       -3.950209   -1.562584   -0.073467
     23          1           0       -3.123158   -0.749831   -1.402441
     24          1           0       -1.883396   -1.914992    1.138477
     25          1           0       -1.601089   -2.455764   -0.506743
     26          1           0        2.308090    1.853556   -0.121908
 ---------------------------------------------------------------------

 SCF Done:  E(UB3LYP) =  -499.173030091     A.U. after   33 cycles
 SCF Done:  E(UB3LYP) =  -499.173030091     a.u. after    1 cycles

 The electronic state is 2-A.
 Alpha  occ. eigenvalues --  -14.21717 -14.19541 -10.10771 -10.09244 -10.09144
 Alpha  occ. eigenvalues --  -10.08590 -10.07600 -10.07242 -10.07072 -10.07029
 Alpha  occ. eigenvalues --  -10.06831 -10.06799  -0.84186  -0.81574  -0.72960
 Alpha  occ. eigenvalues --   -0.68892  -0.64240  -0.63549  -0.57882  -0.54571
 Alpha  occ. eigenvalues --   -0.51265  -0.50404  -0.45819  -0.41631  -0.40449
 Alpha  occ. eigenvalues --   -0.37947  -0.35681  -0.35230  -0.33766  -0.33271
 Alpha  occ. eigenvalues --   -0.32165  -0.30374  -0.29888  -0.28724  -0.28371
 Alpha  occ. eigenvalues --   -0.27901  -0.26003  -0.23948  -0.22991  -0.22130
 Alpha  occ. eigenvalues --   -0.20295  -0.15598  -0.14685  -0.09938   0.04503
 Alpha virt. eigenvalues --    0.06069   0.07105   0.07692   0.08460   0.08899
 Alpha virt. eigenvalues --    0.08978   0.10068   0.10573   0.10828   0.11215
 Alpha virt. eigenvalues --    0.11545   0.12001   0.13490   0.13754   0.14055

  Beta  occ. eigenvalues --  -14.21684 -14.19514 -10.10779 -10.09198 -10.09149
  Beta  occ. eigenvalues --  -10.08556 -10.07576 -10.07227 -10.07059 -10.07010
  Beta  occ. eigenvalues --  -10.06796 -10.06795  -0.84136  -0.81522  -0.72919
  Beta  occ. eigenvalues --   -0.68842  -0.64195  -0.63512  -0.57793  -0.54509
  Beta  occ. eigenvalues --   -0.51218  -0.50334  -0.45766  -0.41564  -0.40403
  Beta  occ. eigenvalues --   -0.37904  -0.35620  -0.35175  -0.33722  -0.33247
  Beta  occ. eigenvalues --   -0.32112  -0.30312  -0.29836  -0.28678  -0.28332
  Beta  occ. eigenvalues --   -0.27855  -0.25939  -0.23914  -0.22959  -0.22103
  Beta  occ. eigenvalues --   -0.20227  -0.15444  -0.14636  -0.09854
  Beta virt. eigenvalues --    0.06636   0.07382   0.07523   0.08210   0.08986
  Beta virt. eigenvalues --    0.09275   0.09527   0.10198   0.10982   0.11211
  Beta virt. eigenvalues --    0.11586   0.11776   0.12144   0.13723   0.13784

 Mulliken charges and spin densities:
               1          2
     1  C    1.046623  -1.449718
     2  N   -0.283876   0.156399
     3  C    0.910940  -1.360974
     4  C    0.349187  -0.000590
     5  C    0.947940  -0.070393
     6  C   -1.522240  -0.061781
     7  C    0.421978  -0.932180
     8  C   -0.166078  -0.115814
     9  C   -0.146804  -0.142592
    10  C    0.175988  -0.479417
    11  N    0.026608   0.031187
    12  C   -0.472035   0.840750
    13  H   -0.109183   0.254364
    14  H   -0.216117   0.358641
    15  H   -1.005673   1.165046
    16  H   -0.182503   0.439809
    17  H   -0.720039   0.898313
    18  H    0.109444   0.043414
    19  H    0.145492   0.007335
    20  H   -0.114382   0.275663
    21  H    0.051206   0.076572
    22  H   -0.482197   0.657835
    23  H    0.131383  -0.012262
    24  H   -0.150363   0.341665
    25  H    0.092301   0.039399
    26  H    0.162401   0.039330
 Sum of Mulliken charges =  -1.00000   1.00000

 Dipole moment (field-independent basis, Debye):
    X=             -5.5891    Y=              3.9022    Z=             -1.5284  Tot=              6.9858
 Quadrupole moment (field-independent basis, Debye-Ang):
   XX=           -166.9458   YY=           -113.7954   ZZ=            -96.7934
   XY=              7.2846   XZ=              0.8180   YZ=              4.1996

 Summary of Natural Population Analysis:

                                       Natural Population
                Natural  -----------------------------------------------
    Atom  No    Charge         Core      Valence    Rydberg      Total
 -----------------------------------------------------------------------
      C    1   -0.17926      0.99965     2.17027    0.00934     3.17926
      N    2   -0.31117      0.99969     2.79880    0.01269     3.81117
      C    3    0.07240      0.99949     1.91632    0.01180     2.92760
      C    4   -0.09412      0.99948     2.08473    0.00991     3.09412
      C    5   -0.02225      0.99948     2.01349    0.00928     3.02225
      C    6    0.08549      0.99948     1.90220    0.01283     2.91451
      C    7   -0.19873      0.99960     2.19052    0.00861     3.19873
      C    8   -0.19042      0.99964     2.18177    0.00901     3.19042
      C    9   -0.18784      0.99964     2.17937    0.00883     3.18784
      C   10   -0.19599      0.99960     2.18708    0.00930     3.19599
      N   11   -0.22954      0.99968     2.71898    0.01088     3.72954
      C   12    0.00119      0.99955     1.98658    0.01269     2.99881
      H   13    0.08507      0.00000     0.41319    0.00174     0.41493
      H   14    0.09127      0.00000     0.40715    0.00158     0.40873
      H   15    0.10394      0.00000     0.39281    0.00325     0.39606
      H   16    0.18924      0.00000     0.30166    0.00909     0.31076
      H   17    0.10016      0.00000     0.39791    0.00193     0.39984
      H   18    0.09752      0.00000     0.40105    0.00144     0.40248
      H   19    0.10488      0.00000     0.39364    0.00148     0.39512
      H   20    0.09687      0.00000     0.40223    0.00090     0.40313
      H   21    0.09405      0.00000     0.40471    0.00124     0.40595
      H   22    0.10047      0.00000     0.39801    0.00151     0.39953
      H   23    0.09162      0.00000     0.40716    0.00122     0.40838
      H   24    0.10381      0.00000     0.39438    0.00181     0.39619
      H   25    0.10192      0.00000     0.39698    0.00110     0.39808
      H   26    0.08942      0.00000     0.40885    0.00173     0.41058
 =======================================================================
   * Total *   -0.00000     11.99497    31.84987    0.15516    44.00000

 Normal termination of Gaussian 16 at Wed Dec  9 17:44:36 2020.
