 Gaussian 16, Revision A.03,

 -----------------------------------------------------------
 # opt freq B3LYP/6-31G(d) empiricaldispersion=gd3bj scf=xqc
 -----------------------------------------------------------

 -------------------------------
 CID_123310478_JID_8814_neutraal
 -------------------------------
 Symbolic Z-matrix:
 Charge =  0 Multiplicity = 1

 SCF Done:  E(RB3LYP) =  -865.893841145     A.U. after   16 cycles
 SCF Done:  E(RB3LYP) =  -865.928621657     A.U. after   13 cycles
 SCF Done:  E(RB3LYP) =  -865.937511742     A.U. after   13 cycles
 SCF Done:  E(RB3LYP) =  -865.937931905     A.U. after   14 cycles
 SCF Done:  E(RB3LYP) =  -865.944924030     A.U. after   13 cycles
 SCF Done:  E(RB3LYP) =  -865.946893646     A.U. after   13 cycles
 SCF Done:  E(RB3LYP) =  -865.951490158     A.U. after   13 cycles
 SCF Done:  E(RB3LYP) =  -865.957006581     A.U. after   14 cycles
 SCF Done:  E(RB3LYP) =  -865.958819888     A.U. after   13 cycles
 SCF Done:  E(RB3LYP) =  -865.959425252     A.U. after   12 cycles
 SCF Done:  E(RB3LYP) =  -865.959929701     A.U. after    9 cycles
 SCF Done:  E(RB3LYP) =  -865.959934030     A.U. after    9 cycles
 SCF Done:  E(RB3LYP) =  -865.959935816     A.U. after    9 cycles
 SCF Done:  E(RB3LYP) =  -865.959936494     A.U. after    9 cycles
 SCF Done:  E(RB3LYP) =  -865.959936737     A.U. after    7 cycles
 Optimization completed.
    -- Stationary point found.
 Normal termination of Gaussian 16 at Fri Dec 11 22:16:37 2020.

 --------------------------------------------------------------------
 #N Geom=AllCheck Guess=TCheck SCRF=Check GenChk RB3LYP/6-31G(d) Freq
 --------------------------------------------------------------------

 Structure from the checkpoint file:  "JID_8814.chk"
 -------------------------------
 CID_123310478_JID_8814_neutraal
 -------------------------------
 Charge =  0 Multiplicity = 1

 SCF Done:  E(RB3LYP) =  -865.959936737     A.U. after    1 cycles

  Exact polarizability: 173.828  12.130 163.740  -4.232   3.260  79.025
 Approx polarizability: 254.194  20.021 267.053 -13.490   4.768 134.872

                      1                      2                      3
                      A                      A                      A
 Frequencies --     29.2103                49.9233                72.2801
 Red. masses --      5.9775                 5.3953                 7.1825
 Frc consts  --      0.0030                 0.0079                 0.0221
 IR Inten    --      2.9559                 2.8201                 1.9788

                      4                      5                      6
                      A                      A                      A
 Frequencies --    108.0404               124.4889               161.7203
 Red. masses --      7.5602                 5.6154                 6.6784
 Frc consts  --      0.0520                 0.0513                 0.1029
 IR Inten    --      2.9057                 3.3393                 2.4241

                      7                      8                      9
                      A                      A                      A
 Frequencies --    195.0296               205.6918               216.8981
 Red. masses --      5.8119                 4.9562                 4.0605
 Frc consts  --      0.1302                 0.1235                 0.1125
 IR Inten    --      1.5257                 3.3059                 4.3279

                     10                     11                     12
                      A                      A                      A
 Frequencies --    243.9547               252.9525               297.8056
 Red. masses --      1.3569                 3.5056                 6.0580
 Frc consts  --      0.0476                 0.1322                 0.3166
 IR Inten    --      2.4354                 0.8139                 0.1304

                     13                     14                     15
                      A                      A                      A
 Frequencies --    308.4781               320.4266               348.9991
 Red. masses --      4.5206                 6.0588                 2.8891
 Frc consts  --      0.2535                 0.3665                 0.2073
 IR Inten    --      3.7083                21.3290                39.6933

                     16                     17                     18
                      A                      A                      A
 Frequencies --    421.7477               435.1203               445.6019
 Red. masses --      4.4122                 5.8666                 1.5859
 Frc consts  --      0.4624                 0.6544                 0.1855
 IR Inten    --      7.2729                 3.1454                73.5091

                     19                     20                     21
                      A                      A                      A
 Frequencies --    460.2113               488.2065               516.5508
 Red. masses --      4.0632                 1.4311                 5.4644
 Frc consts  --      0.5070                 0.2010                 0.8591
 IR Inten    --     26.4108                84.2177                 2.4287

                     22                     23                     24
                      A                      A                      A
 Frequencies --    572.2576               589.2806               620.1725
 Red. masses --      4.9863                 6.0948                 3.3273
 Frc consts  --      0.9621                 1.2470                 0.7540
 IR Inten    --      5.3101                12.1830                16.2226

                     25                     26                     27
                      A                      A                      A
 Frequencies --    622.8588               649.6731               659.8321
 Red. masses --      3.0297                 4.6539                 4.7222
 Frc consts  --      0.6925                 1.1573                 1.2113
 IR Inten    --     23.2998                71.0474                 3.2242

                     28                     29                     30
                      A                      A                      A
 Frequencies --    677.4713               699.7780               710.6920
 Red. masses --      1.8795                 4.3295                 3.0377
 Frc consts  --      0.5082                 1.2491                 0.9040
 IR Inten    --     45.9877                24.9382                34.6528

                     31                     32                     33
                      A                      A                      A
 Frequencies --    751.2253               782.7300               815.5684
 Red. masses --      9.9731                 5.2859                 2.7744
 Frc consts  --      3.3161                 1.9081                 1.0873
 IR Inten    --     24.2746                 7.7938                 1.1089

                     34                     35                     36
                      A                      A                      A
 Frequencies --    832.8113               839.7487               853.9189
 Red. masses --      1.7114                 1.2809                 2.8186
 Frc consts  --      0.6993                 0.5322                 1.2109
 IR Inten    --     65.4946                 7.4473               100.6469

                     37                     38                     39
                      A                      A                      A
 Frequencies --    897.6560               930.2775               949.3318
 Red. masses --      4.2195                 3.6894                 3.5204
 Frc consts  --      2.0033                 1.8812                 1.8693
 IR Inten    --     18.2662                 4.1242                10.6262

                     40                     41                     42
                      A                      A                      A
 Frequencies --   1044.1510              1062.9045              1081.6163
 Red. masses --      3.4470                 2.5361                 2.3479
 Frc consts  --      2.2142                 1.6881                 1.6183
 IR Inten    --      9.5841                17.0629                 4.6850

                     43                     44                     45
                      A                      A                      A
 Frequencies --   1102.0720              1119.4340              1129.1310
 Red. masses --      1.9006                 2.9221                 2.6601
 Frc consts  --      1.3601                 2.1574                 1.9982
 IR Inten    --      9.3795                80.1742                87.9229

                     46                     47                     48
                      A                      A                      A
 Frequencies --   1138.5228              1148.1641              1174.8481
 Red. masses --      2.8769                 2.0152                 2.5853
 Frc consts  --      2.1971                 1.5653                 2.1024
 IR Inten    --     56.9316                23.5724                 6.2720

                     49                     50                     51
                      A                      A                      A
 Frequencies --   1231.2127              1277.0054              1299.2880
 Red. masses --      3.9036                 2.0178                 2.0046
 Frc consts  --      3.4865                 1.9387                 1.9938
 IR Inten    --     28.4892                 5.9250                 8.7260

                     52                     53                     54
                      A                      A                      A
 Frequencies --   1323.4531              1345.8562              1373.6801
 Red. masses --      5.6083                 1.3520                 1.2504
 Frc consts  --      5.7876                 1.4428                 1.3901
 IR Inten    --     50.0430                 3.8415                15.2306

                     55                     56                     57
                      A                      A                      A
 Frequencies --   1416.9679              1420.0659              1438.7135
 Red. masses --      3.0178                 1.2921                 1.2284
 Frc consts  --      3.5700                 1.5353                 1.4981
 IR Inten    --     23.9099                14.9088                11.2826

                     58                     59                     60
                      A                      A                      A
 Frequencies --   1452.0359              1476.2248              1501.4837
 Red. masses --      4.8169                 5.4251                 4.2762
 Frc consts  --      5.9838                 6.9656                 5.6800
 IR Inten    --     10.9837                74.8616                 9.3968

                     61                     62                     63
                      A                      A                      A
 Frequencies --   1502.2996              1518.3721              1544.5573
 Red. masses --      1.0466                 1.0505                 1.2688
 Frc consts  --      1.3917                 1.4270                 1.7834
 IR Inten    --     17.5906                 4.6476                 3.0652

                     64                     65                     66
                      A                      A                      A
 Frequencies --   1559.3030              1602.6452              1689.9082
 Red. masses --      3.1861                 5.0813                 8.9321
 Frc consts  --      4.5643                 7.6896                15.0290
 IR Inten    --     24.6150                11.1149                16.2963

                     67                     68                     69
                      A                      A                      A
 Frequencies --   1853.9063              2367.2077              3078.9630
 Red. masses --     11.2499                12.6732                 1.0398
 Frc consts  --     22.7810                41.8417                 5.8078
 IR Inten    --    588.7346                 1.1108                 9.9856

                     70                     71                     72
                      A                      A                      A
 Frequencies --   3088.8560              3160.3005              3188.5352
 Red. masses --      1.0839                 1.0975                 1.1044
 Frc consts  --      6.0930                 6.4585                 6.6155
 IR Inten    --      5.5050                12.7915                 3.8988

                     73                     74                     75
                      A                      A                      A
 Frequencies --   3284.6042              3305.4580              3422.5757
 Red. masses --      1.0921                 1.1010                 1.0731
 Frc consts  --      6.9421                 7.0874                 7.4062
 IR Inten    --      0.1795                 4.0185                15.3963

                     76                     77                     78
                      A                      A                      A
 Frequencies --   3436.0527              3640.9536              3667.5965
 Red. masses --      1.0754                 1.0794                 1.0804
 Frc consts  --      7.4805                 8.4309                 8.5628
 IR Inten    --      2.9691                68.9668                80.8255

 - Thermochemistry -
 -------------------
 Temperature   298.150 Kelvin.  Pressure   1.00000 Atm.
 Atom     1 has atomic number  6 and mass  12.00000

 Molecular mass:   246.08652 amu.
 Principal axes and moments of inertia in atomic units:
                           1         2         3
     Eigenvalues --  2757.856014704.106577018.74507
           X            0.99999  -0.00396   0.00044
           Y            0.00396   0.99995   0.00890
           Z           -0.00047  -0.00890   0.99996
 This molecule is an asymmetric top.
 Rotational symmetry number  1.
 Warning -- assumption of classical behavior for rotation
           may cause significant error
 Rotational temperatures (Kelvin)      0.03141     0.01841     0.01234
 Rotational constants (GHZ):           0.65440     0.38365     0.25713
 Zero-point vibrational energy     554035.8 (Joules/Mol)
                                  132.41773 (Kcal/Mol)
 Warning -- explicit consideration of  24 degrees of freedom as
           vibrations may cause significant error
 Vibrational temperatures:     42.03    71.83   103.99   155.45   179.11
          (Kelvin)            232.68   280.60   295.94   312.07   351.00
                              363.94   428.48   443.83   461.02   502.13
                              606.80   626.04   641.12   662.14   702.42
                              743.20   823.35   847.84   892.29   896.15
                              934.73   949.35   974.73  1006.82  1022.53
                             1080.85  1126.17  1173.42  1198.23  1208.21
                             1228.60  1291.53  1338.46  1365.88  1502.30
                             1529.28  1556.20  1585.64  1610.62  1624.57
                             1638.08  1651.95  1690.34  1771.44  1837.33
                             1869.39  1904.15  1936.39  1976.42  2038.70
                             2043.16  2069.99  2089.16  2123.96  2160.30
                             2161.47  2184.60  2222.27  2243.49  2305.85
                             2431.40  2667.36  3405.88  4429.94  4444.17
                             4546.97  4587.59  4725.81  4755.82  4924.32
                             4943.71  5238.52  5276.85

 Zero-point correction=                           0.211021 (Hartree/Particle)
 Thermal correction to Energy=                    0.226335
 Thermal correction to Enthalpy=                  0.227279
 Thermal correction to Gibbs Free Energy=         0.168156
 Sum of electronic and zero-point Energies=           -865.748916
 Sum of electronic and thermal Energies=              -865.733602
 Sum of electronic and thermal Enthalpies=            -865.732658
 Sum of electronic and thermal Free Energies=         -865.791781

                     E (Thermal)             CV                S
                      KCal/Mol        Cal/Mol-Kelvin    Cal/Mol-Kelvin
 Total                  142.027             59.138            124.434
 Electronic               0.000              0.000              0.000
 Translational            0.889              2.981             42.402
 Rotational               0.889              2.981             32.876
 Vibrational            140.250             53.176             49.156
 Vibration     1          0.593              1.984              5.882
 Vibration     2          0.595              1.978              4.820
 Vibration     3          0.598              1.967              4.090
 Vibration     4          0.606              1.943              3.304
 Vibration     5          0.610              1.929              3.029
 Vibration     6          0.622              1.889              2.530
 Vibration     7          0.636              1.847              2.179
 Vibration     8          0.640              1.832              2.082
 Vibration     9          0.646              1.815              1.985
 Vibration    10          0.659              1.773              1.774
 Vibration    11          0.664              1.758              1.710
 Vibration    12          0.691              1.678              1.429
 Vibration    13          0.698              1.658              1.370
 Vibration    14          0.706              1.634              1.308
 Vibration    15          0.726              1.577              1.171
 Vibration    16          0.784              1.423              0.886
 Vibration    17          0.796              1.394              0.842
 Vibration    18          0.805              1.371              0.809
 Vibration    19          0.818              1.338              0.765
 Vibration    20          0.844              1.276              0.688
 Vibration    21          0.872              1.213              0.618
 Vibration    22          0.928              1.091              0.500
 Vibration    23          0.947              1.055              0.468
 Vibration    24          0.980              0.989              0.416

                           ! Non-Optimized Parameters !
 Normal termination of Gaussian 16 at Fri Dec 11 22:27:03 2020.

 ----------------------------------------------------------------------
 # B3LYP/6-311++G(d,p) empiricaldispersion=gd3bj scf=xqc pop=npa geom=c
 heck
 ----------------------------------------------------------------------

 ---------------------------------------
 CID_123310478_JID_8814_Energie_neutraal
 ---------------------------------------
 Structure from the checkpoint file:  "JID_8814.chk"
 Charge =  0 Multiplicity = 1

 SCF Done:  E(RB3LYP) =  -866.208722580     A.U. after   17 cycles
 Normal termination of Gaussian 16 at Fri Dec 11 22:31:29 2020.

 ----------------------------------------------------------------------
 # B3LYP/6-311++G(d,p) empiricaldispersion=gd3bj scf=xqc pop=npa geom=c
 heck
 ----------------------------------------------------------------------

 -------------------------------------
 CID_123310478_JID_8814_Energie_kation
 -------------------------------------
 Structure from the checkpoint file:  "JID_8814.chk"
 Charge =  1 Multiplicity = 2

 SCF Done:  E(UB3LYP) =  -865.953906186     A.U. after   22 cycles
 Normal termination of Gaussian 16 at Fri Dec 11 22:39:12 2020.
 Gaussian 16:  ES64L-G16RevA.03 25-Dec-2016

 ----------------------------------------------------------------------
 # B3LYP/6-311++G(d,p) empiricaldispersion=gd3bj scf=xqc pop=npa geom=c
 heck
 ----------------------------------------------------------------------

 ------------------------------------
 CID_123310478_JID_8814_Energie_anion
 ------------------------------------
 Structure from the checkpoint file:  "JID_8814.chk"
 Charge = -1 Multiplicity = 2

                         Standard orientation:
 ---------------------------------------------------------------------
 Center     Atomic      Atomic             Coordinates (Angstroms)
 Number     Number       Type             X           Y           Z
 ---------------------------------------------------------------------
      1          6           0        3.843613   -0.552166    0.142496
      2          6           0        2.640069   -1.242819   -0.495004
      3          6           0        1.994274   -2.171877    0.454374
      4          7           0        1.511947   -2.913238    1.205171
      5          8           0        1.681300   -0.344878   -1.077740
      6          7           0        1.052566    0.459111   -0.111027
      7          6           0       -0.355503    0.451866   -0.037771
      8          6           0       -0.733686    1.714665    0.284767
      9          7           0        0.402839    2.525724    0.386152
     10          6           0        1.520141    1.805571   -0.019291
     11          8           0        2.644409    2.211661   -0.237191
     12          7           0       -2.052905    2.135217    0.560798
     13          7           0       -3.032350    1.318210   -0.112536
     14          6           0       -2.665536   -0.053718   -0.135243
     15          6           0       -1.373289   -0.568075   -0.122739
     16          6           0       -1.489456   -1.990749   -0.154529
     17          6           0       -2.836439   -2.284904   -0.192639
     18          7           0       -3.547549   -1.098580   -0.170294
     19          1           0        3.545550    0.012680    1.027107
     20          1           0        4.281054    0.141352   -0.576715
     21          1           0        4.581556   -1.306802    0.433837
     22          1           0        2.959698   -1.822935   -1.367556
     23          1           0        0.398411    3.535384    0.348213
     24          1           0       -2.271482    2.120136    1.558828
     25          1           0       -3.123325    1.702298   -1.054276
     26          1           0       -0.685963   -2.709305   -0.120717
     27          1           0       -3.346763   -3.235442   -0.224212
     28          1           0       -4.551366   -1.003515   -0.159436
 ---------------------------------------------------------------------

 SCF Done:  E(UB3LYP) =  -866.200430919     A.U. after   33 cycles
 SCF Done:  E(UB3LYP) =  -866.200430919     a.u. after    1 cycles

 The electronic state is 2-A.
 Alpha  occ. eigenvalues --  -19.10700 -19.01291 -14.31827 -14.27581 -14.27030
 Alpha  occ. eigenvalues --  -14.26552 -14.26384 -14.23652 -10.21898 -10.19217
 Alpha  occ. eigenvalues --  -10.14511 -10.13064 -10.13063 -10.12102 -10.09957
 Alpha  occ. eigenvalues --  -10.09281 -10.08076 -10.06668  -1.03839  -0.96772
 Alpha  occ. eigenvalues --   -0.92893  -0.89648  -0.87699  -0.83185  -0.79928
 Alpha  occ. eigenvalues --   -0.73191  -0.71516  -0.69644  -0.65427  -0.60105
 Alpha  occ. eigenvalues --   -0.58549  -0.55737  -0.53912  -0.50343  -0.49244
 Alpha  occ. eigenvalues --   -0.47187  -0.46393  -0.44352  -0.43616  -0.41675
 Alpha  occ. eigenvalues --   -0.39831  -0.38650  -0.37259  -0.36493  -0.35804
 Alpha  occ. eigenvalues --   -0.34781  -0.34103  -0.32414  -0.32284  -0.31300
 Alpha  occ. eigenvalues --   -0.30789  -0.29998  -0.28684  -0.26904  -0.26303
 Alpha  occ. eigenvalues --   -0.25484  -0.23437  -0.22608  -0.20485  -0.19483
 Alpha  occ. eigenvalues --   -0.19117  -0.17193  -0.12830  -0.09013   0.03834
 Alpha virt. eigenvalues --    0.05252   0.06004   0.07211   0.07871   0.08055
 Alpha virt. eigenvalues --    0.08244   0.08995   0.09366   0.09685   0.10500
 Alpha virt. eigenvalues --    0.10949   0.11400   0.12335   0.12642   0.13002

  Beta  occ. eigenvalues --  -19.10692 -19.01277 -14.31824 -14.27564 -14.27007
  Beta  occ. eigenvalues --  -14.26502 -14.26352 -14.23629 -10.21887 -10.19195
  Beta  occ. eigenvalues --  -10.14507 -10.13067 -10.13054 -10.12103 -10.09943
  Beta  occ. eigenvalues --  -10.09264 -10.08067 -10.06668  -1.03823  -0.96746
  Beta  occ. eigenvalues --   -0.92862  -0.89616  -0.87656  -0.83143  -0.79900
  Beta  occ. eigenvalues --   -0.73138  -0.71470  -0.69592  -0.65393  -0.60065
  Beta  occ. eigenvalues --   -0.58498  -0.55694  -0.53875  -0.50313  -0.49171
  Beta  occ. eigenvalues --   -0.47144  -0.46354  -0.44311  -0.43562  -0.41624
  Beta  occ. eigenvalues --   -0.39774  -0.38618  -0.37210  -0.36447  -0.35773
  Beta  occ. eigenvalues --   -0.34748  -0.34079  -0.32385  -0.32249  -0.31282
  Beta  occ. eigenvalues --   -0.30754  -0.29971  -0.28644  -0.26856  -0.26217
  Beta  occ. eigenvalues --   -0.25457  -0.23406  -0.22597  -0.20458  -0.19449
  Beta  occ. eigenvalues --   -0.19087  -0.17171  -0.12805  -0.08979
  Beta virt. eigenvalues --    0.05887   0.06431   0.07200   0.07392   0.08423
  Beta virt. eigenvalues --    0.08497   0.08670   0.09183   0.09573   0.10267
  Beta virt. eigenvalues --    0.10659   0.11074   0.11510   0.12367   0.12742

 Mulliken charges and spin densities:
               1          2
     1  C    0.134888  -0.788330
     2  C   -0.177562   0.704151
     3  C    0.386879  -0.719256
     4  N   -0.260961   0.008545
     5  O    0.125744  -0.027837
     6  N   -0.284623   0.017402
     7  C    2.106459  -1.606655
     8  C   -1.000764   0.063732
     9  N   -0.192856  -0.099269
    10  C    0.358801  -0.094262
    11  O   -0.359844   0.008046
    12  N   -0.387375   0.285127
    13  N   -0.047705  -0.019610
    14  C   -2.053295   1.763083
    15  C    4.144714  -3.452629
    16  C   -1.608755   1.552837
    17  C    0.060454  -0.674178
    18  N   -0.095045  -0.119384
    19  H    0.062047   0.146825
    20  H    0.132372   0.072360
    21  H   -0.079756   0.219378
    22  H   -0.523005   0.757997
    23  H   -0.012851   0.342284
    24  H   -0.184833   0.474932
    25  H   -0.291230   0.598867
    26  H    0.092659   0.037981
    27  H   -0.362125   0.523178
    28  H   -0.682433   1.024683
 Sum of Mulliken charges =  -1.00000   1.00000

 Dipole moment (field-independent basis, Debye):
    X=              4.7524    Y=              1.4049    Z=              0.3803  Tot=              4.9703
 Quadrupole moment (field-independent basis, Debye-Ang):
   XX=           -189.5076   YY=           -151.4241   ZZ=           -131.7785
   XY=             -2.9581   XZ=              0.9453   YZ=              3.7351

 Summary of Natural Population Analysis:

                                       Natural Population
                Natural  -----------------------------------------------
    Atom  No    Charge         Core      Valence    Rydberg      Total
 -----------------------------------------------------------------------
      C    1   -0.29406      0.99964     2.28731    0.00711     3.29406
      C    2    0.01969      0.99947     1.96629    0.01455     2.98031
      C    3    0.14456      0.99963     1.83804    0.01777     2.85544
      N    4   -0.16691      0.99979     2.65583    0.01129     3.66691
      O    5   -0.19601      0.99989     3.18596    0.01016     4.19601
      N    6   -0.09787      0.99956     2.58494    0.01337     3.59787
      C    7    0.04335      0.99934     1.94425    0.01306     2.95665
      C    8    0.14996      0.99940     1.83693    0.01371     2.85004
      N    9   -0.30760      0.99964     2.79872    0.00925     3.80760
      C   10    0.39915      0.99969     1.57780    0.02336     2.60085
      O   11   -0.31993      0.99987     3.31411    0.00595     4.31993
      N   12   -0.23559      0.99970     2.72170    0.01419     3.73559
      N   13   -0.23521      0.99970     2.72111    0.01440     3.73521
      C   14    0.16147      0.99945     1.82421    0.01487     2.83853
      C   15   -0.08583      0.99943     2.07535    0.01105     3.08583
      C   16   -0.13352      0.99954     2.12458    0.00940     3.13352
      C   17   -0.01970      0.99958     2.00668    0.01344     3.01970
      N   18   -0.26177      0.99965     2.75128    0.01083     3.76177
      H   19    0.11012      0.00000     0.38862    0.00125     0.38988
      H   20    0.11615      0.00000     0.38292    0.00093     0.38385
      H   21    0.10444      0.00000     0.39444    0.00112     0.39556
      H   22    0.11535      0.00000     0.38157    0.00308     0.38465
      H   23    0.20676      0.00000     0.29012    0.00312     0.29324
      H   24    0.17933      0.00000     0.31759    0.00307     0.32067
      H   25    0.17964      0.00000     0.31631    0.00405     0.32036
      H   26    0.11263      0.00000     0.38583    0.00154     0.38737
      H   27    0.10107      0.00000     0.39794    0.00099     0.39893
      H   28    0.21035      0.00000     0.26968    0.01997     0.28965
 =======================================================================
   * Total *   -0.00000     17.99297    45.74016    0.26687    64.00000

 Normal termination of Gaussian 16 at Fri Dec 11 22:50:55 2020.
