 Gaussian 16, Revision A.03,

 -----------------------------------------------------------
 # opt freq B3LYP/6-31G(d) empiricaldispersion=gd3bj scf=xqc
 -----------------------------------------------------------

 -------------------------------
 CID_115699077_JID_4672_neutraal
 -------------------------------
 Symbolic Z-matrix:
 Charge =  0 Multiplicity = 1

 SCF Done:  E(RB3LYP) =  -635.814773494     A.U. after   14 cycles
 SCF Done:  E(RB3LYP) =  -635.819181902     A.U. after   12 cycles
 SCF Done:  E(RB3LYP) =  -635.818140845     A.U. after   12 cycles
 SCF Done:  E(RB3LYP) =  -635.820099348     A.U. after   11 cycles
 SCF Done:  E(RB3LYP) =  -635.820576652     A.U. after   11 cycles
 SCF Done:  E(RB3LYP) =  -635.820644958     A.U. after   11 cycles
 SCF Done:  E(RB3LYP) =  -635.820599052     A.U. after   11 cycles
 SCF Done:  E(RB3LYP) =  -635.820874522     A.U. after   11 cycles
 SCF Done:  E(RB3LYP) =  -635.820871283     A.U. after   10 cycles
 SCF Done:  E(RB3LYP) =  -635.820888870     A.U. after   10 cycles
 SCF Done:  E(RB3LYP) =  -635.820902249     A.U. after    9 cycles
 SCF Done:  E(RB3LYP) =  -635.820903001     A.U. after    8 cycles
 SCF Done:  E(RB3LYP) =  -635.820903295     A.U. after    7 cycles
 SCF Done:  E(RB3LYP) =  -635.820903350     A.U. after    7 cycles
 Optimization completed.
    -- Stationary point found.
 Normal termination of Gaussian 16 at Thu Dec 10 10:22:28 2020.

 --------------------------------------------------------------------
 #N Geom=AllCheck Guess=TCheck SCRF=Check GenChk RB3LYP/6-31G(d) Freq
 --------------------------------------------------------------------

 Structure from the checkpoint file:  "JID_4672.chk"
 -------------------------------
 CID_115699077_JID_4672_neutraal
 -------------------------------
 Charge =  0 Multiplicity = 1

 SCF Done:  E(RB3LYP) =  -635.820903350     A.U. after    1 cycles

  Exact polarizability: 145.519   2.784 116.709   5.650  -8.980 104.879
 Approx polarizability: 193.082  12.407 179.660  10.594 -15.016 159.681

                      1                      2                      3
                      A                      A                      A
 Frequencies --     39.4641                63.6489                76.1016
 Red. masses --      4.2152                 4.3824                 3.8781
 Frc consts  --      0.0039                 0.0105                 0.0132
 IR Inten    --      0.9486                 2.6047                 0.6421

                      4                      5                      6
                      A                      A                      A
 Frequencies --     78.1882               138.6473               151.2374
 Red. masses --      4.0701                 3.8837                 2.0612
 Frc consts  --      0.0147                 0.0440                 0.0278
 IR Inten    --      1.1946                 0.9340                 1.2554

                      7                      8                      9
                      A                      A                      A
 Frequencies --    180.2633               215.3196               237.0402
 Red. masses --      2.3907                 1.9554                 2.7496
 Frc consts  --      0.0458                 0.0534                 0.0910
 IR Inten    --      0.3072                 0.3712                 0.5684

                     10                     11                     12
                      A                      A                      A
 Frequencies --    245.2170               276.4017               303.0863
 Red. masses --      1.7377                 3.5765                 1.3960
 Frc consts  --      0.0616                 0.1610                 0.0756
 IR Inten    --      0.8340                 0.9116                 0.5338

                     13                     14                     15
                      A                      A                      A
 Frequencies --    325.7138               342.6829               347.7329
 Red. masses --      1.9529                 2.5998                 2.0054
 Frc consts  --      0.1221                 0.1799                 0.1429
 IR Inten    --      0.0081                 0.5150                 2.4067

                     16                     17                     18
                      A                      A                      A
 Frequencies --    424.6765               433.2254               463.8716
 Red. masses --      2.3355                 1.9666                 2.4384
 Frc consts  --      0.2482                 0.2175                 0.3091
 IR Inten    --      7.2377                 4.0266                 9.6153

                     19                     20                     21
                      A                      A                      A
 Frequencies --    513.5821               590.2342               617.3344
 Red. masses --      3.0260                 2.3645                 3.3056
 Frc consts  --      0.4703                 0.4853                 0.7422
 IR Inten    --      0.7992                15.9250                 4.3717

                     22                     23                     24
                      A                      A                      A
 Frequencies --    620.1146               651.8743               697.9073
 Red. masses --      4.0654                 1.9481                 2.7019
 Frc consts  --      0.9211                 0.4877                 0.7754
 IR Inten    --     11.6016                91.5914                 3.3792

                     25                     26                     27
                      A                      A                      A
 Frequencies --    724.8953               754.2769               780.8239
 Red. masses --      1.3256                 1.7490                 1.3247
 Frc consts  --      0.4104                 0.5863                 0.4759
 IR Inten    --      3.4579                87.7952                11.8466

                     28                     29                     30
                      A                      A                      A
 Frequencies --    788.9205               831.6050               841.2229
 Red. masses --      1.5295                 1.6575                 1.3128
 Frc consts  --      0.5609                 0.6754                 0.5474
 IR Inten    --     41.4667                19.7335                 6.6589

                     31                     32                     33
                      A                      A                      A
 Frequencies --    871.9063               893.3709               897.3049
 Red. masses --      1.9932                 2.0124                 3.2640
 Frc consts  --      0.8928                 0.9463                 1.5484
 IR Inten    --      1.5653                47.5494                 3.9816

                     34                     35                     36
                      A                      A                      A
 Frequencies --    916.3401               984.7515               994.3726
 Red. masses --      1.7902                 1.9593                 2.2930
 Frc consts  --      0.8857                 1.1195                 1.3358
 IR Inten    --      2.6768                 1.5878                 9.3510

                     37                     38                     39
                      A                      A                      A
 Frequencies --   1001.7898              1030.3176              1044.8880
 Red. masses --      1.8194                 1.7923                 1.9764
 Frc consts  --      1.0758                 1.1210                 1.2713
 IR Inten    --     17.0499                 2.3017                 2.8432

                     40                     41                     42
                      A                      A                      A
 Frequencies --   1067.1359              1069.1798              1095.4255
 Red. masses --      1.8374                 1.8692                 2.0183
 Frc consts  --      1.2328                 1.2589                 1.4269
 IR Inten    --      6.7863                20.7356                11.3765

                     43                     44                     45
                      A                      A                      A
 Frequencies --   1102.4462              1114.6731              1125.0048
 Red. masses --      2.4518                 2.9946                 2.9446
 Frc consts  --      1.7557                 2.1922                 2.1958
 IR Inten    --     31.0036                64.1786                14.0241

                     46                     47                     48
                      A                      A                      A
 Frequencies --   1182.0668              1197.3244              1206.8206
 Red. masses --      2.2183                 2.0412                 2.4221
 Frc consts  --      1.8262                 1.7240                 2.0784
 IR Inten    --     37.5736                 1.8760                39.5270

                     49                     50                     51
                      A                      A                      A
 Frequencies --   1218.6772              1254.2709              1276.1432
 Red. masses --      2.2392                 1.2649                 1.3124
 Frc consts  --      1.9593                 1.1724                 1.2593
 IR Inten    --     16.0927                 9.2586                 2.1994

                     52                     53                     54
                      A                      A                      A
 Frequencies --   1284.0077              1294.5898              1328.5596
 Red. masses --      1.5439                 1.8066                 1.3651
 Frc consts  --      1.4997                 1.7839                 1.4196
 IR Inten    --      4.5718                 1.4019                 1.1287

                     55                     56                     57
                      A                      A                      A
 Frequencies --   1354.2617              1390.4084              1394.8815
 Red. masses --      1.2936                 1.4190                 1.4215
 Frc consts  --      1.3979                 1.6163                 1.6296
 IR Inten    --      7.0304                 2.0372                13.0924

                     58                     59                     60
                      A                      A                      A
 Frequencies --   1400.3675              1418.5739              1433.3780
 Red. masses --      1.4599                 1.2712                 2.5597
 Frc consts  --      1.6868                 1.5072                 3.0986
 IR Inten    --      0.8099                 6.7892                 9.3694

                     61                     62                     63
                      A                      A                      A
 Frequencies --   1438.8687              1447.5737              1490.3104
 Red. masses --      1.2611                 1.2218                 1.1142
 Frc consts  --      1.5383                 1.5085                 1.4580
 IR Inten    --      6.1859                 3.2718                 9.9091

                     64                     65                     66
                      A                      A                      A
 Frequencies --   1506.8075              1515.7879              1516.2657
 Red. masses --      1.0729                 1.0683                 1.0829
 Frc consts  --      1.4353                 1.4461                 1.4669
 IR Inten    --      2.9650                 4.7991                 0.5431

                     67                     68                     69
                      A                      A                      A
 Frequencies --   1524.1586              1527.3608              1532.2392
 Red. masses --      1.1670                 1.0772                 1.0497
 Frc consts  --      1.5973                 1.4805                 1.4520
 IR Inten    --    107.0196                 8.5610                11.2709

                     70                     71                     72
                      A                      A                      A
 Frequencies --   1542.5636              1549.5966              1550.0582
 Red. masses --      1.1373                 1.2831                 2.4115
 Frc consts  --      1.5944                 1.8153                 3.4138
 IR Inten    --     17.4683                 4.5147                18.8759

                     73                     74                     75
                      A                      A                      A
 Frequencies --   1552.8367              1644.1281              2975.9333
 Red. masses --      1.1077                 5.5747                 1.0729
 Frc consts  --      1.5737                 8.8786                 5.5985
 IR Inten    --      0.3893                 2.2646                66.0818

                     76                     77                     78
                      A                      A                      A
 Frequencies --   3026.0403              3042.0287              3047.1922
 Red. masses --      1.0615                 1.0720                 1.0540
 Frc consts  --      5.7271                 5.8446                 5.7664
 IR Inten    --     22.6494                32.7523                36.6985

                     79                     80                     81
                      A                      A                      A
 Frequencies --   3050.8736              3064.0199              3068.0352
 Red. masses --      1.0497                 1.0402                 1.0914
 Frc consts  --      5.7564                 5.7535                 6.0526
 IR Inten    --     15.2729                30.4155                69.9237

                     82                     83                     84
                      A                      A                      A
 Frequencies --   3071.9699              3084.1384              3106.5389
 Red. masses --      1.0979                 1.1017                 1.1018
 Frc consts  --      6.1045                 6.1742                 6.2650
 IR Inten    --     31.1340                20.7472                41.2486

                     85                     86                     87
                      A                      A                      A
 Frequencies --   3121.6278              3122.9760              3151.4880
 Red. masses --      1.0964                 1.0967                 1.0978
 Frc consts  --      6.2948                 6.3021                 6.4242
 IR Inten    --     43.7550                11.7843                31.5530

                     88                     89                     90
                      A                      A                      A
 Frequencies --   3166.4979              3258.0867              3292.9844
 Red. masses --      1.0962                 1.0925                 1.0971
 Frc consts  --      6.4757                 6.8330                 7.0092
 IR Inten    --     17.5187                 1.6836                 0.8993

                     91                     92                     93
                      A                      A                      A
 Frequencies --   3302.6339              3480.8939              3499.3693
 Red. masses --      1.1042                 1.0735                 1.0658
 Frc consts  --      7.0963                 7.6636                 7.6899
 IR Inten    --      0.9610                 2.7958               406.2505

 - Thermochemistry -
 -------------------
 Temperature   298.150 Kelvin.  Pressure   1.00000 Atm.
 Atom     1 has atomic number  6 and mass  12.00000

 Molecular mass:   197.14158 amu.
 Principal axes and moments of inertia in atomic units:
                           1         2         3
     Eigenvalues --  1452.230774658.954975096.75372
           X            0.99996  -0.00872  -0.00358
           Y            0.00857   0.99914  -0.04065
           Z            0.00393   0.04062   0.99917
 This molecule is an asymmetric top.
 Rotational symmetry number  1.
 Warning -- assumption of classical behavior for rotation
           may cause significant error
 Rotational temperatures (Kelvin)      0.05964     0.01859     0.01699
 Rotational constants (GHZ):           1.24274     0.38737     0.35410
 Zero-point vibrational energy     770816.4 (Joules/Mol)
                                  184.22953 (Kcal/Mol)
 Warning -- explicit consideration of  22 degrees of freedom as
           vibrations may cause significant error
 Vibrational temperatures:     56.78    91.58   109.49   112.50   199.48
          (Kelvin)            217.60   259.36   309.80   341.05   352.81
                              397.68   436.07   468.63   493.04   500.31
                              611.01   623.31   667.41   738.93   849.22
                              888.21   892.21   937.90  1004.13  1042.96
                             1085.24  1123.43  1135.08  1196.49  1210.33
                             1254.48  1285.36  1291.02  1318.41  1416.84
                             1430.68  1441.35  1482.40  1503.36  1535.37
                             1538.31  1576.07  1586.17  1603.77  1618.63
                             1700.73  1722.68  1736.35  1753.40  1804.62
                             1836.09  1847.40  1862.63  1911.50  1948.48
                             2000.49  2006.92  2014.82  2041.01  2062.31
                             2070.21  2082.74  2144.22  2167.96  2180.88
                             2181.57  2192.92  2197.53  2204.55  2219.41
                             2229.52  2230.19  2234.19  2365.53  4281.70
                             4353.80  4376.80  4384.23  4389.53  4408.44
                             4414.22  4419.88  4437.39  4469.62  4491.33
                             4493.27  4534.29  4555.88  4687.66  4737.87
                             4751.75  5008.23  5034.81

 Zero-point correction=                           0.293588 (Hartree/Particle)
 Thermal correction to Energy=                    0.308091
 Thermal correction to Enthalpy=                  0.309035
 Thermal correction to Gibbs Free Energy=         0.252213
 Sum of electronic and zero-point Energies=           -635.527315
 Sum of electronic and thermal Energies=              -635.512812
 Sum of electronic and thermal Enthalpies=            -635.511868
 Sum of electronic and thermal Free Energies=         -635.568690

                     E (Thermal)             CV                S
                      KCal/Mol        Cal/Mol-Kelvin    Cal/Mol-Kelvin
 Total                  193.330             56.058            119.593
 Electronic               0.000              0.000              0.000
 Translational            0.889              2.981             41.741
 Rotational               0.889              2.981             31.911
 Vibrational            191.553             50.097             45.940
 Vibration     1          0.594              1.981              5.286
 Vibration     2          0.597              1.972              4.341
 Vibration     3          0.599              1.965              3.989
 Vibration     4          0.599              1.964              3.936
 Vibration     5          0.614              1.915              2.822
 Vibration     6          0.619              1.901              2.657
 Vibration     7          0.629              1.866              2.326
 Vibration     8          0.645              1.818              1.998
 Vibration     9          0.656              1.784              1.825
 Vibration    10          0.660              1.771              1.765
 Vibration    11          0.678              1.717              1.556
 Vibration    12          0.695              1.668              1.400
 Vibration    13          0.710              1.624              1.281
 Vibration    14          0.722              1.590              1.200
 Vibration    15          0.725              1.580              1.176
 Vibration    16          0.787              1.417              0.876
 Vibration    17          0.794              1.398              0.848
 Vibration    18          0.821              1.330              0.755
 Vibration    19          0.869              1.220              0.625
 Vibration    20          0.948              1.053              0.467
 Vibration    21          0.977              0.995              0.421
 Vibration    22          0.980              0.989              0.416

 Optimization completed.
    -- Stationary point found.
 Normal termination of Gaussian 16 at Thu Dec 10 10:32:46 2020.

 ----------------------------------------------------------------------
 # B3LYP/6-311++G(d,p) empiricaldispersion=gd3bj scf=xqc pop=npa geom=c
 heck
 ----------------------------------------------------------------------

 ---------------------------------------
 CID_115699077_JID_4672_Energie_neutraal
 ---------------------------------------
 Structure from the checkpoint file:  "JID_4672.chk"
 Charge =  0 Multiplicity = 1

 SCF Done:  E(RB3LYP) =  -636.012157841     A.U. after   15 cycles
 Normal termination of Gaussian 16 at Thu Dec 10 10:39:27 2020.

 ----------------------------------------------------------------------
 # B3LYP/6-311++G(d,p) empiricaldispersion=gd3bj scf=xqc pop=npa geom=c
 heck
 ----------------------------------------------------------------------

 -------------------------------------
 CID_115699077_JID_4672_Energie_kation
 -------------------------------------
 Structure from the checkpoint file:  "JID_4672.chk"
 Charge =  1 Multiplicity = 2

 SCF Done:  E(UB3LYP) =  -635.709266263     A.U. after   27 cycles
 Normal termination of Gaussian 16 at Thu Dec 10 10:55:50 2020.
 Gaussian 16:  ES64L-G16RevA.03 25-Dec-2016

 ----------------------------------------------------------------------
 # B3LYP/6-311++G(d,p) empiricaldispersion=gd3bj scf=xqc pop=npa geom=c
 heck
 ----------------------------------------------------------------------

 ------------------------------------
 CID_115699077_JID_4672_Energie_anion
 ------------------------------------
 Structure from the checkpoint file:  "JID_4672.chk"
 Charge = -1 Multiplicity = 2

                         Standard orientation:
 ---------------------------------------------------------------------
 Center     Atomic      Atomic             Coordinates (Angstroms)
 Number     Number       Type             X           Y           Z
 ---------------------------------------------------------------------
      1          6           0       -0.322010    2.623351   -0.411807
      2          6           0       -1.456011    1.595546   -0.306966
      3          6           0       -1.183353    0.301083    0.504729
      4          6           0       -0.244137    0.568079    1.695734
      5          6           0       -2.523700   -0.242383    1.069547
      6          6           0       -3.627276   -0.516101    0.040440
      7          8           0       -3.297840   -1.550376   -0.867079
      8          7           0       -0.681358   -0.772179   -0.404748
      9          6           0        0.497615   -0.564923   -1.255465
     10          6           0        1.837357   -0.456070   -0.573644
     11          6           0        2.790728    0.501767   -0.752520
     12          8           0        3.890358    0.247370    0.017952
     13          6           0        3.629533   -0.902577    0.703706
     14          6           0        2.397732   -1.378937    0.381861
     15          1           0       -0.079223    3.051963    0.565640
     16          1           0       -0.628051    3.447816   -1.065303
     17          1           0        0.601404    2.202063   -0.816075
     18          1           0       -2.313044    2.100522    0.155141
     19          1           0       -1.789631    1.303214   -1.309671
     20          1           0       -0.674103    1.325547    2.361940
     21          1           0       -0.105323   -0.349060    2.280167
     22          1           0        0.740664    0.911551    1.377022
     23          1           0       -2.321566   -1.176166    1.613897
     24          1           0       -2.895897    0.477412    1.810426
     25          1           0       -4.535390   -0.829120    0.569810
     26          1           0       -3.880463    0.418305   -0.489704
     27          1           0       -2.359800   -1.376925   -1.101198
     28          1           0       -0.544508   -1.615638    0.151474
     29          1           0        0.522237   -1.421428   -1.941834
     30          1           0        0.322858    0.313932   -1.880627
     31          1           0        2.845701    1.385412   -1.369747
     32          1           0        4.411508   -1.239954    1.366419
     33          1           0        1.933120   -2.273145    0.774794
 ---------------------------------------------------------------------

 SCF Done:  E(UB3LYP) =  -635.998602608     A.U. after   33 cycles
 SCF Done:  E(UB3LYP) =  -635.998602608     a.u. after    1 cycles

 The electronic state is 2-A.
 Alpha  occ. eigenvalues --  -19.09925 -19.00209 -14.21591 -10.13070 -10.12800
 Alpha  occ. eigenvalues --  -10.11869 -10.11499 -10.11289 -10.08707 -10.07903
 Alpha  occ. eigenvalues --  -10.07242 -10.07134 -10.06225 -10.05767  -1.02188
 Alpha  occ. eigenvalues --   -0.90965  -0.82398  -0.72546  -0.69861  -0.66156
 Alpha  occ. eigenvalues --   -0.65110  -0.61772  -0.58901  -0.54867  -0.52110
 Alpha  occ. eigenvalues --   -0.49937  -0.48159  -0.45460  -0.44187  -0.39996
 Alpha  occ. eigenvalues --   -0.39316  -0.38292  -0.36177  -0.35762  -0.34960
 Alpha  occ. eigenvalues --   -0.34219  -0.33203  -0.32840  -0.32152  -0.30894
 Alpha  occ. eigenvalues --   -0.30022  -0.29789  -0.28738  -0.28338  -0.27178
 Alpha  occ. eigenvalues --   -0.26721  -0.24594  -0.23888  -0.22985  -0.22136
 Alpha  occ. eigenvalues --   -0.18437  -0.16604  -0.14517  -0.14078   0.04274
 Alpha virt. eigenvalues --    0.06140   0.06775   0.07381   0.08122   0.08447
 Alpha virt. eigenvalues --    0.08854   0.09229   0.09843   0.10550   0.10928
 Alpha virt. eigenvalues --    0.11341   0.12138   0.12616   0.13040   0.13410

  Beta  occ. eigenvalues --  -19.09926 -19.00203 -14.21577 -10.13055 -10.12783
  Beta  occ. eigenvalues --  -10.11871 -10.11483 -10.11283 -10.08709 -10.07874
  Beta  occ. eigenvalues --  -10.07223 -10.07118 -10.06192 -10.05743  -1.02183
  Beta  occ. eigenvalues --   -0.90953  -0.82375  -0.72526  -0.69835  -0.66123
  Beta  occ. eigenvalues --   -0.65076  -0.61739  -0.58861  -0.54807  -0.52069
  Beta  occ. eigenvalues --   -0.49894  -0.48116  -0.45415  -0.44142  -0.39976
  Beta  occ. eigenvalues --   -0.39287  -0.38259  -0.36163  -0.35724  -0.34935
  Beta  occ. eigenvalues --   -0.34187  -0.33175  -0.32801  -0.32127  -0.30860
  Beta  occ. eigenvalues --   -0.29997  -0.29760  -0.28710  -0.28304  -0.27149
  Beta  occ. eigenvalues --   -0.26689  -0.24562  -0.23858  -0.22964  -0.22110
  Beta  occ. eigenvalues --   -0.18421  -0.16589  -0.14498  -0.14061
  Beta virt. eigenvalues --    0.06516   0.07327   0.07473   0.07788   0.08548
  Beta virt. eigenvalues --    0.08876   0.09120   0.09774   0.10257   0.10890
  Beta virt. eigenvalues --    0.11104   0.11724   0.12441   0.12939   0.13362

 Mulliken charges and spin densities:
               1          2
     1  C    0.755239  -1.292179
     2  C   -0.939057   0.360672
     3  C   -1.105077   1.589200
     4  C    0.632980  -1.375107
     5  C    0.886520  -0.974686
     6  C   -0.514023   0.000060
     7  O   -0.268648  -0.003052
     8  N   -0.140545  -0.013441
     9  C    1.361331  -2.500879
    10  C    1.940012  -1.352905
    11  C   -1.768926   1.435367
    12  O    0.012782   0.000149
    13  C    1.374059  -1.729062
    14  C   -1.232474   1.521145
    15  H   -0.081787   0.236420
    16  H   -0.701953   0.860200
    17  H    0.369694  -0.270567
    18  H   -0.174003   0.338043
    19  H    0.228015  -0.039399
    20  H   -0.170302   0.326903
    21  H   -0.046367   0.199214
    22  H    0.419534  -0.239784
    23  H   -0.037701   0.206558
    24  H    0.017253   0.115248
    25  H    0.034087   0.133943
    26  H   -0.022179   0.153372
    27  H    0.283465   0.034241
    28  H    0.311702  -0.049693
    29  H    0.059015   0.143841
    30  H   -0.075022   0.237410
    31  H   -0.551794   0.737088
    32  H   -0.632582   0.814904
    33  H   -1.223248   1.396776
 Sum of Mulliken charges =  -1.00000   1.00000

 Dipole moment (field-independent basis, Debye):
    X=             -1.1089    Y=              0.5148    Z=             -0.9550  Tot=              1.5513
 Quadrupole moment (field-independent basis, Debye-Ang):
   XX=           -154.8097   YY=           -145.7574   ZZ=           -126.1298
   XY=              5.5102   XZ=             -7.2315   YZ=              6.6785

 Summary of Natural Population Analysis:

                                       Natural Population
                Natural  -----------------------------------------------
    Atom  No    Charge         Core      Valence    Rydberg      Total
 -----------------------------------------------------------------------
      C    1   -0.28721      0.99966     2.28145    0.00611     3.28721
      C    2   -0.19969      0.99958     2.18947    0.01064     3.19969
      C    3    0.06693      0.99955     1.91879    0.01473     2.93307
      C    4   -0.29812      0.99961     2.29073    0.00778     3.29812
      C    5   -0.20351      0.99958     2.19325    0.01068     3.20351
      C    6   -0.00906      0.99960     1.99749    0.01198     3.00906
      O    7   -0.38716      0.99990     3.37996    0.00730     4.38716
      N    8   -0.35979      0.99973     2.84541    0.01465     3.85979
      C    9   -0.09371      0.99957     2.08241    0.01173     3.09371
      C   10   -0.07345      0.99951     2.06151    0.01243     3.07345
      C   11    0.06191      0.99942     1.92619    0.01249     2.93809
      O   12   -0.23311      0.99987     3.22508    0.00815     4.23311
      C   13    0.06557      0.99951     1.91985    0.01507     2.93443
      C   14   -0.14735      0.99952     2.13730    0.01053     3.14735
      H   15    0.09917      0.00000     0.39968    0.00116     0.40083
      H   16    0.10150      0.00000     0.39730    0.00120     0.39850
      H   17    0.09480      0.00000     0.40330    0.00190     0.40520
      H   18    0.10138      0.00000     0.39731    0.00131     0.39862
      H   19    0.10068      0.00000     0.39785    0.00147     0.39932
      H   20    0.10160      0.00000     0.39741    0.00099     0.39840
      H   21    0.10197      0.00000     0.39657    0.00146     0.39803
      H   22    0.10704      0.00000     0.39111    0.00185     0.39296
      H   23    0.09838      0.00000     0.40034    0.00128     0.40162
      H   24    0.10306      0.00000     0.39574    0.00120     0.39694
      H   25    0.08152      0.00000     0.41725    0.00123     0.41848
      H   26    0.07307      0.00000     0.42535    0.00157     0.42693
      H   27    0.24271      0.00000     0.25380    0.00349     0.25729
      H   28    0.17938      0.00000     0.31788    0.00274     0.32062
      H   29    0.10156      0.00000     0.39731    0.00113     0.39844
      H   30    0.10180      0.00000     0.39675    0.00145     0.39820
      H   31    0.09772      0.00000     0.40074    0.00154     0.40228
      H   32    0.09740      0.00000     0.40099    0.00161     0.40260
      H   33    0.11302      0.00000     0.38393    0.00305     0.38698
 =======================================================================
   * Total *   -0.00000     13.99461    39.81950    0.18589    54.00000

 Normal termination of Gaussian 16 at Thu Dec 10 11:12:31 2020.
