 Gaussian 16, Revision A.03,

 -----------------------------------------------------------
 # opt freq B3LYP/6-31G(d) empiricaldispersion=gd3bj scf=xqc
 -----------------------------------------------------------

 ------------------------------
 CID_90993428_JID_5224_neutraal
 ------------------------------
 Symbolic Z-matrix:
 Charge =  0 Multiplicity = 1

 SCF Done:  E(RB3LYP) =  -1101.06213765     A.U. after   15 cycles
 SCF Done:  E(RB3LYP) =  -1101.06755156     A.U. after   12 cycles
 SCF Done:  E(RB3LYP) =  -1101.06827599     A.U. after   12 cycles
 SCF Done:  E(RB3LYP) =  -1101.06845293     A.U. after   11 cycles
 SCF Done:  E(RB3LYP) =  -1101.06848398     A.U. after   10 cycles
 SCF Done:  E(RB3LYP) =  -1101.06848326     A.U. after    9 cycles
 SCF Done:  E(RB3LYP) =  -1101.06848601     A.U. after    9 cycles
 SCF Done:  E(RB3LYP) =  -1101.06848644     A.U. after    8 cycles
 Optimization completed.
    -- Stationary point found.
 Normal termination of Gaussian 16 at Mon Dec 14 16:29:32 2020.

 --------------------------------------------------------------------
 #N Geom=AllCheck Guess=TCheck SCRF=Check GenChk RB3LYP/6-31G(d) Freq
 --------------------------------------------------------------------

 Structure from the checkpoint file:  "JID_5224.chk"
 ------------------------------
 CID_90993428_JID_5224_neutraal
 ------------------------------
 Charge =  0 Multiplicity = 1

 SCF Done:  E(RB3LYP) =  -1101.06848644     A.U. after    1 cycles

  Exact polarizability: 197.115   7.471 153.208   0.008   0.023  53.017
 Approx polarizability: 329.877   4.722 257.146   0.018   0.055  85.232

 ******    1 imaginary frequencies (negative Signs) ******

                      1                      2                      3
                      A                      A                      A
 Frequencies --    -41.4278                67.4972                88.7107
 Red. masses --      3.8559                 6.1727                 7.8953
 Frc consts  --      0.0039                 0.0166                 0.0366
 IR Inten    --      3.4915                 0.4030                 0.0420

                      4                      5                      6
                      A                      A                      A
 Frequencies --     94.9115               140.2993               142.6495
 Red. masses --      7.8171                 8.4618                 4.1967
 Frc consts  --      0.0415                 0.0981                 0.0503
 IR Inten    --      1.7351                 0.4897                 0.5756

                      7                      8                      9
                      A                      A                      A
 Frequencies --    225.3876               255.1402               294.3321
 Red. masses --      8.7771                 5.9361                 7.0793
 Frc consts  --      0.2627                 0.2277                 0.3613
 IR Inten    --      3.6698                 0.5398                 1.3745

                     10                     11                     12
                      A                      A                      A
 Frequencies --    315.6672               335.0063               384.3146
 Red. masses --      8.7723                 9.9832                 9.7088
 Frc consts  --      0.5150                 0.6601                 0.8449
 IR Inten    --      0.3495                 2.6457                 1.9703

                     13                     14                     15
                      A                      A                      A
 Frequencies --    413.8902               434.3332               497.0879
 Red. masses --      9.1275                 3.8114                 3.5861
 Frc consts  --      0.9212                 0.4236                 0.5221
 IR Inten    --      5.6231                 1.3467                 8.3902

                     16                     17                     18
                      A                      A                      A
 Frequencies --    509.3532               567.6046               597.9863
 Red. masses --      7.2306                 1.1261                 5.7960
 Frc consts  --      1.1053                 0.2138                 1.2211
 IR Inten    --     14.8671               103.0938                44.6123

                     19                     20                     21
                      A                      A                      A
 Frequencies --    613.0231               642.5502               652.7029
 Red. masses --      1.2142                 5.9825                 4.6304
 Frc consts  --      0.2688                 1.4553                 1.1623
 IR Inten    --     65.9869                18.7040                72.8171

                     22                     23                     24
                      A                      A                      A
 Frequencies --    666.0518               684.9924               740.5802
 Red. masses --      2.6714                 5.6857                 1.7351
 Frc consts  --      0.6983                 1.5718                 0.5607
 IR Inten    --      4.0337                 5.8225                75.9942

                     25                     26                     27
                      A                      A                      A
 Frequencies --    752.4530               763.2820               797.8532
 Red. masses --      5.7747                 5.4395                 6.2744
 Frc consts  --      1.9263                 1.8671                 2.3532
 IR Inten    --     69.5387                 7.3474                19.6043

                     28                     29                     30
                      A                      A                      A
 Frequencies --    848.4631               898.4199               910.0225
 Red. masses --      5.5154                 4.6950                 6.2560
 Frc consts  --      2.3394                 2.2328                 3.0525
 IR Inten    --      5.3998                30.5708                 5.6301

                     31                     32                     33
                      A                      A                      A
 Frequencies --    912.8742               960.6091              1031.9496
 Red. masses --      1.2752                 1.4716                 1.6089
 Frc consts  --      0.6261                 0.8001                 1.0095
 IR Inten    --      4.6006                 3.2286                 4.3009

                     34                     35                     36
                      A                      A                      A
 Frequencies --   1056.4244              1114.6954              1139.7667
 Red. masses --      2.9700                 1.2530                 4.5231
 Frc consts  --      1.9529                 0.9173                 3.4619
 IR Inten    --     26.7834                13.8894               204.7010

                     37                     38                     39
                      A                      A                      A
 Frequencies --   1147.3504              1182.6824              1234.2687
 Red. masses --      5.5632                 1.9780                 1.8853
 Frc consts  --      4.3149                 1.6301                 1.6922
 IR Inten    --    115.8039               319.9739               342.9945

                     40                     41                     42
                      A                      A                      A
 Frequencies --   1254.1443              1290.9994              1293.1942
 Red. masses --      1.8684                 1.0504                 1.8958
 Frc consts  --      1.7315                 1.0315                 1.8679
 IR Inten    --     13.4096                 0.2105               122.0292

                     43                     44                     45
                      A                      A                      A
 Frequencies --   1378.1905              1386.9066              1424.6477
 Red. masses --      2.0035                 3.0427                 2.8713
 Frc consts  --      2.2422                 3.4482                 3.4336
 IR Inten    --    110.4750               143.0250                44.3544

                     46                     47                     48
                      A                      A                      A
 Frequencies --   1440.7964              1474.6245              1484.2394
 Red. masses --      3.8513                 2.8626                 6.6192
 Frc consts  --      4.7104                 3.6675                 8.5914
 IR Inten    --    225.6746               127.0617                83.7189

                     49                     50                     51
                      A                      A                      A
 Frequencies --   1536.7052              1587.2332              1689.7388
 Red. masses --      1.1105                 5.9600                 7.3159
 Frc consts  --      1.5450                 8.8467                12.3071
 IR Inten    --      5.0707               136.2008               278.3800

                     52                     53                     54
                      A                      A                      A
 Frequencies --   1809.9356              1823.9254              3061.8706
 Red. masses --      9.4510                 9.2115                 1.0585
 Frc consts  --     18.2413                18.0548                 5.8470
 IR Inten    --    510.3760               249.5398                18.5184

                     55                     56                     57
                      A                      A                      A
 Frequencies --   3087.7992              3220.4011              3272.6773
 Red. masses --      1.1071                 1.0914                 1.0919
 Frc consts  --      6.2190                 6.6692                 6.8904
 IR Inten    --     12.8405                 0.4562                 1.8964

                     58                     59                     60
                      A                      A                      A
 Frequencies --   3309.0387              3700.6187              3733.1137
 Red. masses --      1.0959                 1.0641                 1.0646
 Frc consts  --      7.0699                 8.5862                 8.7417
 IR Inten    --      7.9580                93.1411               119.3175

 - Thermochemistry -
 -------------------
 Temperature   298.150 Kelvin.  Pressure   1.00000 Atm.
 Atom     1 has atomic number  6 and mass  12.00000

 Molecular mass:   225.00958 amu.
 Principal axes and moments of inertia in atomic units:
                           1         2         3
     Eigenvalues --  2705.099373823.925206518.04488
           X            0.99985   0.01712   0.00001
           Y           -0.01712   0.99985   0.00001
           Z           -0.00001  -0.00001   1.00000
 This molecule is an asymmetric top.
 Rotational symmetry number  1.
 Warning -- assumption of classical behavior for rotation
           may cause significant error
 Rotational temperatures (Kelvin)      0.03202     0.02265     0.01329
 Rotational constants (GHZ):           0.66716     0.47196     0.27688
    1 imaginary frequencies ignored.
 Zero-point vibrational energy     408979.2 (Joules/Mol)
                                   97.74838 (Kcal/Mol)
 Warning -- explicit consideration of  18 degrees of freedom as
           vibrations may cause significant error
 Vibrational temperatures:     97.11   127.63   136.56   201.86   205.24
          (Kelvin)            324.28   367.09   423.48   454.17   482.00
                              552.94   595.50   624.91   715.20   732.85
                              816.66   860.37   882.00   924.49   939.09
                              958.30   985.55  1065.53  1082.61  1098.19
                             1147.93  1220.75  1292.63  1309.32  1313.42
                             1382.10  1484.75  1519.96  1603.80  1639.87
                             1650.78  1701.62  1775.84  1804.43  1857.46
                             1860.62  1982.91  1995.45  2049.75  2072.98
                             2121.66  2135.49  2210.98  2283.67  2431.16
                             2604.09  2624.22  4405.35  4442.65  4633.44
                             4708.65  4760.97  5324.36  5371.12

 Zero-point correction=                           0.155772 (Hartree/Particle)
 Thermal correction to Energy=                    0.167655
 Thermal correction to Enthalpy=                  0.168599
 Thermal correction to Gibbs Free Energy=         0.117031
 Sum of electronic and zero-point Energies=          -1100.912714
 Sum of electronic and thermal Energies=             -1100.900832
 Sum of electronic and thermal Enthalpies=           -1100.899888
 Sum of electronic and thermal Free Energies=        -1100.951455

                     E (Thermal)             CV                S
                      KCal/Mol        Cal/Mol-Kelvin    Cal/Mol-Kelvin
 Total                  105.205             46.140            108.533
 Electronic               0.000              0.000              0.000
 Translational            0.889              2.981             42.135
 Rotational               0.889              2.981             32.578
 Vibrational            103.427             40.178             33.820
 Vibration     1          0.598              1.970              4.225
 Vibration     2          0.602              1.957              3.688
 Vibration     3          0.603              1.953              3.556
 Vibration     4          0.615              1.913              2.800
 Vibration     5          0.616              1.911              2.768
 Vibration     6          0.650              1.802              1.915
 Vibration     7          0.666              1.754              1.695
 Vibration     8          0.689              1.684              1.449
 Vibration     9          0.703              1.644              1.332
 Vibration    10          0.716              1.606              1.236
 Vibration    11          0.753              1.504              1.022
 Vibration    12          0.777              1.440              0.913
 Vibration    13          0.795              1.395              0.845
 Vibration    14          0.853              1.256              0.665
 Vibration    15          0.865              1.229              0.635
 Vibration    16          0.924              1.101              0.509
 Vibration    17          0.956              1.036              0.453
 Vibration    18          0.972              1.004              0.428

                           ! Non-Optimized Parameters !
 Normal termination of Gaussian 16 at Mon Dec 14 16:35:45 2020.

 ----------------------------------------------------------------------
 # B3LYP/6-311++G(d,p) empiricaldispersion=gd3bj scf=xqc pop=npa geom=c
 heck
 ----------------------------------------------------------------------

 --------------------------------------
 CID_90993428_JID_5224_Energie_neutraal
 --------------------------------------
 Structure from the checkpoint file:  "JID_5224.chk"
 Charge =  0 Multiplicity = 1

 SCF Done:  E(RB3LYP) =  -1101.30793510     A.U. after   16 cycles
 Normal termination of Gaussian 16 at Mon Dec 14 16:38:29 2020.

 ----------------------------------------------------------------------
 # B3LYP/6-311++G(d,p) empiricaldispersion=gd3bj scf=xqc pop=npa geom=c
 heck
 ----------------------------------------------------------------------

 ------------------------------------
 CID_90993428_JID_5224_Energie_kation
 ------------------------------------
 Structure from the checkpoint file:  "JID_5224.chk"
 Charge =  1 Multiplicity = 2

 SCF Done:  E(UB3LYP) =  -1101.02754780     A.U. after   23 cycles
 Normal termination of Gaussian 16 at Mon Dec 14 16:44:01 2020.
 Gaussian 16:  ES64L-G16RevA.03 25-Dec-2016

 ----------------------------------------------------------------------
 # B3LYP/6-311++G(d,p) empiricaldispersion=gd3bj scf=xqc pop=npa geom=c
 heck
 ----------------------------------------------------------------------

 -----------------------------------
 CID_90993428_JID_5224_Energie_anion
 -----------------------------------
 Structure from the checkpoint file:  "JID_5224.chk"
 Charge = -1 Multiplicity = 2

                         Standard orientation:
 ---------------------------------------------------------------------
 Center     Atomic      Atomic             Coordinates (Angstroms)
 Number     Number       Type             X           Y           Z
 ---------------------------------------------------------------------
      1          6           0        1.108043    1.018904    0.003086
      2          6           0        1.609265   -0.405959    0.000297
      3          6           0        0.781709   -1.473602   -0.000772
      4          6           0       -0.629224   -1.267704    0.000106
      5          6           0       -1.205002   -0.004322    0.000595
      6          7           0       -0.381801    1.135699    0.000558
      7          6           0       -0.923248    2.400763   -0.000607
      8          8           0       -2.106141    2.691511   -0.002861
      9          8           0        0.056084    3.346590   -0.000144
     10          6           0       -2.632511   -0.051123    0.000852
     11          6           0       -3.100877   -1.339382    0.000608
     12         16           0       -1.838835   -2.521317    0.000016
     13          6           0        3.059980   -0.641159   -0.000660
     14          8           0        3.610854   -1.726560   -0.002400
     15          8           0        3.764135    0.526620    0.001176
     16          1           0        1.494271    1.551719    0.878301
     17          1           0        1.497245    1.555965   -0.868078
     18          1           0        1.207953   -2.471732   -0.002397
     19          1           0       -0.422305    4.193857   -0.001684
     20          1           0       -3.260329    0.825026    0.001106
     21          1           0       -4.135060   -1.654928    0.000822
     22          1           0        4.703932    0.267496    0.000571
 ---------------------------------------------------------------------

 SCF Done:  E(UB3LYP) =  -1101.33766402     A.U. after   20 cycles

 The electronic state is 2-A.
 Alpha  occ. eigenvalues --  -88.73257 -19.06157 -19.02547 -18.98493 -18.94632
 Alpha  occ. eigenvalues --  -14.23942 -10.20416 -10.13396 -10.08450 -10.06972
 Alpha  occ. eigenvalues --  -10.05302 -10.05237 -10.03882 -10.02029 -10.01870
 Alpha  occ. eigenvalues --   -7.81934  -5.78229  -5.77884  -5.77530  -1.00524
 Alpha  occ. eigenvalues --   -0.95838  -0.90534  -0.86229  -0.83514  -0.73947
 Alpha  occ. eigenvalues --   -0.67352  -0.61718  -0.59870  -0.55898  -0.52260
 Alpha  occ. eigenvalues --   -0.50772  -0.44741  -0.43763  -0.39515  -0.38018
 Alpha  occ. eigenvalues --   -0.37226  -0.36864  -0.35108  -0.34245  -0.33372
 Alpha  occ. eigenvalues --   -0.31724  -0.30528  -0.29650  -0.28981  -0.27277
 Alpha  occ. eigenvalues --   -0.25991  -0.25233  -0.24079  -0.22685  -0.22126
 Alpha  occ. eigenvalues --   -0.21251  -0.18776  -0.18079  -0.17016  -0.15899
 Alpha  occ. eigenvalues --   -0.13185  -0.10943  -0.06273   0.02959
 Alpha virt. eigenvalues --    0.07779   0.09255   0.09292   0.11838   0.12263
 Alpha virt. eigenvalues --    0.12646   0.12760   0.13519   0.14228   0.14446
 Alpha virt. eigenvalues --    0.15431   0.15936   0.15995   0.16562   0.16682

  Beta  occ. eigenvalues --  -88.73203 -19.06132 -19.02476 -18.98468 -18.94400
  Beta  occ. eigenvalues --  -14.23960 -10.20357 -10.13199 -10.08464 -10.06667
  Beta  occ. eigenvalues --  -10.05274 -10.04985 -10.03998 -10.01715 -10.01639
  Beta  occ. eigenvalues --   -7.81886  -5.78203  -5.77859  -5.77357  -1.00458
  Beta  occ. eigenvalues --   -0.95588  -0.90479  -0.85865  -0.83393  -0.73705
  Beta  occ. eigenvalues --   -0.66813  -0.61293  -0.59597  -0.55626  -0.51844
  Beta  occ. eigenvalues --   -0.50470  -0.44546  -0.43388  -0.39402  -0.37886
  Beta  occ. eigenvalues --   -0.37128  -0.36593  -0.34842  -0.34019  -0.33096
  Beta  occ. eigenvalues --   -0.31116  -0.30447  -0.29545  -0.28321  -0.27061
  Beta  occ. eigenvalues --   -0.25263  -0.25089  -0.23833  -0.22480  -0.21836
  Beta  occ. eigenvalues --   -0.21053  -0.17745  -0.17442  -0.16982  -0.14245
  Beta  occ. eigenvalues --   -0.12939  -0.10258  -0.04822
  Beta virt. eigenvalues --    0.07778   0.08821   0.09255   0.09290   0.11850
  Beta virt. eigenvalues --    0.12244   0.12641   0.12954   0.14424   0.14454
  Beta virt. eigenvalues --    0.14723   0.15439   0.16021   0.16216   0.16565

 Mulliken charges and spin densities:
               1          2
     1  C   -1.213743  -0.015642
     2  C    0.214403   0.063679
     3  C   -0.108708   0.264616
     4  C    0.844294   0.015130
     5  C   -0.528233   0.190504
     6  N   -0.065492  -0.011234
     7  C    0.363834   0.031606
     8  O   -0.390272   0.012396
     9  O   -0.205451   0.004488
    10  C    0.094238  -0.083717
    11  C   -0.436404   0.223547
    12  S   -0.682917   0.068419
    13  C    0.163086   0.162494
    14  O   -0.425828   0.084848
    15  O   -0.236666   0.016584
    16  H    0.238128   0.003435
    17  H    0.238053   0.003407
    18  H    0.189248  -0.023012
    19  H    0.285450  -0.000197
    20  H    0.200871   0.005549
    21  H    0.195146  -0.016194
    22  H    0.266963  -0.000705
 Sum of Mulliken charges =  -1.00000   1.00000

 Dipole moment (field-independent basis, Debye):
    X=             -1.0820    Y=              4.0318    Z=              0.0068  Tot=              4.1745
 Quadrupole moment (field-independent basis, Debye-Ang):
   XX=           -129.6839   YY=           -112.8345   ZZ=           -100.4190
   XY=             12.7445   XZ=              0.0009   YZ=             -0.0047

 Summary of Natural Population Analysis:

                                       Natural Population
                Natural  -----------------------------------------------
    Atom  No    Charge         Core      Valence    Rydberg      Total
 -----------------------------------------------------------------------
      C    1   -0.08388      0.99959     2.07474    0.00955     3.08388
      C    2   -0.06013      0.99945     2.05052    0.01016     3.06013
      C    3   -0.00567      0.99937     1.99532    0.01098     3.00567
      C    4   -0.13693      0.99943     2.12648    0.01102     3.13693
      C    5    0.12290      0.99939     1.86782    0.00989     2.87710
      N    6   -0.23944      0.99959     2.73086    0.00899     3.73944
      C    7    0.46535      0.99972     1.51125    0.02368     2.53465
      O    8   -0.34401      0.99987     3.33683    0.00732     4.34401
      O    9   -0.35202      0.99988     3.34637    0.00577     4.35202
      C   10   -0.16533      0.99952     2.15646    0.00935     3.16533
      C   11   -0.13486      0.99956     2.12344    0.01185     3.13486
      S   12    0.20738      4.99943     2.76871    0.02448     7.79262
      C   13    0.41237      0.99964     1.56406    0.02392     2.58763
      O   14   -0.31684      0.99987     3.30987    0.00710     4.31684
      O   15   -0.35639      0.99988     3.35042    0.00609     4.35639
      H   16    0.09955      0.00000     0.39898    0.00146     0.40045
      H   17    0.09976      0.00000     0.39878    0.00146     0.40024
      H   18    0.10649      0.00000     0.39267    0.00084     0.39351
      H   19    0.23826      0.00000     0.25903    0.00270     0.26174
      H   20    0.11984      0.00000     0.37916    0.00100     0.38016
      H   21    0.09634      0.00000     0.40272    0.00095     0.40366
      H   22    0.22728      0.00000     0.26681    0.00591     0.27272
 =======================================================================
   * Total *    0.00001     18.99420    38.81129    0.19449    57.99999

 Normal termination of Gaussian 16 at Mon Dec 14 16:48:46 2020.
