 Gaussian 16, Revision A.03,

 -----------------------------------------------------------
 # opt freq B3LYP/6-31G(d) empiricaldispersion=gd3bj scf=xqc
 -----------------------------------------------------------

 -------------------------------
 CID_115968949_JID_5688_neutraal
 -------------------------------
 Symbolic Z-matrix:
 Charge =  0 Multiplicity = 1

 SCF Done:  E(RB3LYP) =  -712.278400191     A.U. after   14 cycles
 SCF Done:  E(RB3LYP) =  -712.274906373     A.U. after   12 cycles
 SCF Done:  E(RB3LYP) =  -712.283993796     A.U. after   12 cycles
 SCF Done:  E(RB3LYP) =  -712.280986220     A.U. after   12 cycles
 SCF Done:  E(RB3LYP) =  -712.285184305     A.U. after   11 cycles
 SCF Done:  E(RB3LYP) =  -712.284009100     A.U. after   12 cycles
 SCF Done:  E(RB3LYP) =  -712.286042742     A.U. after   12 cycles
 SCF Done:  E(RB3LYP) =  -712.286459068     A.U. after   11 cycles
 SCF Done:  E(RB3LYP) =  -712.286614913     A.U. after   12 cycles
 SCF Done:  E(RB3LYP) =  -712.286916364     A.U. after   11 cycles
 SCF Done:  E(RB3LYP) =  -712.289069957     A.U. after   10 cycles
 SCF Done:  E(RB3LYP) =  -712.289124409     A.U. after   10 cycles
 SCF Done:  E(RB3LYP) =  -712.289141439     A.U. after   10 cycles
 SCF Done:  E(RB3LYP) =  -712.289144034     A.U. after    8 cycles
 SCF Done:  E(RB3LYP) =  -712.289144365     A.U. after    7 cycles
 Optimization completed.
    -- Stationary point found.
 Normal termination of Gaussian 16 at Thu Dec 10 17:13:24 2020.

 --------------------------------------------------------------------
 #N Geom=AllCheck Guess=TCheck SCRF=Check GenChk RB3LYP/6-31G(d) Freq
 --------------------------------------------------------------------

 Structure from the checkpoint file:  "JID_5688.chk"
 -------------------------------
 CID_115968949_JID_5688_neutraal
 -------------------------------
 Charge =  0 Multiplicity = 1

 SCF Done:  E(RB3LYP) =  -712.289144365     A.U. after    1 cycles

  Exact polarizability: 141.110   0.378 128.280   5.912  -3.104 115.846
 Approx polarizability: 180.549  -2.942 185.899   9.500 -13.748 178.315

                      1                      2                      3
                      A                      A                      A
 Frequencies --     52.0768                60.6765                70.8275
 Red. masses --      3.6327                 5.6733                 4.3504
 Frc consts  --      0.0058                 0.0123                 0.0129
 IR Inten    --      1.8578                 2.5178                 1.3437

                      4                      5                      6
                      A                      A                      A
 Frequencies --    117.6036               133.5181               141.9257
 Red. masses --      2.9166                 6.1691                 3.7554
 Frc consts  --      0.0238                 0.0648                 0.0446
 IR Inten    --      0.6545                11.5579                 0.8984

                      7                      8                      9
                      A                      A                      A
 Frequencies --    149.9930               180.3279               207.3953
 Red. masses --      2.9645                 3.1510                 1.8454
 Frc consts  --      0.0393                 0.0604                 0.0468
 IR Inten    --      2.8110                16.3720                 1.9855

                     10                     11                     12
                      A                      A                      A
 Frequencies --    220.7427               253.5929               266.5473
 Red. masses --      1.6253                 1.6144                 1.2781
 Frc consts  --      0.0467                 0.0612                 0.0535
 IR Inten    --      0.0154                 0.6975                 1.6973

                     13                     14                     15
                      A                      A                      A
 Frequencies --    273.5478               299.3420               326.8798
 Red. masses --      1.6992                 2.6258                 2.0054
 Frc consts  --      0.0749                 0.1386                 0.1263
 IR Inten    --      0.6060                 0.3319                 1.0400

                     16                     17                     18
                      A                      A                      A
 Frequencies --    337.6384               343.2095               382.0820
 Red. masses --      2.9332                 1.8066                 2.9942
 Frc consts  --      0.1970                 0.1254                 0.2575
 IR Inten    --      3.5025                 2.5613                 6.9334

                     19                     20                     21
                      A                      A                      A
 Frequencies --    415.2497               443.0072               464.6491
 Red. masses --      3.3174                 2.4643                 3.7137
 Frc consts  --      0.3370                 0.2849                 0.4724
 IR Inten    --      1.4499                 9.1551                14.4495

                     22                     23                     24
                      A                      A                      A
 Frequencies --    510.4312               545.8821               581.8610
 Red. masses --      2.5935                 1.7004                 2.2952
 Frc consts  --      0.3981                 0.2985                 0.4578
 IR Inten    --      0.8984                31.1395                 4.0276

                     25                     26                     27
                      A                      A                      A
 Frequencies --    596.2597               616.9653               681.2808
 Red. masses --      2.4878                 2.1004                 2.8769
 Frc consts  --      0.5211                 0.4710                 0.7867
 IR Inten    --     35.7319                15.2559                32.2005

                     28                     29                     30
                      A                      A                      A
 Frequencies --    704.5194               763.1802               817.9832
 Red. masses --      2.9466                 2.9643                 2.9268
 Frc consts  --      0.8617                 1.0173                 1.1538
 IR Inten    --     45.8081                 5.3412                27.0169

                     31                     32                     33
                      A                      A                      A
 Frequencies --    844.5050               868.1404               877.0245
 Red. masses --      1.7257                 2.3921                 2.4161
 Frc consts  --      0.7251                 1.0622                 1.0949
 IR Inten    --     58.2149                 6.8109                17.8907

                     34                     35                     36
                      A                      A                      A
 Frequencies --    902.1879               934.6161               949.0365
 Red. masses --      1.7884                 1.9407                 1.8164
 Frc consts  --      0.8576                 0.9988                 0.9639
 IR Inten    --      2.2629                10.3041                15.4136

                     37                     38                     39
                      A                      A                      A
 Frequencies --    960.8403               966.7542               986.8491
 Red. masses --      1.7252                 2.3192                 2.0669
 Frc consts  --      0.9384                 1.2771                 1.1860
 IR Inten    --      2.6566                 2.5470                 5.7671

                     40                     41                     42
                      A                      A                      A
 Frequencies --   1005.5990              1015.4428              1030.0663
 Red. masses --      2.0623                 2.0253                 1.4446
 Frc consts  --      1.2287                 1.2304                 0.9031
 IR Inten    --      4.4700                19.9949                 2.2851

                     43                     44                     45
                      A                      A                      A
 Frequencies --   1043.4744              1081.6226              1097.3597
 Red. masses --      2.2080                 1.5983                 2.6619
 Frc consts  --      1.4165                 1.1017                 1.8886
 IR Inten    --      2.9642                 3.4868                47.6994

                     46                     47                     48
                      A                      A                      A
 Frequencies --   1109.2583              1112.4826              1137.4116
 Red. masses --      3.5209                 2.6523                 2.3606
 Frc consts  --      2.5525                 1.9340                 1.7993
 IR Inten    --     25.6369                27.7353                23.5608

                     49                     50                     51
                      A                      A                      A
 Frequencies --   1148.4788              1187.3248              1202.7815
 Red. masses --      2.6558                 1.8175                 2.1130
 Frc consts  --      2.0639                 1.5096                 1.8010
 IR Inten    --     52.1876                52.1499                29.1829

                     52                     53                     54
                      A                      A                      A
 Frequencies --   1235.6712              1251.0136              1259.5349
 Red. masses --      1.4227                 1.7157                 1.6657
 Frc consts  --      1.2799                 1.5821                 1.5569
 IR Inten    --     19.4455                69.6534                30.5804

                     55                     56                     57
                      A                      A                      A
 Frequencies --   1278.9473              1306.9338              1316.5500
 Red. masses --      1.4618                 1.4431                 1.7108
 Frc consts  --      1.4088                 1.4523                 1.7471
 IR Inten    --     20.6937                35.0165                50.3894

                     58                     59                     60
                      A                      A                      A
 Frequencies --   1322.9310              1342.1455              1364.6329
 Red. masses --      1.6168                 1.5998                 1.1799
 Frc consts  --      1.6672                 1.6979                 1.2946
 IR Inten    --     40.0450                64.7864                 6.7445

                     61                     62                     63
                      A                      A                      A
 Frequencies --   1395.4608              1400.2941              1403.3255
 Red. masses --      1.2188                 1.3672                 1.3318
 Frc consts  --      1.3984                 1.5795                 1.5453
 IR Inten    --      7.5240                 8.3457                 8.7781

                     64                     65                     66
                      A                      A                      A
 Frequencies --   1412.7608              1425.1116              1432.7211
 Red. masses --      1.3198                 1.2564                 1.2456
 Frc consts  --      1.5521                 1.5034                 1.5065
 IR Inten    --      6.0768                 0.7148                 7.6633

                     67                     68                     69
                      A                      A                      A
 Frequencies --   1434.3468              1452.7430              1482.9759
 Red. masses --      1.2652                 1.2265                 1.2343
 Frc consts  --      1.5336                 1.5251                 1.5993
 IR Inten    --      6.9232                20.5214                62.6010

                     70                     71                     72
                      A                      A                      A
 Frequencies --   1500.2419              1513.1188              1515.8136
 Red. masses --      1.2485                 1.0576                 1.0487
 Frc consts  --      1.6556                 1.4266                 1.4197
 IR Inten    --      6.7631                 0.9019                 0.5091

                     73                     74                     75
                      A                      A                      A
 Frequencies --   1518.3876              1525.0381              1526.2810
 Red. masses --      1.0512                 1.0669                 1.0653
 Frc consts  --      1.4280                 1.4620                 1.4622
 IR Inten    --      1.4846                 4.1720                 9.9864

                     76                     77                     78
                      A                      A                      A
 Frequencies --   1538.7329              1542.5353              1544.1378
 Red. masses --      1.0917                 1.0794                 1.0746
 Frc consts  --      1.5230                 1.5132                 1.5097
 IR Inten    --      0.5328                 6.2024                 3.2213

                     79                     80                     81
                      A                      A                      A
 Frequencies --   1554.4845              1563.0301              1762.9445
 Red. masses --      1.0971                 1.0790                 6.4561
 Frc consts  --      1.5620                 1.5531                11.8221
 IR Inten    --      1.1144                 1.0674               265.2514

                     82                     83                     84
                      A                      A                      A
 Frequencies --   3003.6186              3006.3591              3051.8293
 Red. masses --      1.0720                 1.0718                 1.0356
 Frc consts  --      5.6981                 5.7076                 5.6830
 IR Inten    --    106.7741                59.2489                18.1773

                     85                     86                     87
                      A                      A                      A
 Frequencies --   3054.7729              3055.5441              3063.5123
 Red. masses --      1.0485                 1.0553                 1.0447
 Frc consts  --      5.7644                 5.8051                 5.7769
 IR Inten    --     14.5170                12.2354                34.6271

                     88                     89                     90
                      A                      A                      A
 Frequencies --   3082.5872              3095.9308              3102.1825
 Red. masses --      1.0919                 1.0705                 1.0793
 Frc consts  --      6.1134                 6.0454                 6.1199
 IR Inten    --     46.5429                16.5931                20.4793

                     91                     92                     93
                      A                      A                      A
 Frequencies --   3116.3215              3120.2727              3123.5537
 Red. masses --      1.1003                 1.1015                 1.0934
 Frc consts  --      6.2957                 6.3185                 6.2856
 IR Inten    --     10.5395                 2.3917                27.4849

                     94                     95                     96
                      A                      A                      A
 Frequencies --   3126.6338              3132.5985              3143.4693
 Red. masses --      1.1006                 1.1005                 1.0938
 Frc consts  --      6.3390                 6.3630                 6.3678
 IR Inten    --     40.3780                20.7223                 7.2984

                     97                     98                     99
                      A                      A                      A
 Frequencies --   3145.0289              3146.8813              3162.8286
 Red. masses --      1.1020                 1.0952                 1.1020
 Frc consts  --      6.4219                 6.3901                 6.4949
 IR Inten    --     18.4326                52.7896                 4.2107

                    100                    101                    102
                      A                      A                      A
 Frequencies --   3167.7504              3508.4245              3613.2823
 Red. masses --      1.0886                 1.0738                 1.0669
 Frc consts  --      6.4360                 7.7875                 8.2066
 IR Inten    --     12.1442                10.2107               155.8563

 - Thermochemistry -
 -------------------
 Temperature   298.150 Kelvin.  Pressure   1.00000 Atm.
 Atom     1 has atomic number  6 and mass  12.00000

 Molecular mass:   215.15214 amu.
 Principal axes and moments of inertia in atomic units:
                           1         2         3
     Eigenvalues --  2339.721933756.207534293.14725
           X            0.99991   0.00429   0.01260
           Y           -0.00533   0.99642   0.08433
           Z           -0.01220  -0.08439   0.99636
 This molecule is an asymmetric top.
 Rotational symmetry number  1.
 Warning -- assumption of classical behavior for rotation
           may cause significant error
 Rotational temperatures (Kelvin)      0.03702     0.02306     0.02017
 Rotational constants (GHZ):           0.77135     0.48047     0.42038
 Zero-point vibrational energy     846756.8 (Joules/Mol)
                                  202.37973 (Kcal/Mol)
 Warning -- explicit consideration of  26 degrees of freedom as
           vibrations may cause significant error
 Vibrational temperatures:     74.93    87.30   101.90   169.21   192.10
          (Kelvin)            204.20   215.81   259.45   298.40   317.60
                              364.86   383.50   393.57   430.69   470.31
                              485.79   493.80   549.73   597.45   637.39
                              668.53   734.40   785.40   837.17   857.88
                              887.68   980.21  1013.65  1098.05  1176.90
                             1215.05  1249.06  1261.84  1298.05  1344.70
                             1365.45  1382.43  1390.94  1419.86  1446.83
                             1461.00  1482.04  1501.33  1556.21  1578.86
                             1595.98  1600.61  1636.48  1652.40  1708.30
                             1730.53  1777.86  1799.93  1812.19  1840.12
                             1880.39  1894.22  1903.40  1931.05  1963.40
                             2007.76  2014.71  2019.07  2032.65  2050.42
                             2061.37  2063.71  2090.17  2133.67  2158.51
                             2177.04  2180.92  2184.62  2194.19  2195.98
                             2213.89  2219.36  2221.67  2236.56  2248.85
                             2536.48  4321.54  4325.48  4390.90  4395.14
                             4396.25  4407.71  4435.16  4454.35  4463.35
                             4483.69  4489.38  4494.10  4498.53  4507.11
                             4522.75  4525.00  4527.66  4550.60  4557.69
                             5047.84  5198.71

 Zero-point correction=                           0.322513 (Hartree/Particle)
 Thermal correction to Energy=                    0.338486
 Thermal correction to Enthalpy=                  0.339430
 Thermal correction to Gibbs Free Energy=         0.280165
 Sum of electronic and zero-point Energies=           -711.966632
 Sum of electronic and thermal Energies=              -711.950658
 Sum of electronic and thermal Enthalpies=            -711.949714
 Sum of electronic and thermal Free Energies=         -712.008979

                     E (Thermal)             CV                S
                      KCal/Mol        Cal/Mol-Kelvin    Cal/Mol-Kelvin
 Total                  212.403             61.615            124.733
 Electronic               0.000              0.000              0.000
 Translational            0.889              2.981             42.002
 Rotational               0.889              2.981             32.001
 Vibrational            210.626             55.653             50.731
 Vibration     1          0.596              1.977              4.737
 Vibration     2          0.597              1.973              4.435
 Vibration     3          0.598              1.968              4.130
 Vibration     4          0.608              1.935              3.139
 Vibration     5          0.613              1.920              2.895
 Vibration     6          0.615              1.911              2.778
 Vibration     7          0.618              1.903              2.672
 Vibration     8          0.629              1.866              2.325
 Vibration     9          0.641              1.829              2.066
 Vibration    10          0.647              1.809              1.953
 Vibration    11          0.665              1.757              1.705
 Vibration    12          0.672              1.734              1.618
 Vibration    13          0.676              1.722              1.574
 Vibration    14          0.692              1.675              1.421
 Vibration    15          0.711              1.622              1.275
 Vibration    16          0.718              1.600              1.223
 Vibration    17          0.722              1.589              1.197
 Vibration    18          0.752              1.508              1.031
 Vibration    19          0.779              1.437              0.908
 Vibration    20          0.803              1.376              0.817
 Vibration    21          0.822              1.328              0.753
 Vibration    22          0.866              1.227              0.633
 Vibration    23          0.901              1.149              0.553
 Vibration    24          0.939              1.071              0.482
 Vibration    25          0.954              1.040              0.456
 Vibration    26          0.977              0.996              0.421

                           ! Non-Optimized Parameters !
 Normal termination of Gaussian 16 at Thu Dec 10 17:29:55 2020.

 ----------------------------------------------------------------------
 # B3LYP/6-311++G(d,p) empiricaldispersion=gd3bj scf=xqc pop=npa geom=c
 heck
 ----------------------------------------------------------------------

 ---------------------------------------
 CID_115968949_JID_5688_Energie_neutraal
 ---------------------------------------
 Structure from the checkpoint file:  "JID_5688.chk"
 Charge =  0 Multiplicity = 1

 SCF Done:  E(RB3LYP) =  -712.504543900     A.U. after   14 cycles
 Normal termination of Gaussian 16 at Thu Dec 10 17:38:08 2020.

 ----------------------------------------------------------------------
 # B3LYP/6-311++G(d,p) empiricaldispersion=gd3bj scf=xqc pop=npa geom=c
 heck
 ----------------------------------------------------------------------

 -------------------------------------
 CID_115968949_JID_5688_Energie_kation
 -------------------------------------
 Structure from the checkpoint file:  "JID_5688.chk"
 Charge =  1 Multiplicity = 2

 SCF Done:  E(UB3LYP) =  -712.178564562     A.U. after   30 cycles
 Normal termination of Gaussian 16 at Thu Dec 10 17:58:33 2020.
 Gaussian 16:  ES64L-G16RevA.03 25-Dec-2016

 ----------------------------------------------------------------------
 # B3LYP/6-311++G(d,p) empiricaldispersion=gd3bj scf=xqc pop=npa geom=c
 heck
 ----------------------------------------------------------------------

 ------------------------------------
 CID_115968949_JID_5688_Energie_anion
 ------------------------------------
 Structure from the checkpoint file:  "JID_5688.chk"
 Charge = -1 Multiplicity = 2

                         Standard orientation:
 ---------------------------------------------------------------------
 Center     Atomic      Atomic             Coordinates (Angstroms)
 Number     Number       Type             X           Y           Z
 ---------------------------------------------------------------------
      1          6           0        3.152915   -1.106786   -1.084283
      2          6           0        1.873227   -0.328801   -0.790126
      3          6           0        1.472859   -0.408318    0.716931
      4          6           0        1.484986    1.069920    1.182924
      5          6           0        2.362105    1.736005    0.122200
      6          8           0        2.033394    1.063265   -1.091860
      7          6           0        0.232382   -1.192404    1.148082
      8          8           0        0.371498   -2.089239    1.970572
      9          7           0       -1.089708   -0.833144    0.812742
     10          6           0       -1.745772   -0.574646   -0.513186
     11          6           0       -1.424503   -1.696162   -1.516776
     12          6           0       -3.256918   -0.642047   -0.216836
     13          6           0       -1.373162    0.816803   -1.071795
     14          6           0       -1.974900    1.998519   -0.302592
     15          8           0       -1.657729    2.008219    1.084886
     16          1           0        3.436197   -0.989056   -2.134598
     17          1           0        3.008203   -2.173315   -0.875976
     18          1           0        3.980353   -0.749798   -0.460998
     19          1           0        1.086300   -0.684064   -1.454230
     20          1           0        2.267261   -0.946568    1.238656
     21          1           0        1.886780    1.167787    2.195513
     22          1           0        0.486330    1.508134    1.167459
     23          1           0        3.433132    1.621737    0.352310
     24          1           0        2.148763    2.798154   -0.021334
     25          1           0       -1.660954   -1.488601    1.342866
     26          1           0       -1.660545   -2.672375   -1.079440
     27          1           0       -2.024388   -1.574524   -2.425310
     28          1           0       -0.374071   -1.708643   -1.812794
     29          1           0       -3.544551    0.041614    0.586591
     30          1           0       -3.828884   -0.380222   -1.112055
     31          1           0       -3.544410   -1.658019    0.078164
     32          1           0       -0.288876    0.934827   -1.128794
     33          1           0       -1.742613    0.868717   -2.104354
     34          1           0       -1.587832    2.933156   -0.723245
     35          1           0       -3.067100    2.015911   -0.439530
     36          1           0       -1.577748    1.076683    1.365877
 ---------------------------------------------------------------------

 SCF Done:  E(UB3LYP) =  -712.492568437     A.U. after   33 cycles
 SCF Done:  E(UB3LYP) =  -712.492568437     a.u. after    1 cycles

 The electronic state is 2-A.
 Alpha  occ. eigenvalues --  -19.03476 -19.01890 -19.00871 -14.24194 -10.19131
 Alpha  occ. eigenvalues --  -10.13788 -10.13685 -10.12671 -10.11795 -10.09890
 Alpha  occ. eigenvalues --  -10.08116 -10.07357 -10.07265 -10.07095 -10.06849
 Alpha  occ. eigenvalues --   -0.95906  -0.95292  -0.92310  -0.82867  -0.71401
 Alpha  occ. eigenvalues --   -0.70372  -0.67988  -0.63784  -0.60700  -0.59986
 Alpha  occ. eigenvalues --   -0.54857  -0.53340  -0.50713  -0.49319  -0.45845
 Alpha  occ. eigenvalues --   -0.42444  -0.41255  -0.40451  -0.39297  -0.37294
 Alpha  occ. eigenvalues --   -0.36164  -0.35381  -0.35264  -0.33749  -0.33492
 Alpha  occ. eigenvalues --   -0.32408  -0.31596  -0.31066  -0.30896  -0.30265
 Alpha  occ. eigenvalues --   -0.29467  -0.28850  -0.28279  -0.27472  -0.26213
 Alpha  occ. eigenvalues --   -0.25630  -0.24524  -0.23909  -0.23580  -0.22953
 Alpha  occ. eigenvalues --   -0.18535  -0.17663  -0.16920  -0.16163   0.04258
 Alpha virt. eigenvalues --    0.06038   0.07124   0.07362   0.07859   0.08528
 Alpha virt. eigenvalues --    0.08831   0.09222   0.09979   0.10234   0.10935
 Alpha virt. eigenvalues --    0.11436   0.11666   0.11988   0.12703   0.13616

  Beta  occ. eigenvalues --  -19.03475 -19.01883 -19.00857 -14.24179 -10.19122
  Beta  occ. eigenvalues --  -10.13788 -10.13674 -10.12652 -10.11779 -10.09883
  Beta  occ. eigenvalues --  -10.08110 -10.07339 -10.07235 -10.07043 -10.06806
  Beta  occ. eigenvalues --   -0.95885  -0.95284  -0.92294  -0.82841  -0.71378
  Beta  occ. eigenvalues --   -0.70343  -0.67961  -0.63739  -0.60634  -0.59919
  Beta  occ. eigenvalues --   -0.54800  -0.53303  -0.50669  -0.49267  -0.45807
  Beta  occ. eigenvalues --   -0.42417  -0.41221  -0.40416  -0.39258  -0.37261
  Beta  occ. eigenvalues --   -0.36127  -0.35352  -0.35222  -0.33722  -0.33465
  Beta  occ. eigenvalues --   -0.32375  -0.31552  -0.31022  -0.30854  -0.30224
  Beta  occ. eigenvalues --   -0.29417  -0.28814  -0.28249  -0.27438  -0.26178
  Beta  occ. eigenvalues --   -0.25605  -0.24496  -0.23880  -0.23555  -0.22931
  Beta  occ. eigenvalues --   -0.18516  -0.17646  -0.16906  -0.16131
  Beta virt. eigenvalues --    0.06349   0.07157   0.07515   0.07757   0.08288
  Beta virt. eigenvalues --    0.09033   0.09492   0.09585   0.10291   0.10630
  Beta virt. eigenvalues --    0.11399   0.11859   0.11925   0.12275   0.12862

 Mulliken charges and spin densities:
               1          2
     1  C    0.597772  -1.238702
     2  C   -1.672891   1.255054
     3  C    1.639371  -1.219538
     4  C   -1.032518   0.717588
     5  C    0.856300  -1.201262
     6  O    0.026554   0.009994
     7  C   -0.446298   0.162338
     8  O   -0.258746   0.010241
     9  N   -0.227065  -0.020936
    10  C   -1.895933   2.074103
    11  C    0.865090  -1.367161
    12  C    1.360488  -1.916095
    13  C    0.373246  -0.556126
    14  C    0.284792  -0.861100
    15  O   -0.180229  -0.003112
    16  H   -0.216868   0.376660
    17  H   -0.006376   0.171395
    18  H   -0.122228   0.257138
    19  H    0.016270   0.261640
    20  H    0.209252   0.070907
    21  H   -0.011455   0.175459
    22  H    0.137615  -0.006597
    23  H   -0.143666   0.283441
    24  H   -0.006593   0.181765
    25  H    0.224326   0.094485
    26  H   -0.089952   0.268959
    27  H   -0.383082   0.563013
    28  H   -0.249443   0.303766
    29  H   -0.045006   0.236516
    30  H   -0.397722   0.579340
    31  H   -0.375851   0.528174
    32  H    0.506577  -0.272501
    33  H   -0.373950   0.553227
    34  H   -0.063986   0.239785
    35  H   -0.044251   0.192493
    36  H    0.146457   0.095650
 Sum of Mulliken charges =  -1.00000   1.00000

 Dipole moment (field-independent basis, Debye):
    X=              3.0322    Y=              1.8426    Z=              2.6314  Tot=              4.4175
 Quadrupole moment (field-independent basis, Debye-Ang):
   XX=           -164.2943   YY=           -139.8693   ZZ=           -141.3618
   XY=             -1.9741   XZ=             -5.9769   YZ=              0.0196

 Summary of Natural Population Analysis:

                                       Natural Population
                Natural  -----------------------------------------------
    Atom  No    Charge         Core      Valence    Rydberg      Total
 -----------------------------------------------------------------------
      C    1   -0.29282      0.99964     2.28739    0.00579     3.29282
      C    2    0.06248      0.99955     1.92400    0.01397     2.93752
      C    3   -0.16002      0.99952     2.14919    0.01130     3.16002
      C    4   -0.20823      0.99961     2.20042    0.00820     3.20823
      C    5   -0.01066      0.99959     1.99874    0.01232     3.01066
      O    6   -0.30134      0.99989     3.29338    0.00808     4.30134
      C    7    0.36127      0.99964     1.61739    0.02170     2.63873
      O    8   -0.30897      0.99988     3.30338    0.00572     4.30897
      N    9   -0.35660      0.99966     2.84480    0.01214     3.85660
      C   10    0.05835      0.99956     1.92656    0.01552     2.94165
      C   11   -0.28592      0.99961     2.27926    0.00705     3.28592
      C   12   -0.29345      0.99961     2.28567    0.00817     3.29345
      C   13   -0.21794      0.99955     2.20747    0.01091     3.21794
      C   14   -0.00844      0.99959     1.99644    0.01240     3.00844
      O   15   -0.38123      0.99990     3.37506    0.00628     4.38123
      H   16    0.10417      0.00000     0.39480    0.00103     0.39583
      H   17    0.10279      0.00000     0.39625    0.00096     0.39721
      H   18    0.09895      0.00000     0.39984    0.00121     0.40105
      H   19    0.09220      0.00000     0.40489    0.00291     0.40780
      H   20    0.11298      0.00000     0.38525    0.00177     0.38702
      H   21    0.10268      0.00000     0.39644    0.00089     0.39732
      H   22    0.11619      0.00000     0.38137    0.00244     0.38381
      H   23    0.07828      0.00000     0.42033    0.00139     0.42172
      H   24    0.09318      0.00000     0.40583    0.00099     0.40682
      H   25    0.19389      0.00000     0.30333    0.00279     0.30611
      H   26    0.10294      0.00000     0.39579    0.00127     0.39706
      H   27    0.10845      0.00000     0.38973    0.00182     0.39155
      H   28    0.09770      0.00000     0.40087    0.00144     0.40230
      H   29    0.10370      0.00000     0.39485    0.00144     0.39630
      H   30    0.11144      0.00000     0.38633    0.00224     0.38856
      H   31    0.10293      0.00000     0.39552    0.00155     0.39707
      H   32    0.10948      0.00000     0.38681    0.00371     0.39052
      H   33    0.10916      0.00000     0.38916    0.00169     0.39084
      H   34    0.08542      0.00000     0.41350    0.00108     0.41458
      H   35    0.07766      0.00000     0.42086    0.00147     0.42234
      H   36    0.23936      0.00000     0.25722    0.00342     0.26064
 =======================================================================
   * Total *   -0.00000     14.99481    43.80813    0.19706    59.00000

 Normal termination of Gaussian 16 at Thu Dec 10 18:14:35 2020.
