 Gaussian 16, Revision A.03,

 -----------------------------------------------------------
 # opt freq B3LYP/6-31G(d) empiricaldispersion=gd3bj scf=xqc
 -----------------------------------------------------------

 -------------------------------
 CID_106925864_JID_6820_neutraal
 -------------------------------
 Symbolic Z-matrix:
 Charge =  0 Multiplicity = 1

 SCF Done:  E(RB3LYP) =  -1088.17179360     A.U. after   14 cycles
 SCF Done:  E(RB3LYP) =  -1088.17666000     A.U. after   12 cycles
 SCF Done:  E(RB3LYP) =  -1088.17747982     A.U. after   13 cycles
 SCF Done:  E(RB3LYP) =  -1088.17798622     A.U. after   13 cycles
 SCF Done:  E(RB3LYP) =  -1088.17887130     A.U. after   12 cycles
 SCF Done:  E(RB3LYP) =  -1088.17918438     A.U. after   11 cycles
 SCF Done:  E(RB3LYP) =  -1088.17937776     A.U. after   11 cycles
 SCF Done:  E(RB3LYP) =  -1088.17950504     A.U. after   10 cycles
 SCF Done:  E(RB3LYP) =  -1088.17978664     A.U. after   11 cycles
 SCF Done:  E(RB3LYP) =  -1088.18008400     A.U. after   11 cycles
 SCF Done:  E(RB3LYP) =  -1088.18030009     A.U. after   10 cycles
 SCF Done:  E(RB3LYP) =  -1088.18031523     A.U. after   10 cycles
 SCF Done:  E(RB3LYP) =  -1088.18031649     A.U. after   10 cycles
 SCF Done:  E(RB3LYP) =  -1088.18031732     A.U. after   10 cycles
 SCF Done:  E(RB3LYP) =  -1088.18031736     A.U. after    7 cycles
 Optimization completed.
    -- Stationary point found.
 Normal termination of Gaussian 16 at Fri Dec 11 00:45:37 2020.

 --------------------------------------------------------------------
 #N Geom=AllCheck Guess=TCheck SCRF=Check GenChk RB3LYP/6-31G(d) Freq
 --------------------------------------------------------------------

 Structure from the checkpoint file:  "JID_6820.chk"
 -------------------------------
 CID_106925864_JID_6820_neutraal
 -------------------------------
 Charge =  0 Multiplicity = 1

 SCF Done:  E(RB3LYP) =  -1088.18031736     A.U. after    1 cycles

  Exact polarizability: 143.240   2.370 170.836   0.631   0.316 124.262
 Approx polarizability: 182.768   3.789 243.577  -0.309   0.227 214.170

                      1                      2                      3
                      A                      A                      A
 Frequencies --     15.6478                32.2621                35.4416
 Red. masses --      5.2659                 3.1748                 4.1864
 Frc consts  --      0.0008                 0.0019                 0.0031
 IR Inten    --      2.4470                 0.7158                 0.2005

                      4                      5                      6
                      A                      A                      A
 Frequencies --     53.0095                73.1838               114.1014
 Red. masses --      4.7128                 4.5898                 3.1015
 Frc consts  --      0.0078                 0.0145                 0.0238
 IR Inten    --      1.6594                 0.1867                 1.1755

                      7                      8                      9
                      A                      A                      A
 Frequencies --    132.2873               149.0797               208.3147
 Red. masses --      1.1398                 3.6836                 3.5578
 Frc consts  --      0.0118                 0.0482                 0.0910
 IR Inten    --      0.3321                 1.0762                 3.7983

                     10                     11                     12
                      A                      A                      A
 Frequencies --    218.9295               235.2037               242.7293
 Red. masses --      4.1803                 2.0680                 2.9105
 Frc consts  --      0.1180                 0.0674                 0.1010
 IR Inten    --      4.0037                 1.2352                 1.5018

                     13                     14                     15
                      A                      A                      A
 Frequencies --    270.8273               331.3199               355.9117
 Red. masses --      2.3050                 4.8699                 2.9671
 Frc consts  --      0.0996                 0.3150                 0.2214
 IR Inten    --      2.1279                 1.9454                10.0597

                     16                     17                     18
                      A                      A                      A
 Frequencies --    376.4622               397.1164               415.8616
 Red. masses --      2.3493                 4.2166                 3.7405
 Frc consts  --      0.1962                 0.3918                 0.3811
 IR Inten    --      2.4895                 0.6795                 5.6203

                     19                     20                     21
                      A                      A                      A
 Frequencies --    472.2621               474.9218               488.7103
 Red. masses --      4.1638                 2.8374                 2.9146
 Frc consts  --      0.5471                 0.3771                 0.4101
 IR Inten    --      0.6198                 2.3174                 1.0312

                     22                     23                     24
                      A                      A                      A
 Frequencies --    514.4768               621.9090               640.0757
 Red. masses --      2.9237                 2.0851                 3.1822
 Frc consts  --      0.4560                 0.4751                 0.7681
 IR Inten    --      0.2514                29.4583                 3.9267

                     25                     26                     27
                      A                      A                      A
 Frequencies --    648.6366               689.9507               710.6927
 Red. masses --      4.7430                 5.0871                 7.0675
 Frc consts  --      1.1757                 1.4268                 2.1032
 IR Inten    --      5.6222                 8.4913                13.5709

                     28                     29                     30
                      A                      A                      A
 Frequencies --    749.2147               821.0353               831.5921
 Red. masses --      1.4432                 1.5992                 2.2028
 Frc consts  --      0.4773                 0.6351                 0.8975
 IR Inten    --     13.5277                39.5926                 4.2948

                     31                     32                     33
                      A                      A                      A
 Frequencies --    838.8066               855.5883               896.3496
 Red. masses --      1.6118                 1.6812                 2.6050
 Frc consts  --      0.6681                 0.7251                 1.2331
 IR Inten    --     17.7000                27.9087                 8.5452

                     34                     35                     36
                      A                      A                      A
 Frequencies --    925.6191               957.3539               991.6726
 Red. masses --      2.0813                 5.8341                 2.0399
 Frc consts  --      1.0506                 3.1504                 1.1819
 IR Inten    --      4.1603                12.4520                29.0956

                     37                     38                     39
                      A                      A                      A
 Frequencies --   1004.0171              1012.7012              1020.1618
 Red. masses --      2.8415                 1.4073                 1.9001
 Frc consts  --      1.6877                 0.8504                 1.1651
 IR Inten    --      5.6164                 5.0999                 6.4955

                     40                     41                     42
                      A                      A                      A
 Frequencies --   1030.9171              1036.9261              1054.0258
 Red. masses --      2.3560                 2.1443                 1.8929
 Frc consts  --      1.4752                 1.3584                 1.2390
 IR Inten    --     19.4176                 7.4064                 7.1456

                     43                     44                     45
                      A                      A                      A
 Frequencies --   1083.2968              1099.1697              1122.8194
 Red. masses --      1.4909                 2.5822                 8.0149
 Frc consts  --      1.0309                 1.8381                 5.9535
 IR Inten    --      3.5184                 5.4958                28.1670

                     46                     47                     48
                      A                      A                      A
 Frequencies --   1131.9534              1160.2249              1165.1870
 Red. masses --      3.3691                 2.3931                 2.7037
 Frc consts  --      2.5435                 1.8980                 2.1628
 IR Inten    --     58.5617                26.4954                14.2251

                     49                     50                     51
                      A                      A                      A
 Frequencies --   1177.9896              1185.2913              1203.3738
 Red. masses --      3.4080                 2.4649                 1.2828
 Frc consts  --      2.7863                 2.0404                 1.0945
 IR Inten    --     46.5266                27.9343                 9.3792

                     52                     53                     54
                      A                      A                      A
 Frequencies --   1228.9372              1272.6246              1285.4994
 Red. masses --      1.1930                 1.2854                 2.4273
 Frc consts  --      1.0616                 1.2265                 2.3633
 IR Inten    --     12.4375                27.5915                10.9637

                     55                     56                     57
                      A                      A                      A
 Frequencies --   1291.3326              1295.7937              1322.1860
 Red. masses --      1.3404                 1.3228                 1.3241
 Frc consts  --      1.3169                 1.3086                 1.3638
 IR Inten    --     16.9637                 4.3215                 2.4010

                     58                     59                     60
                      A                      A                      A
 Frequencies --   1328.1657              1342.3683              1350.9608
 Red. masses --      2.4982                 1.3946                 1.3316
 Frc consts  --      2.5965                 1.4806                 1.4319
 IR Inten    --     28.6593                15.1294                 2.7053

                     61                     62                     63
                      A                      A                      A
 Frequencies --   1360.9475              1394.9790              1400.7218
 Red. masses --      1.1858                 1.2997                 1.3239
 Frc consts  --      1.2941                 1.4902                 1.5304
 IR Inten    --      8.0116                 0.9046                18.3615

                     64                     65                     66
                      A                      A                      A
 Frequencies --   1414.9686              1435.5298              1445.2803
 Red. masses --      1.4646                 1.5075                 1.3055
 Frc consts  --      1.7277                 1.8303                 1.6067
 IR Inten    --     35.7576                21.9745                 2.7548

                     67                     68                     69
                      A                      A                      A
 Frequencies --   1445.7613              1479.6564              1502.9952
 Red. masses --      1.3054                 1.0965                 1.0858
 Frc consts  --      1.6076                 1.4144                 1.4452
 IR Inten    --      7.8309                 6.4219                 0.1313

                     70                     71                     72
                      A                      A                      A
 Frequencies --   1505.7596              1516.9305              1519.8453
 Red. masses --      1.0501                 1.2013                 1.1311
 Frc consts  --      1.4028                 1.6287                 1.5394
 IR Inten    --      5.8258                11.6967                10.9044

                     73                     74                     75
                      A                      A                      A
 Frequencies --   1522.0861              1528.8307              1533.7048
 Red. masses --      1.0821                 1.1518                 3.8878
 Frc consts  --      1.4770                 1.5861                 5.3881
 IR Inten    --      0.3730                 1.7561                34.2928

                     76                     77                     78
                      A                      A                      A
 Frequencies --   1535.2653              1559.4907              1648.4322
 Red. masses --      1.1067                 1.2173                 5.7758
 Frc consts  --      1.5370                 1.7443                 9.2471
 IR Inten    --      1.2336                23.8548                19.9342

                     79                     80                     81
                      A                      A                      A
 Frequencies --   2901.9799              2958.4000              2967.9825
 Red. masses --      1.0806                 1.0725                 1.0726
 Frc consts  --      5.3615                 5.5303                 5.5670
 IR Inten    --     51.9916                68.2275                23.3300

                     82                     83                     84
                      A                      A                      A
 Frequencies --   2975.6882              3040.6134              3049.8737
 Red. masses --      1.0725                 1.0608                 1.0628
 Frc consts  --      5.5952                 5.7783                 5.8249
 IR Inten    --    127.7560                27.1147                16.6248

                     85                     86                     87
                      A                      A                      A
 Frequencies --   3054.5887              3067.0504              3087.0875
 Red. masses --      1.0363                 1.0835                 1.1018
 Frc consts  --      5.6970                 6.0049                 6.1864
 IR Inten    --     24.0049                21.0537                24.9876

                     88                     89                     90
                      A                      A                      A
 Frequencies --   3089.7909              3097.8460              3108.5915
 Red. masses --      1.0628                 1.1020                 1.0919
 Frc consts  --      5.9783                 6.2312                 6.2166
 IR Inten    --     26.0763                40.3977                43.7048

                     91                     92                     93
                      A                      A                      A
 Frequencies --   3111.5129              3111.6911              3136.7115
 Red. masses --      1.0935                 1.1011                 1.1022
 Frc consts  --      6.2374                 6.2817                 6.3893
 IR Inten    --     38.3028                19.6569                14.6428

                     94                     95                     96
                      A                      A                      A
 Frequencies --   3152.0265              3310.2729              3505.7523
 Red. masses --      1.1058                 1.1000                 1.0741
 Frc consts  --      6.4727                 7.1015                 7.7778
 IR Inten    --      5.8231                 0.5979                13.7274

 - Thermochemistry -
 -------------------
 Temperature   298.150 Kelvin.  Pressure   1.00000 Atm.
 Atom     1 has atomic number  6 and mass  12.00000

 Molecular mass:   242.10890 amu.
 Principal axes and moments of inertia in atomic units:
                           1         2         3
     Eigenvalues --  2727.955426052.886967900.18588
           X            0.99981  -0.01888  -0.00514
           Y            0.01880   0.99970  -0.01597
           Z            0.00544   0.01587   0.99986
 This molecule is an asymmetric top.
 Rotational symmetry number  1.
 Warning -- assumption of classical behavior for rotation
           may cause significant error
 Rotational temperatures (Kelvin)      0.03175     0.01431     0.01096
 Rotational constants (GHZ):           0.66157     0.29816     0.22844
 Zero-point vibrational energy     762446.6 (Joules/Mol)
                                  182.22912 (Kcal/Mol)
 Warning -- explicit consideration of  22 degrees of freedom as
           vibrations may cause significant error
 Vibrational temperatures:     22.51    46.42    50.99    76.27   105.30
          (Kelvin)            164.17   190.33   214.49   299.72   314.99
                              338.41   349.23   389.66   476.70   512.08
                              541.65   571.36   598.33   679.48   683.31
                              703.15   740.22   894.79   920.93   933.24
                              992.69  1022.53  1077.95  1181.29  1196.48
                             1206.86  1231.00  1289.65  1331.76  1377.42
                             1426.80  1444.56  1457.05  1467.79  1483.26
                             1491.91  1516.51  1558.62  1581.46  1615.49
                             1628.63  1669.30  1676.44  1694.86  1705.37
                             1731.39  1768.17  1831.02  1849.55  1857.94
                             1864.36  1902.33  1910.93  1931.37  1943.73
                             1958.10  2007.06  2015.33  2035.82  2065.41
                             2079.44  2080.13  2128.90  2162.47  2166.45
                             2182.52  2186.72  2189.94  2199.65  2206.66
                             2208.90  2243.76  2371.73  4175.30  4256.48
                             4270.26  4281.35  4374.76  4388.09  4394.87
                             4412.80  4441.63  4445.52  4457.11  4472.57
                             4476.77  4477.03  4513.03  4535.06  4762.74
                             5044.00

 Zero-point correction=                           0.290401 (Hartree/Particle)
 Thermal correction to Energy=                    0.306465
 Thermal correction to Enthalpy=                  0.307409
 Thermal correction to Gibbs Free Energy=         0.243993
 Sum of electronic and zero-point Energies=          -1087.889917
 Sum of electronic and thermal Energies=             -1087.873853
 Sum of electronic and thermal Enthalpies=           -1087.872908
 Sum of electronic and thermal Free Energies=        -1087.936324

                     E (Thermal)             CV                S
                      KCal/Mol        Cal/Mol-Kelvin    Cal/Mol-Kelvin
 Total                  192.310             59.752            133.469
 Electronic               0.000              0.000              0.000
 Translational            0.889              2.981             42.354
 Rotational               0.889              2.981             33.233
 Vibrational            190.532             53.790             57.882
 Vibration     1          0.593              1.986              7.122
 Vibration     2          0.594              1.983              5.685
 Vibration     3          0.594              1.982              5.499
 Vibration     4          0.596              1.976              4.702
 Vibration     5          0.599              1.967              4.066
 Vibration     6          0.607              1.938              3.198
 Vibration     7          0.612              1.921              2.913
 Vibration     8          0.618              1.904              2.684
 Vibration     9          0.642              1.828              2.058
 Vibration    10          0.647              1.812              1.968
 Vibration    11          0.655              1.787              1.839
 Vibration    12          0.659              1.775              1.783
 Vibration    13          0.675              1.727              1.591
 Vibration    14          0.714              1.613              1.254
 Vibration    15          0.731              1.563              1.140
 Vibration    16          0.747              1.520              1.053
 Vibration    17          0.764              1.476              0.973
 Vibration    18          0.779              1.436              0.906
 Vibration    19          0.829              1.312              0.731
 Vibration    20          0.832              1.306              0.724
 Vibration    21          0.845              1.275              0.687
 Vibration    22          0.870              1.218              0.623

 Optimization completed.
    -- Stationary point found.
 Normal termination of Gaussian 16 at Fri Dec 11 00:56:25 2020.

 ----------------------------------------------------------------------
 # B3LYP/6-311++G(d,p) empiricaldispersion=gd3bj scf=xqc pop=npa geom=c
 heck
 ----------------------------------------------------------------------

 ---------------------------------------
 CID_106925864_JID_6820_Energie_neutraal
 ---------------------------------------
 Structure from the checkpoint file:  "JID_6820.chk"
 Charge =  0 Multiplicity = 1

 SCF Done:  E(RB3LYP) =  -1088.40156756     A.U. after   15 cycles
 Normal termination of Gaussian 16 at Fri Dec 11 01:01:12 2020.

 ----------------------------------------------------------------------
 # B3LYP/6-311++G(d,p) empiricaldispersion=gd3bj scf=xqc pop=npa geom=c
 heck
 ----------------------------------------------------------------------

 -------------------------------------
 CID_106925864_JID_6820_Energie_kation
 -------------------------------------
 Structure from the checkpoint file:  "JID_6820.chk"
 Charge =  1 Multiplicity = 2

 SCF Done:  E(UB3LYP) =  -1088.10769762     A.U. after   25 cycles
 Normal termination of Gaussian 16 at Fri Dec 11 01:11:59 2020.
 Gaussian 16:  ES64L-G16RevA.03 25-Dec-2016

 ----------------------------------------------------------------------
 # B3LYP/6-311++G(d,p) empiricaldispersion=gd3bj scf=xqc pop=npa geom=c
 heck
 ----------------------------------------------------------------------

 ------------------------------------
 CID_106925864_JID_6820_Energie_anion
 ------------------------------------
 Structure from the checkpoint file:  "JID_6820.chk"
 Charge = -1 Multiplicity = 2

                         Standard orientation:
 ---------------------------------------------------------------------
 Center     Atomic      Atomic             Coordinates (Angstroms)
 Number     Number       Type             X           Y           Z
 ---------------------------------------------------------------------
      1          6           0       -1.626220    3.455041   -0.326294
      2          6           0       -2.026198    2.083552    0.103843
      3          6           0       -2.318285    1.606659    1.342276
      4          8           0       -2.623374    0.272823    1.232280
      5          6           0       -2.470881   -0.002195   -0.093810
      6          7           0       -2.125748    1.030459   -0.806593
      7         16           0       -2.721100   -1.651246   -0.646269
      8          6           0       -1.397714   -2.510551    0.321585
      9          6           0        0.015702   -2.290197   -0.213286
     10          7           0        0.400634   -0.888506   -0.113616
     11          6           0        1.807706   -0.600887   -0.385756
     12          6           0        2.711503   -1.022814    0.781445
     13          6           0        4.143565   -0.535906    0.553252
     14          8           0        4.201658    0.871699    0.371643
     15          6           0        3.442542    1.284304   -0.755561
     16          6           0        1.968111    0.907408   -0.614323
     17          1           0       -0.633895    3.439631   -0.791428
     18          1           0       -2.328836    3.852028   -1.067328
     19          1           0       -1.596773    4.140815    0.525511
     20          1           0       -2.356303    2.029939    2.333158
     21          1           0       -1.473406   -2.179162    1.359470
     22          1           0       -1.671278   -3.568979    0.268571
     23          1           0        0.692981   -2.884206    0.413001
     24          1           0        0.092752   -2.693986   -1.239492
     25          1           0       -0.161200   -0.348927   -0.768671
     26          1           0        2.162434   -1.124121   -1.297647
     27          1           0        2.313956   -0.581741    1.703122
     28          1           0        2.716433   -2.112549    0.908880
     29          1           0        4.777041   -0.756734    1.417101
     30          1           0        4.578940   -1.044145   -0.325747
     31          1           0        3.859996    0.833168   -1.673242
     32          1           0        3.567775    2.368643   -0.826735
     33          1           0        1.414835    1.218000   -1.511139
     34          1           0        1.532674    1.435925    0.242773
 ---------------------------------------------------------------------

 SCF Done:  E(UB3LYP) =  -1088.38847143     A.U. after   33 cycles
 SCF Done:  E(UB3LYP) =  -1088.38847143     a.u. after    1 cycles

 The electronic state is 2-A.
 Alpha  occ. eigenvalues --  -88.75894 -19.09872 -19.03275 -14.21274 -14.19717
 Alpha  occ. eigenvalues --  -10.17666 -10.12710 -10.12466 -10.12451 -10.11158
 Alpha  occ. eigenvalues --  -10.10562 -10.10233 -10.09948 -10.08132 -10.07303
 Alpha  occ. eigenvalues --  -10.07052  -7.84470  -5.80883  -5.80493  -5.79837
 Alpha  occ. eigenvalues --   -1.03532  -0.94786  -0.82895  -0.81664  -0.72489
 Alpha  occ. eigenvalues --   -0.69546  -0.67355  -0.66872  -0.62552  -0.59294
 Alpha  occ. eigenvalues --   -0.55077  -0.54048  -0.50988  -0.50585  -0.47317
 Alpha  occ. eigenvalues --   -0.46926  -0.41793  -0.41394  -0.39375  -0.38449
 Alpha  occ. eigenvalues --   -0.38259  -0.37115  -0.36416  -0.35539  -0.34296
 Alpha  occ. eigenvalues --   -0.33525  -0.32527  -0.32229  -0.30944  -0.30012
 Alpha  occ. eigenvalues --   -0.29549  -0.28701  -0.28016  -0.27622  -0.26330
 Alpha  occ. eigenvalues --   -0.25445  -0.24273  -0.23031  -0.21568  -0.21367
 Alpha  occ. eigenvalues --   -0.20049  -0.16940  -0.16555  -0.13822  -0.13053
 Alpha  occ. eigenvalues --    0.04340
 Alpha virt. eigenvalues --    0.05761   0.06382   0.07112   0.07555   0.08281
 Alpha virt. eigenvalues --    0.08508   0.09486   0.09524   0.10015   0.10774
 Alpha virt. eigenvalues --    0.11197   0.11422   0.11595   0.12012   0.12667

  Beta  occ. eigenvalues --  -88.75891 -19.09796 -19.03271 -14.21243 -14.19704
  Beta  occ. eigenvalues --  -10.17579 -10.12655 -10.12452 -10.12438 -10.11171
  Beta  occ. eigenvalues --  -10.10557 -10.10150 -10.09927 -10.08106 -10.07298
  Beta  occ. eigenvalues --  -10.07041  -7.84466  -5.80874  -5.80492  -5.79831
  Beta  occ. eigenvalues --   -1.03408  -0.94775  -0.82811  -0.81631  -0.72377
  Beta  occ. eigenvalues --   -0.69499  -0.67333  -0.66810  -0.62477  -0.59210
  Beta  occ. eigenvalues --   -0.55041  -0.53986  -0.50943  -0.50461  -0.47279
  Beta  occ. eigenvalues --   -0.46835  -0.41714  -0.41350  -0.39346  -0.38342
  Beta  occ. eigenvalues --   -0.38107  -0.37043  -0.36382  -0.35457  -0.34238
  Beta  occ. eigenvalues --   -0.33477  -0.32457  -0.32189  -0.30895  -0.29957
  Beta  occ. eigenvalues --   -0.29518  -0.28645  -0.27964  -0.27543  -0.26304
  Beta  occ. eigenvalues --   -0.25409  -0.24042  -0.22994  -0.21533  -0.21188
  Beta  occ. eigenvalues --   -0.19996  -0.16909  -0.16406  -0.13698  -0.12907
  Beta virt. eigenvalues --    0.06334   0.06777   0.07172   0.07677   0.08049
  Beta virt. eigenvalues --    0.08650   0.08872   0.09823   0.09909   0.10251
  Beta virt. eigenvalues --    0.11077   0.11368   0.11609   0.11762   0.12468

 Mulliken charges and spin densities:
               1          2
     1  C    0.500463  -1.096865
     2  C   -0.345778   0.536574
     3  C    0.039809  -0.002388
     4  O    0.168102   0.022321
     5  C   -0.636105  -0.115668
     6  N    0.128612   0.038529
     7  S    0.341491  -0.226285
     8  C    1.025640  -1.428707
     9  C   -0.288455  -0.129633
    10  N    0.267059   0.047367
    11  C   -0.145428  -0.290788
    12  C   -0.152512   0.150253
    13  C    0.294712  -0.839026
    14  O   -0.134855   0.039911
    15  C    0.000528  -0.715933
    16  C   -0.763969   0.777452
    17  H   -0.151355   0.314082
    18  H   -0.014538   0.169295
    19  H   -0.259038   0.405511
    20  H   -0.230065   0.402128
    21  H    0.282978  -0.090327
    22  H   -0.739674   0.994952
    23  H   -0.292543   0.437460
    24  H   -0.077192   0.181239
    25  H    0.098022   0.047811
    26  H    0.136518   0.026999
    27  H    0.146556   0.036057
    28  H   -0.254879   0.375516
    29  H   -0.099694   0.287822
    30  H    0.011606   0.107057
    31  H   -0.016777   0.139792
    32  H   -0.177397   0.380640
    33  H    0.102705   0.042147
    34  H    0.235454  -0.025297
 Sum of Mulliken charges =  -1.00000   1.00000

 Dipole moment (field-independent basis, Debye):
    X=             -0.6697    Y=              1.6543    Z=             -0.7691  Tot=              1.9434
 Quadrupole moment (field-independent basis, Debye-Ang):
   XX=           -166.4572   YY=           -176.7974   ZZ=           -132.1381
   XY=             -6.8373   XZ=             -5.4795   YZ=              1.9867

 Summary of Natural Population Analysis:

                                       Natural Population
                Natural  -----------------------------------------------
    Atom  No    Charge         Core      Valence    Rydberg      Total
 -----------------------------------------------------------------------
      C    1   -0.29749      0.99963     2.29177    0.00609     3.29749
      C    2    0.03850      0.99954     1.94814    0.01382     2.96150
      C    3    0.04597      0.99942     1.94059    0.01403     2.95403
      O    4   -0.23231      0.99985     3.22456    0.00789     4.23231
      C    5    0.19231      0.99958     1.78416    0.02395     2.80769
      N    6   -0.26201      0.99965     2.75274    0.00962     3.76201
      S    7    0.11517      4.99951     2.86611    0.01922     7.88483
      C    8   -0.23714      0.99957     2.22489    0.01267     3.23714
      C    9   -0.08999      0.99960     2.07874    0.01165     3.08999
      N   10   -0.34777      0.99971     2.83668    0.01138     3.84777
      C   11   -0.00484      0.99958     1.99367    0.01159     3.00484
      C   12   -0.20962      0.99960     2.20048    0.00953     3.20962
      C   13   -0.00942      0.99958     1.99716    0.01268     3.00942
      O   14   -0.30017      0.99989     3.29100    0.00929     4.30017
      C   15   -0.00881      0.99958     1.99646    0.01277     3.00881
      C   16   -0.20829      0.99961     2.19939    0.00929     3.20829
      H   17    0.10833      0.00000     0.39024    0.00143     0.39167
      H   18    0.10469      0.00000     0.39423    0.00108     0.39531
      H   19    0.10492      0.00000     0.39409    0.00100     0.39508
      H   20    0.09814      0.00000     0.40081    0.00105     0.40186
      H   21    0.10782      0.00000     0.39045    0.00172     0.39218
      H   22    0.11031      0.00000     0.38693    0.00276     0.38969
      H   23    0.09783      0.00000     0.40017    0.00200     0.40217
      H   24    0.08114      0.00000     0.41735    0.00151     0.41886
      H   25    0.18144      0.00000     0.31350    0.00506     0.31856
      H   26    0.07603      0.00000     0.42172    0.00225     0.42397
      H   27    0.10272      0.00000     0.39570    0.00159     0.39728
      H   28    0.10252      0.00000     0.39592    0.00156     0.39748
      H   29    0.09159      0.00000     0.40726    0.00115     0.40841
      H   30    0.07491      0.00000     0.42375    0.00134     0.42509
      H   31    0.07429      0.00000     0.42442    0.00129     0.42571
      H   32    0.09284      0.00000     0.40592    0.00124     0.40716
      H   33    0.10193      0.00000     0.39680    0.00127     0.39807
      H   34    0.10447      0.00000     0.39367    0.00186     0.39553
 =======================================================================
   * Total *   -0.00000     19.99391    44.77946    0.22663    65.00000

 Normal termination of Gaussian 16 at Fri Dec 11 01:26:26 2020.
