 Gaussian 16, Revision A.03,

 -----------------------------------------------------------
 # opt freq B3LYP/6-31G(d) empiricaldispersion=gd3bj scf=xqc
 -----------------------------------------------------------

 -------------------------------
 CID_107853910_JID_8253_neutraal
 -------------------------------
 Symbolic Z-matrix:
 Charge =  0 Multiplicity = 1

 SCF Done:  E(RB3LYP) =  -914.442815231     A.U. after   15 cycles
 SCF Done:  E(RB3LYP) =  -914.449116451     A.U. after   13 cycles
 SCF Done:  E(RB3LYP) =  -914.448287204     A.U. after   12 cycles
 SCF Done:  E(RB3LYP) =  -914.448229152     A.U. after   13 cycles
 SCF Done:  E(RB3LYP) =  -914.446845577     A.U. after   12 cycles
 SCF Done:  E(RB3LYP) =  -914.449296554     A.U. after    9 cycles
 SCF Done:  E(RB3LYP) =  -914.449963431     A.U. after   12 cycles
 SCF Done:  E(RB3LYP) =  -914.449684062     A.U. after   13 cycles
 SCF Done:  E(RB3LYP) =  -914.450451265     A.U. after   12 cycles
 SCF Done:  E(RB3LYP) =  -914.450995243     A.U. after   13 cycles
 SCF Done:  E(RB3LYP) =  -914.466948149     A.U. after   11 cycles
 SCF Done:  E(RB3LYP) =  -914.466958042     A.U. after    9 cycles
 SCF Done:  E(RB3LYP) =  -914.466959510     A.U. after    9 cycles
 SCF Done:  E(RB3LYP) =  -914.466960770     A.U. after    8 cycles
 SCF Done:  E(RB3LYP) =  -914.466961306     A.U. after    8 cycles
 SCF Done:  E(RB3LYP) =  -914.466961582     A.U. after    8 cycles
 Optimization completed.
    -- Stationary point found.
 Normal termination of Gaussian 16 at Fri Dec 11 20:10:13 2020.

 --------------------------------------------------------------------
 #N Geom=AllCheck Guess=TCheck SCRF=Check GenChk RB3LYP/6-31G(d) Freq
 --------------------------------------------------------------------

 Structure from the checkpoint file:  "JID_8253.chk"
 -------------------------------
 CID_107853910_JID_8253_neutraal
 -------------------------------
 Charge =  0 Multiplicity = 1

 SCF Done:  E(RB3LYP) =  -914.466961582     A.U. after    1 cycles

  Exact polarizability: 176.322   0.790 153.970   6.989   2.839  93.293
 Approx polarizability: 247.084   1.682 250.465  17.463  10.253 144.843

                      1                      2                      3
                      A                      A                      A
 Frequencies --     37.5376                42.6845                68.9831
 Red. masses --      6.2670                 5.2184                 7.6015
 Frc consts  --      0.0052                 0.0056                 0.0213
 IR Inten    --      0.3586                 2.0150                 0.3215

                      4                      5                      6
                      A                      A                      A
 Frequencies --     81.5948               112.8202               121.5412
 Red. masses --      6.5197                 4.4301                 4.0848
 Frc consts  --      0.0256                 0.0332                 0.0356
 IR Inten    --      5.6394                 2.1675                 7.8918

                      7                      8                      9
                      A                      A                      A
 Frequencies --    155.2136               167.9985               190.3340
 Red. masses --      4.7188                 5.6915                 3.6316
 Frc consts  --      0.0670                 0.0946                 0.0775
 IR Inten    --      2.7151                 4.9334                 6.0019

                     10                     11                     12
                      A                      A                      A
 Frequencies --    199.5542               202.7176               236.1198
 Red. masses --      3.6504                 6.6906                 3.1253
 Frc consts  --      0.0856                 0.1620                 0.1027
 IR Inten    --      5.3526                 2.8408                 5.3896

                     13                     14                     15
                      A                      A                      A
 Frequencies --    277.6436               286.0922               327.8093
 Red. masses --      5.5067                 3.9950                 2.7411
 Frc consts  --      0.2501                 0.1927                 0.1735
 IR Inten    --      5.8029                 3.1196                 2.8145

                     16                     17                     18
                      A                      A                      A
 Frequencies --    367.9748               390.2405               395.0190
 Red. masses --      2.1453                 4.9679                 3.7900
 Frc consts  --      0.1712                 0.4457                 0.3484
 IR Inten    --      9.9637                 1.7250                 0.5316

                     19                     20                     21
                      A                      A                      A
 Frequencies --    425.7651               428.6900               452.9951
 Red. masses --      3.2264                 3.9626                 2.4514
 Frc consts  --      0.3446                 0.4291                 0.2964
 IR Inten    --     11.8313                 2.5702                22.3947

                     22                     23                     24
                      A                      A                      A
 Frequencies --    480.6451               491.3627               501.9007
 Red. masses --      2.2758                 2.1573                 2.8841
 Frc consts  --      0.3098                 0.3069                 0.4280
 IR Inten    --     29.0140                40.8486                20.7556

                     25                     26                     27
                      A                      A                      A
 Frequencies --    541.2498               610.3729               622.1265
 Red. masses --      3.4925                 1.6110                 2.3407
 Frc consts  --      0.6028                 0.3536                 0.5338
 IR Inten    --     41.7897               141.7755                10.1029

                     28                     29                     30
                      A                      A                      A
 Frequencies --    631.4888               652.8847               695.3700
 Red. masses --      1.9300                 4.6814                 2.5119
 Frc consts  --      0.4534                 1.1757                 0.7156
 IR Inten    --     52.1955                50.8622                91.2392

                     31                     32                     33
                      A                      A                      A
 Frequencies --    717.9023               727.3875               737.8695
 Red. masses --      2.4277                 2.3814                 4.1310
 Frc consts  --      0.7372                 0.7424                 1.3251
 IR Inten    --     32.4930                62.0099                39.6302

                     34                     35                     36
                      A                      A                      A
 Frequencies --    743.4831               769.7137               830.6941
 Red. masses --      1.3518                 1.6881                 2.4276
 Frc consts  --      0.4403                 0.5893                 0.9870
 IR Inten    --     79.7562                63.3141                 6.0864

                     37                     38                     39
                      A                      A                      A
 Frequencies --    846.1979               893.6415               927.5768
 Red. masses --      1.9600                 2.1994                 1.7817
 Frc consts  --      0.8269                 1.0348                 0.9032
 IR Inten    --     57.5668                13.5917                 0.1847

                     40                     41                     42
                      A                      A                      A
 Frequencies --    940.0419               949.5990               985.6480
 Red. masses --      2.4374                 1.6780                 1.5540
 Frc consts  --      1.2690                 0.8915                 0.8895
 IR Inten    --      0.2335                 4.2882                 4.5565

                     43                     44                     45
                      A                      A                      A
 Frequencies --   1008.1815              1021.6396              1029.6532
 Red. masses --      1.3142                 6.5230                 2.0913
 Frc consts  --      0.7870                 4.0114                 1.3063
 IR Inten    --      0.0565                 9.9102                 2.3177

                     46                     47                     48
                      A                      A                      A
 Frequencies --   1055.1353              1072.3583              1113.2484
 Red. masses --      6.8106                 5.8935                 2.2031
 Frc consts  --      4.4674                 3.9930                 1.6087
 IR Inten    --    114.7990                46.8561                69.8704

                     49                     50                     51
                      A                      A                      A
 Frequencies --   1114.4177              1128.9765              1145.0180
 Red. masses --      2.1507                 4.1718                 2.3894
 Frc consts  --      1.5737                 3.1328                 1.8457
 IR Inten    --     31.2884                39.5254                 4.2180

                     52                     53                     54
                      A                      A                      A
 Frequencies --   1169.1062              1177.9293              1198.8954
 Red. masses --      2.2749                 2.0431                 1.7861
 Frc consts  --      1.8320                 1.6702                 1.5126
 IR Inten    --     40.2094               172.4897                65.0202

                     55                     56                     57
                      A                      A                      A
 Frequencies --   1203.7068              1221.9448              1235.9426
 Red. masses --      1.6072                 1.6174                 1.2275
 Frc consts  --      1.3720                 1.4229                 1.1048
 IR Inten    --    131.4329                24.4307                 5.3189

                     58                     59                     60
                      A                      A                      A
 Frequencies --   1245.5416              1270.7955              1315.4670
 Red. masses --      1.6957                 1.4124                 1.4333
 Frc consts  --      1.5499                 1.3439                 1.4613
 IR Inten    --     26.3808                40.9893                10.0884

                     61                     62                     63
                      A                      A                      A
 Frequencies --   1330.1870              1336.1848              1386.3388
 Red. masses --      1.5917                 3.3142                 1.5456
 Frc consts  --      1.6593                 3.4862                 1.7502
 IR Inten    --     20.7653                 9.3716                16.1571

                     64                     65                     66
                      A                      A                      A
 Frequencies --   1390.1629              1400.2065              1409.1129
 Red. masses --      1.3429                 1.3729                 2.6560
 Frc consts  --      1.5291                 1.5859                 3.1072
 IR Inten    --      9.3259                 0.8731               110.4297

                     67                     68                     69
                      A                      A                      A
 Frequencies --   1434.2098              1438.0698              1466.9715
 Red. masses --      1.3671                 1.1665                 1.2497
 Frc consts  --      1.6569                 1.4214                 1.5845
 IR Inten    --      6.5834                52.2843               122.2090

                     70                     71                     72
                      A                      A                      A
 Frequencies --   1488.2632              1496.8615              1510.5523
 Red. masses --      3.6113                 1.8465                 1.2960
 Frc consts  --      4.7128                 2.4376                 1.7423
 IR Inten    --     20.4668                15.0542                20.5864

                     73                     74                     75
                      A                      A                      A
 Frequencies --   1515.4366              1526.9467              1537.2346
 Red. masses --      1.1352                 1.1173                 1.0903
 Frc consts  --      1.5360                 1.5349                 1.5180
 IR Inten    --     21.8406                40.1781                 6.1242

                     76                     77                     78
                      A                      A                      A
 Frequencies --   1554.4402              1570.4652              1631.5128
 Red. masses --      1.0847                 1.1872                 6.3648
 Frc consts  --      1.5442                 1.7252                 9.9820
 IR Inten    --      1.0884                36.7531                 0.9686

                     79                     80                     81
                      A                      A                      A
 Frequencies --   1651.8780              1820.7834              2964.7928
 Red. masses --      6.0083                 9.7860                 1.0720
 Frc consts  --      9.6595                19.1148                 5.5520
 IR Inten    --     62.5973               278.9504                61.1496

                     82                     83                     84
                      A                      A                      A
 Frequencies --   2977.7770              3009.9670              3045.7895
 Red. masses --      1.0732                 1.0750                 1.0623
 Frc consts  --      5.6069                 5.7385                 5.8061
 IR Inten    --     85.3359                40.6673                40.9634

                     85                     86                     87
                      A                      A                      A
 Frequencies --   3065.0787              3090.2597              3106.3053
 Red. masses --      1.0894                 1.0926                 1.1020
 Frc consts  --      6.0301                 6.1474                 6.2650
 IR Inten    --     43.3527                23.4013                64.0028

                     88                     89                     90
                      A                      A                      A
 Frequencies --   3136.5775              3198.0781              3213.4717
 Red. masses --      1.0872                 1.0879                 1.0949
 Frc consts  --      6.3017                 6.5559                 6.6613
 IR Inten    --      8.5881                 4.7550                14.5016

                     91                     92                     93
                      A                      A                      A
 Frequencies --   3245.5144              3518.3260              3558.2811
 Red. masses --      1.0937                 1.0729                 1.0658
 Frc consts  --      6.7879                 7.8253                 7.9504
 IR Inten    --      1.3924                14.4506               168.9701

                     94                     95                     96
                      A                      A                      A
 Frequencies --   3582.0362              3643.7150              3695.3369
 Red. masses --      1.0635                 1.0671                 1.0642
 Frc consts  --      8.0396                 8.3473                 8.5621
 IR Inten    --     88.1107               298.2736                86.4087

 - Thermochemistry -
 -------------------
 Temperature   298.150 Kelvin.  Pressure   1.00000 Atm.
 Atom     1 has atomic number  6 and mass  12.00000

 Molecular mass:   256.10592 amu.
 Principal axes and moments of inertia in atomic units:
                           1         2         3
     Eigenvalues --  2603.765206188.320817386.83788
           X            0.99998   0.00589  -0.00181
           Y           -0.00590   0.99997  -0.00512
           Z            0.00178   0.00513   0.99999
 This molecule is an asymmetric top.
 Rotational symmetry number  1.
 Warning -- assumption of classical behavior for rotation
           may cause significant error
 Rotational temperatures (Kelvin)      0.03326     0.01400     0.01173
 Rotational constants (GHZ):           0.69313     0.29164     0.24432
 Zero-point vibrational energy     735353.9 (Joules/Mol)
                                  175.75380 (Kcal/Mol)
 Warning -- explicit consideration of  26 degrees of freedom as
           vibrations may cause significant error
 Vibrational temperatures:     54.01    61.41    99.25   117.40   162.32
          (Kelvin)            174.87   223.32   241.71   273.85   287.11
                              291.67   339.72   399.47   411.62   471.64
                              529.43   561.47   568.34   612.58   616.79
                              651.76   691.54   706.96   722.12   778.74
                              878.19   895.10   908.57   939.36  1000.48
                             1032.90  1046.55  1061.63  1069.71  1107.45
                             1195.18  1217.49  1285.75  1334.58  1352.51
                             1366.26  1418.13  1450.55  1469.91  1481.44
                             1518.10  1542.88  1601.72  1603.40  1624.35
                             1647.43  1682.08  1694.78  1724.94  1731.87
                             1758.11  1778.25  1792.06  1828.39  1892.66
                             1913.84  1922.47  1994.63  2000.13  2014.58
                             2027.40  2063.51  2069.06  2110.64  2141.28
                             2153.65  2173.35  2180.38  2196.94  2211.74
                             2236.49  2259.55  2347.38  2376.68  2619.70
                             4265.68  4284.36  4330.67  4382.21  4409.96
                             4446.19  4469.28  4512.84  4601.32  4623.47
                             4669.57  5062.09  5119.57  5153.75  5242.49
                             5316.77

 Zero-point correction=                           0.280082 (Hartree/Particle)
 Thermal correction to Energy=                    0.297060
 Thermal correction to Enthalpy=                  0.298004
 Thermal correction to Gibbs Free Energy=         0.235373
 Sum of electronic and zero-point Energies=           -914.186880
 Sum of electronic and thermal Energies=              -914.169901
 Sum of electronic and thermal Enthalpies=            -914.168957
 Sum of electronic and thermal Free Energies=         -914.231588

                     E (Thermal)             CV                S
                      KCal/Mol        Cal/Mol-Kelvin    Cal/Mol-Kelvin
 Total                  186.408             65.506            131.818
 Electronic               0.000              0.000              0.000
 Translational            0.889              2.981             42.521
 Rotational               0.889              2.981             33.142
 Vibrational            184.631             59.544             56.154
 Vibration     1          0.594              1.982              5.385
 Vibration     2          0.595              1.980              5.130
 Vibration     3          0.598              1.969              4.182
 Vibration     4          0.600              1.962              3.852
 Vibration     5          0.607              1.939              3.220
 Vibration     6          0.609              1.931              3.076
 Vibration     7          0.620              1.897              2.607
 Vibration     8          0.625              1.882              2.458
 Vibration     9          0.634              1.853              2.225
 Vibration    10          0.638              1.841              2.137
 Vibration    11          0.639              1.836              2.108
 Vibration    12          0.655              1.785              1.832
 Vibration    13          0.679              1.715              1.548
 Vibration    14          0.684              1.700              1.497
 Vibration    15          0.711              1.620              1.271
 Vibration    16          0.741              1.538              1.088
 Vibration    17          0.758              1.491              0.999
 Vibration    18          0.762              1.481              0.981
 Vibration    19          0.788              1.414              0.873
 Vibration    20          0.790              1.408              0.863
 Vibration    21          0.812              1.354              0.787
 Vibration    22          0.837              1.293              0.708
 Vibration    23          0.847              1.269              0.680
 Vibration    24          0.857              1.246              0.653
 Vibration    25          0.896              1.159              0.563
 Vibration    26          0.969              1.010              0.432

                           ! Non-Optimized Parameters !
 Normal termination of Gaussian 16 at Fri Dec 11 20:24:21 2020.

 ----------------------------------------------------------------------
 # B3LYP/6-311++G(d,p) empiricaldispersion=gd3bj scf=xqc pop=npa geom=c
 heck
 ----------------------------------------------------------------------

 ---------------------------------------
 CID_107853910_JID_8253_Energie_neutraal
 ---------------------------------------
 Structure from the checkpoint file:  "JID_8253.chk"
 Charge =  0 Multiplicity = 1

 SCF Done:  E(RB3LYP) =  -914.761155516     A.U. after   16 cycles
 Normal termination of Gaussian 16 at Fri Dec 11 20:30:05 2020.

 ----------------------------------------------------------------------
 # B3LYP/6-311++G(d,p) empiricaldispersion=gd3bj scf=xqc pop=npa geom=c
 heck
 ----------------------------------------------------------------------

 -------------------------------------
 CID_107853910_JID_8253_Energie_kation
 -------------------------------------
 Structure from the checkpoint file:  "JID_8253.chk"
 Charge =  1 Multiplicity = 2

 SCF Done:  E(UB3LYP) =  -914.451540546     A.U. after   28 cycles
 Normal termination of Gaussian 16 at Fri Dec 11 20:43:42 2020.
 Gaussian 16:  ES64L-G16RevA.03 25-Dec-2016

 ----------------------------------------------------------------------
 # B3LYP/6-311++G(d,p) empiricaldispersion=gd3bj scf=xqc pop=npa geom=c
 heck
 ----------------------------------------------------------------------

 ------------------------------------
 CID_107853910_JID_8253_Energie_anion
 ------------------------------------
 Structure from the checkpoint file:  "JID_8253.chk"
 Charge = -1 Multiplicity = 2

                         Standard orientation:
 ---------------------------------------------------------------------
 Center     Atomic      Atomic             Coordinates (Angstroms)
 Number     Number       Type             X           Y           Z
 ---------------------------------------------------------------------
      1          6           0        2.770411    2.277969    0.156817
      2          6           0        1.438443    2.520161   -0.150382
      3          6           0        0.610635    1.440750   -0.497283
      4          7           0        1.073571    0.195367   -0.549747
      5          6           0        2.356353   -0.037998   -0.239905
      6          6           0        3.253302    0.966619    0.114263
      7          6           0        2.727002   -1.484749   -0.261110
      8          8           0        1.928066   -2.394670   -0.361188
      9          8           0        4.056545   -1.690928   -0.141754
     10          6           0       -0.845620    1.636313   -0.892427
     11          7           0       -1.604105    0.397715   -0.977300
     12          6           0       -2.339440   -0.130207    0.204507
     13          6           0       -3.841631   -0.072450   -0.174934
     14          8           0       -4.052825   -0.606409   -1.464163
     15          6           0       -1.943539   -1.606776    0.419650
     16          8           0       -0.642748   -1.792339    0.977211
     17          6           0       -2.137010    0.655754    1.512385
     18          8           0       -0.792009    0.752699    1.932946
     19          1           0        3.428990    3.094476    0.437545
     20          1           0        1.030923    3.526161   -0.112746
     21          1           0        4.281732    0.728795    0.356584
     22          1           0        4.182495   -2.658138   -0.136303
     23          1           0       -1.319886    2.335535   -0.201512
     24          1           0       -0.861261    2.126665   -1.878005
     25          1           0       -0.959129   -0.312718   -1.312380
     26          1           0       -4.449957   -0.653596    0.526495
     27          1           0       -4.176356    0.978708   -0.117632
     28          1           0       -3.331093   -0.194752   -1.983115
     29          1           0       -2.641416   -2.050499    1.137095
     30          1           0       -2.054742   -2.153469   -0.526017
     31          1           0        0.036583   -1.754046    0.276313
     32          1           0       -2.514271    1.679743    1.403445
     33          1           0       -2.767781    0.174819    2.280050
     34          1           0       -0.440766   -0.158385    1.845603
 ---------------------------------------------------------------------

 SCF Done:  E(UB3LYP) =  -914.785014907     A.U. after   25 cycles

 The electronic state is 2-A.
 Alpha  occ. eigenvalues --  -19.02166 -19.01540 -19.00252 -18.99255 -18.94615
 Alpha  occ. eigenvalues --  -14.19032 -14.14555 -10.12421 -10.11576 -10.11143
 Alpha  occ. eigenvalues --  -10.11098 -10.10383 -10.08005 -10.06596 -10.04063
 Alpha  occ. eigenvalues --  -10.03470 -10.02630 -10.01565  -0.95795  -0.92427
 Alpha  occ. eigenvalues --   -0.91254  -0.89230  -0.86308  -0.80773  -0.78236
 Alpha  occ. eigenvalues --   -0.67672  -0.65110  -0.62890  -0.57856  -0.56003
 Alpha  occ. eigenvalues --   -0.55662  -0.51826  -0.47471  -0.46593  -0.44925
 Alpha  occ. eigenvalues --   -0.41698  -0.41317  -0.39967  -0.37912  -0.35789
 Alpha  occ. eigenvalues --   -0.34913  -0.34316  -0.34045  -0.33164  -0.32599
 Alpha  occ. eigenvalues --   -0.32006  -0.30930  -0.30764  -0.30278  -0.28961
 Alpha  occ. eigenvalues --   -0.28639  -0.27238  -0.26321  -0.25083  -0.24836
 Alpha  occ. eigenvalues --   -0.23823  -0.23507  -0.22688  -0.21297  -0.18309
 Alpha  occ. eigenvalues --   -0.17748  -0.16583  -0.15578  -0.14568  -0.13145
 Alpha  occ. eigenvalues --   -0.12385  -0.11595  -0.11396   0.03982
 Alpha virt. eigenvalues --    0.07693   0.08872   0.09241   0.09694   0.10024
 Alpha virt. eigenvalues --    0.10716   0.11546   0.11678   0.12429   0.12644
 Alpha virt. eigenvalues --    0.13377   0.13611   0.14403   0.14978   0.15489

  Beta  occ. eigenvalues --  -19.02072 -19.01540 -19.00250 -18.99255 -18.94275
  Beta  occ. eigenvalues --  -14.19032 -14.14208 -10.12116 -10.11576 -10.11143
  Beta  occ. eigenvalues --  -10.11098 -10.10381 -10.07999 -10.06714 -10.03779
  Beta  occ. eigenvalues --  -10.03410 -10.02559 -10.01184  -0.95433  -0.92426
  Beta  occ. eigenvalues --   -0.91251  -0.89226  -0.85783  -0.80554  -0.77886
  Beta  occ. eigenvalues --   -0.67631  -0.64557  -0.62487  -0.57787  -0.55942
  Beta  occ. eigenvalues --   -0.55512  -0.51058  -0.47405  -0.46450  -0.44635
  Beta  occ. eigenvalues --   -0.41674  -0.41284  -0.39961  -0.37764  -0.35687
  Beta  occ. eigenvalues --   -0.34867  -0.34293  -0.33742  -0.32862  -0.32364
  Beta  occ. eigenvalues --   -0.31925  -0.30722  -0.30565  -0.29241  -0.28652
  Beta  occ. eigenvalues --   -0.28559  -0.27204  -0.26160  -0.24988  -0.24580
  Beta  occ. eigenvalues --   -0.23501  -0.22946  -0.22310  -0.21263  -0.17739
  Beta  occ. eigenvalues --   -0.16912  -0.16429  -0.15547  -0.13098  -0.12684
  Beta  occ. eigenvalues --   -0.12269  -0.11175  -0.09733
  Beta virt. eigenvalues --    0.07672   0.08829   0.09224   0.09659   0.10000
  Beta virt. eigenvalues --    0.10627   0.10695   0.11541   0.11803   0.12595
  Beta virt. eigenvalues --    0.12706   0.13351   0.13609   0.14403   0.14956

 Mulliken charges and spin densities:
               1          2
     1  C   -0.986305   0.044658
     2  C   -0.148266   0.332155
     3  C    0.499843  -0.141066
     4  N   -0.020981   0.155490
     5  C   -0.742708   0.179618
     6  C    0.503267   0.103774
     7  C    0.132759   0.186680
     8  O   -0.425653   0.122954
     9  O   -0.223486   0.018180
    10  C   -0.580651   0.029447
    11  N   -0.034983  -0.003994
    12  C   -0.467425   0.009023
    13  C   -0.149640   0.001906
    14  O   -0.210677  -0.000039
    15  C   -0.375998  -0.005282
    16  O   -0.210029   0.003152
    17  C   -0.396119  -0.007238
    18  O   -0.064487   0.001889
    19  H    0.106443  -0.005246
    20  H    0.110288  -0.024656
    21  H    0.179319  -0.002815
    22  H    0.251218  -0.000585
    23  H    0.153273   0.000385
    24  H    0.164993  -0.002246
    25  H    0.316549   0.005838
    26  H    0.139092   0.001110
    27  H    0.130346   0.000480
    28  H    0.261920  -0.000415
    29  H    0.159130   0.000268
    30  H    0.162837   0.000729
    31  H    0.293617  -0.007086
    32  H    0.140447   0.003701
    33  H    0.128639   0.000216
    34  H    0.203426  -0.000986
 Sum of Mulliken charges =  -1.00000   1.00000

 Dipole moment (field-independent basis, Debye):
    X=             -3.6962    Y=              1.4418    Z=              0.5700  Tot=              4.0082
 Quadrupole moment (field-independent basis, Debye-Ang):
   XX=           -144.9439   YY=           -126.7193   ZZ=           -122.2994
   XY=             -5.4096   XZ=             -4.9419   YZ=             -2.6882

 Summary of Natural Population Analysis:

                                       Natural Population
                Natural  -----------------------------------------------
    Atom  No    Charge         Core      Valence    Rydberg      Total
 -----------------------------------------------------------------------
      C    1   -0.08383      0.99958     2.07497    0.00928     3.08383
      C    2   -0.05159      0.99951     2.04355    0.00853     3.05159
      C    3    0.08608      0.99955     1.90123    0.01314     2.91392
      N    4   -0.21087      0.99963     2.69817    0.01307     3.71087
      C    5    0.09108      0.99949     1.89629    0.01315     2.90892
      C    6   -0.09609      0.99954     2.08819    0.00836     3.09609
      C    7    0.43197      0.99968     1.54451    0.02384     2.56803
      O    8   -0.30603      0.99986     3.29841    0.00776     4.30603
      O    9   -0.34899      0.99988     3.34317    0.00595     4.34899
      C   10   -0.09494      0.99958     2.08461    0.01074     3.09494
      N   11   -0.36912      0.99971     2.85375    0.01565     3.86912
      C   12    0.02989      0.99956     1.95802    0.01253     2.97011
      C   13   -0.00965      0.99954     1.99646    0.01366     3.00965
      O   14   -0.38017      0.99990     3.37328    0.00699     4.38017
      C   15   -0.01599      0.99952     2.00340    0.01308     3.01599
      O   16   -0.39152      0.99989     3.38365    0.00798     4.39152
      C   17   -0.01590      0.99952     2.00366    0.01271     3.01590
      O   18   -0.37657      0.99990     3.36679    0.00988     4.37657
      H   19    0.08853      0.00000     0.41035    0.00112     0.41147
      H   20    0.08634      0.00000     0.41217    0.00149     0.41366
      H   21    0.10124      0.00000     0.39767    0.00109     0.39876
      H   22    0.22722      0.00000     0.26732    0.00546     0.27278
      H   23    0.09618      0.00000     0.40268    0.00114     0.40382
      H   24    0.09155      0.00000     0.40724    0.00121     0.40845
      H   25    0.19445      0.00000     0.30310    0.00246     0.30555
      H   26    0.08169      0.00000     0.41692    0.00139     0.41831
      H   27    0.07204      0.00000     0.42638    0.00158     0.42796
      H   28    0.23760      0.00000     0.25957    0.00283     0.26240
      H   29    0.08242      0.00000     0.41626    0.00132     0.41758
      H   30    0.08720      0.00000     0.41159    0.00121     0.41280
      H   31    0.26211      0.00000     0.23538    0.00251     0.23789
      H   32    0.08212      0.00000     0.41648    0.00140     0.41788
      H   33    0.07513      0.00000     0.42326    0.00161     0.42487
      H   34    0.24642      0.00000     0.25080    0.00278     0.25358
 =======================================================================
   * Total *   -0.00000     17.99383    49.76930    0.23687    68.00000

 Normal termination of Gaussian 16 at Fri Dec 11 20:56:10 2020.
