 Gaussian 16, Revision A.03,

 -----------------------------------------------------------
 # opt freq B3LYP/6-31G(d) empiricaldispersion=gd3bj scf=xqc
 -----------------------------------------------------------

 ------------------------------
 CID_20735624_JID_4377_neutraal
 ------------------------------
 Symbolic Z-matrix:
 Charge =  0 Multiplicity = 1

 SCF Done:  E(RB3LYP) =  -594.927493680     A.U. after   14 cycles
 SCF Done:  E(RB3LYP) =  -594.929949421     A.U. after   11 cycles
 SCF Done:  E(RB3LYP) =  -594.930115711     A.U. after   10 cycles
 SCF Done:  E(RB3LYP) =  -594.930134021     A.U. after   10 cycles
 SCF Done:  E(RB3LYP) =  -594.930143171     A.U. after    8 cycles
 SCF Done:  E(RB3LYP) =  -594.930145865     A.U. after    8 cycles
 SCF Done:  E(RB3LYP) =  -594.930148977     A.U. after    9 cycles
 SCF Done:  E(RB3LYP) =  -594.930151242     A.U. after    8 cycles
 SCF Done:  E(RB3LYP) =  -594.930151420     A.U. after    9 cycles
 SCF Done:  E(RB3LYP) =  -594.930159782     A.U. after    9 cycles
 SCF Done:  E(RB3LYP) =  -594.930761496     A.U. after   11 cycles
 SCF Done:  E(RB3LYP) =  -594.930766136     A.U. after   10 cycles
 SCF Done:  E(RB3LYP) =  -594.930765012     A.U. after   10 cycles
 SCF Done:  E(RB3LYP) =  -594.930766411     A.U. after    9 cycles
 SCF Done:  E(RB3LYP) =  -594.930766804     A.U. after    8 cycles
 SCF Done:  E(RB3LYP) =  -594.930766647     A.U. after    8 cycles
 Optimization completed.
    -- Stationary point found.
 Normal termination of Gaussian 16 at Thu Dec 10 09:54:58 2020.

 --------------------------------------------------------------------
 #N Geom=AllCheck Guess=TCheck SCRF=Check GenChk RB3LYP/6-31G(d) Freq
 --------------------------------------------------------------------

 Structure from the checkpoint file:  "JID_4377.chk"
 ------------------------------
 CID_20735624_JID_4377_neutraal
 ------------------------------
 Charge =  0 Multiplicity = 1

 SCF Done:  E(RB3LYP) =  -594.930766647     A.U. after    1 cycles

  Exact polarizability: 171.591  -0.445 122.206  -3.112   4.555 100.175
 Approx polarizability: 209.466  -3.641 195.182  -6.541  16.197 152.837

                      1                      2                      3
                      A                      A                      A
 Frequencies --     25.2497                56.4648                72.1832
 Red. masses --      3.1410                 3.4329                 1.3424
 Frc consts  --      0.0012                 0.0064                 0.0041
 IR Inten    --      0.1637                 0.1433                 0.0853

                      4                      5                      6
                      A                      A                      A
 Frequencies --     75.4387               163.2422               171.4024
 Red. masses --      1.9168                 3.1183                 1.0477
 Frc consts  --      0.0064                 0.0490                 0.0181
 IR Inten    --      0.1568                 1.2603                 0.0047

                      7                      8                      9
                      A                      A                      A
 Frequencies --    191.0283               229.5444               244.7034
 Red. masses --      3.2910                 1.5129                 2.8215
 Frc consts  --      0.0708                 0.0470                 0.0995
 IR Inten    --      1.5839                 0.1534                 0.7322

                     10                     11                     12
                      A                      A                      A
 Frequencies --    265.5333               271.7520               277.3335
 Red. masses --      1.5963                 2.5002                 2.8962
 Frc consts  --      0.0663                 0.1088                 0.1312
 IR Inten    --      0.4602                 3.0515                 3.7823

                     13                     14                     15
                      A                      A                      A
 Frequencies --    292.9277               344.9706               384.0269
 Red. masses --      2.8206                 2.9049                 2.0039
 Frc consts  --      0.1426                 0.2037                 0.1741
 IR Inten    --      0.2656                 0.2561                 1.7888

                     16                     17                     18
                      A                      A                      A
 Frequencies --    394.0995               432.6632               501.6695
 Red. masses --      2.7811                 2.4781                 2.9824
 Frc consts  --      0.2545                 0.2733                 0.4422
 IR Inten    --      1.5807                 3.4132                 0.4281

                     19                     20                     21
                      A                      A                      A
 Frequencies --    514.7982               551.4636               645.8076
 Red. masses --      2.8136                 2.6593                 3.6786
 Frc consts  --      0.4393                 0.4765                 0.9039
 IR Inten    --      3.0421                 0.3866                 4.2281

                     22                     23                     24
                      A                      A                      A
 Frequencies --    659.7412               686.5318               738.8588
 Red. masses --      3.7364                 5.0684                 3.9855
 Frc consts  --      0.9582                 1.4075                 1.2819
 IR Inten    --      3.2224                 3.4120                 5.3615

                     25                     26                     27
                      A                      A                      A
 Frequencies --    784.8652               786.4114               816.2886
 Red. masses --      1.6747                 2.3545                 2.6931
 Frc consts  --      0.6078                 0.8579                 1.0573
 IR Inten    --     10.1598                 7.1547                 5.8055

                     28                     29                     30
                      A                      A                      A
 Frequencies --    833.8945               893.1809               946.6078
 Red. masses --      1.4888                 2.7247                 1.8385
 Frc consts  --      0.6100                 1.2807                 0.9706
 IR Inten    --      0.7681                10.0034                 0.3817

                     31                     32                     33
                      A                      A                      A
 Frequencies --    969.1703               996.0126              1007.0181
 Red. masses --      2.1083                 1.6471                 1.4114
 Frc consts  --      1.1667                 0.9627                 0.8433
 IR Inten    --     11.8595                 3.6697                 2.8694

                     34                     35                     36
                      A                      A                      A
 Frequencies --   1018.9882              1050.1806              1074.3802
 Red. masses --      2.2199                 2.1896                 1.4033
 Frc consts  --      1.3581                 1.4228                 0.9543
 IR Inten    --     12.1916                 8.4230                 2.1428

                     37                     38                     39
                      A                      A                      A
 Frequencies --   1081.4874              1097.4901              1120.3883
 Red. masses --      1.4990                 1.7841                 1.8680
 Frc consts  --      1.0330                 1.2661                 1.3816
 IR Inten    --      0.2867                15.2040                 4.2712

                     40                     41                     42
                      A                      A                      A
 Frequencies --   1131.8872              1147.4605              1173.9992
 Red. masses --      2.2831                 2.1738                 2.1008
 Frc consts  --      1.7234                 1.6864                 1.7060
 IR Inten    --      3.7798                 4.3462                27.8373

                     43                     44                     45
                      A                      A                      A
 Frequencies --   1183.6113              1190.9318              1203.7180
 Red. masses --      2.1056                 1.3042                 2.8434
 Frc consts  --      1.7380                 1.0899                 2.4274
 IR Inten    --     23.6470                 2.9548                 2.8813

                     46                     47                     48
                      A                      A                      A
 Frequencies --   1241.3672              1260.1897              1287.3035
 Red. masses --      1.5357                 1.6063                 2.4583
 Frc consts  --      1.3943                 1.5029                 2.4002
 IR Inten    --      5.0776                43.1503                17.3753

                     49                     50                     51
                      A                      A                      A
 Frequencies --   1315.2010              1324.8884              1337.2295
 Red. masses --      1.6254                 1.9824                 1.5908
 Frc consts  --      1.6565                 2.0502                 1.6760
 IR Inten    --     29.9147                32.0684                 0.7122

                     52                     53                     54
                      A                      A                      A
 Frequencies --   1350.6469              1366.4419              1397.0574
 Red. masses --      1.3423                 1.7719                 1.4402
 Frc consts  --      1.4427                 1.9492                 1.6561
 IR Inten    --      2.5281                27.8877                 6.7206

                     55                     56                     57
                      A                      A                      A
 Frequencies --   1401.6352              1408.9048              1420.6755
 Red. masses --      1.4078                 1.7488                 4.4594
 Frc consts  --      1.6295                 2.0453                 5.3030
 IR Inten    --      3.8896                10.2586                15.3705

                     58                     59                     60
                      A                      A                      A
 Frequencies --   1436.4998              1442.8403              1454.1630
 Red. masses --      1.4934                 1.4375                 1.3113
 Frc consts  --      1.8157                 1.7631                 1.6337
 IR Inten    --     46.0739                 1.0836                 5.6361

                     61                     62                     63
                      A                      A                      A
 Frequencies --   1469.2742              1486.9651              1503.8635
 Red. masses --      1.8510                 1.2060                 1.0886
 Frc consts  --      2.3543                 1.5711                 1.4506
 IR Inten    --      2.1353                 0.1183                 1.0799

                     64                     65                     66
                      A                      A                      A
 Frequencies --   1506.4956              1513.3068              1516.3062
 Red. masses --      1.0458                 1.0594                 1.2022
 Frc consts  --      1.3984                 1.4294                 1.6285
 IR Inten    --      1.1311                11.9596                33.7285

                     67                     68                     69
                      A                      A                      A
 Frequencies --   1517.3326              1521.6713              1522.5688
 Red. masses --      1.1185                 1.0859                 1.1031
 Frc consts  --      1.5173                 1.4815                 1.5067
 IR Inten    --      5.0524                 1.2244                 9.8502

                     70                     71                     72
                      A                      A                      A
 Frequencies --   1523.5502              1537.3560              1541.5890
 Red. masses --      1.1196                 1.0528                 1.1110
 Frc consts  --      1.5312                 1.4661                 1.5556
 IR Inten    --      7.1563                 2.9427                 5.9854

                     73                     74                     75
                      A                      A                      A
 Frequencies --   1543.3349              1646.3841              2891.7349
 Red. masses --      2.4176                 5.9874                 1.0742
 Frc consts  --      3.3928                 9.5620                 5.2925
 IR Inten    --     60.8059                12.5650                26.3392

                     76                     77                     78
                      A                      A                      A
 Frequencies --   2900.9121              2939.9152              3027.1910
 Red. masses --      1.0724                 1.0621                 1.0416
 Frc consts  --      5.3171                 5.4084                 5.6236
 IR Inten    --     87.0118               123.1054                39.8993

                     79                     80                     81
                      A                      A                      A
 Frequencies --   3046.5272              3058.2331              3061.8439
 Red. masses --      1.0368                 1.0729                 1.0669
 Frc consts  --      5.6697                 5.9124                 5.8933
 IR Inten    --     42.5542                 4.6325                10.2363

                     82                     83                     84
                      A                      A                      A
 Frequencies --   3067.2348              3068.7717              3078.5926
 Red. masses --      1.0664                 1.1011                 1.0723
 Frc consts  --      5.9111                 6.1098                 5.9878
 IR Inten    --     28.7677                23.7905                22.1574

                     85                     86                     87
                      A                      A                      A
 Frequencies --   3081.6566              3086.2340              3098.5699
 Red. masses --      1.0848                 1.0831                 1.1011
 Frc consts  --      6.0698                 6.0785                 6.2287
 IR Inten    --     58.2374                41.5883                21.6209

                     88                     89                     90
                      A                      A                      A
 Frequencies --   3106.8244              3114.6406              3123.7962
 Red. masses --      1.1055                 1.1051                 1.1009
 Frc consts  --      6.2870                 6.3161                 6.3292
 IR Inten    --     19.0129                32.9005                25.7903

                     91                     92                     93
                      A                      A                      A
 Frequencies --   3123.8957              3138.7012              3269.1539
 Red. masses --      1.1042                 1.0946                 1.0955
 Frc consts  --      6.3486                 6.3532                 6.8984
 IR Inten    --     32.5015                18.9255                 3.4613

 - Thermochemistry -
 -------------------
 Temperature   298.150 Kelvin.  Pressure   1.00000 Atm.
 Atom     1 has atomic number  6 and mass  12.00000

 Molecular mass:   193.15790 amu.
 Principal axes and moments of inertia in atomic units:
                           1         2         3
     Eigenvalues --   945.829895440.449455779.44182
           X            0.99996   0.00880   0.00068
           Y           -0.00879   0.99993  -0.00835
           Z           -0.00075   0.00835   0.99996
 This molecule is an asymmetric top.
 Rotational symmetry number  1.
 Warning -- assumption of classical behavior for rotation
           may cause significant error
 Rotational temperatures (Kelvin)      0.09157     0.01592     0.01499
 Rotational constants (GHZ):           1.90810     0.33173     0.31227
 Zero-point vibrational energy     776250.1 (Joules/Mol)
                                  185.52822 (Kcal/Mol)
 Warning -- explicit consideration of  20 degrees of freedom as
           vibrations may cause significant error
 Vibrational temperatures:     36.33    81.24   103.86   108.54   234.87
          (Kelvin)            246.61   274.85   330.26   352.07   382.04
                              390.99   399.02   421.46   496.34   552.53
                              567.02   622.51   721.79   740.68   793.43
                              929.17   949.22   987.77  1063.05  1129.25
                             1131.47  1174.46  1199.79  1285.09  1361.96
                             1394.42  1433.04  1448.87  1466.10  1510.98
                             1545.79  1556.02  1579.04  1611.99  1628.53
                             1650.94  1689.12  1702.95  1713.49  1731.88
                             1786.05  1813.13  1852.14  1892.28  1906.22
                             1923.97  1943.28  1966.01  2010.05  2016.64
                             2027.10  2044.04  2066.80  2075.93  2092.22
                             2113.96  2139.41  2163.72  2167.51  2177.31
                             2181.63  2183.10  2189.35  2190.64  2192.05
                             2211.91  2218.00  2220.51  2368.78  4160.56
                             4173.77  4229.88  4355.45  4383.27  4400.12
                             4405.31  4413.07  4415.28  4429.41  4433.82
                             4440.40  4458.15  4470.03  4481.27  4494.45
                             4494.59  4515.89  4703.58

 Zero-point correction=                           0.295658 (Hartree/Particle)
 Thermal correction to Energy=                    0.309779
 Thermal correction to Enthalpy=                  0.310723
 Thermal correction to Gibbs Free Energy=         0.254165
 Sum of electronic and zero-point Energies=           -594.635109
 Sum of electronic and thermal Energies=              -594.620988
 Sum of electronic and thermal Enthalpies=            -594.620043
 Sum of electronic and thermal Free Energies=         -594.676602

                     E (Thermal)             CV                S
                      KCal/Mol        Cal/Mol-Kelvin    Cal/Mol-Kelvin
 Total                  194.389             53.598            119.037
 Electronic               0.000              0.000              0.000
 Translational            0.889              2.981             41.680
 Rotational               0.889              2.981             31.764
 Vibrational            192.612             47.637             45.593
 Vibration     1          0.593              1.985              6.171
 Vibration     2          0.596              1.975              4.577
 Vibration     3          0.598              1.967              4.093
 Vibration     4          0.599              1.965              4.006
 Vibration     5          0.623              1.888              2.512
 Vibration     6          0.626              1.878              2.420
 Vibration     7          0.634              1.852              2.218
 Vibration     8          0.652              1.796              1.883
 Vibration     9          0.660              1.772              1.768
 Vibration    10          0.671              1.736              1.625
 Vibration    11          0.675              1.725              1.585
 Vibration    12          0.678              1.715              1.550
 Vibration    13          0.688              1.687              1.457
 Vibration    14          0.723              1.585              1.189
 Vibration    15          0.753              1.504              1.023
 Vibration    16          0.761              1.483              0.985
 Vibration    17          0.794              1.399              0.850
 Vibration    18          0.857              1.246              0.654
 Vibration    19          0.870              1.217              0.622
 Vibration    20          0.907              1.136              0.541

 Optimization completed.
    -- Stationary point found.
 Normal termination of Gaussian 16 at Thu Dec 10 10:05:38 2020.

 ----------------------------------------------------------------------
 # B3LYP/6-311++G(d,p) empiricaldispersion=gd3bj scf=xqc pop=npa geom=c
 heck
 ----------------------------------------------------------------------

 --------------------------------------
 CID_20735624_JID_4377_Energie_neutraal
 --------------------------------------
 Structure from the checkpoint file:  "JID_4377.chk"
 Charge =  0 Multiplicity = 1

 SCF Done:  E(RB3LYP) =  -595.089046470     A.U. after   15 cycles
 Normal termination of Gaussian 16 at Thu Dec 10 10:11:45 2020.

 ----------------------------------------------------------------------
 # B3LYP/6-311++G(d,p) empiricaldispersion=gd3bj scf=xqc pop=npa geom=c
 heck
 ----------------------------------------------------------------------

 ------------------------------------
 CID_20735624_JID_4377_Energie_kation
 ------------------------------------
 Structure from the checkpoint file:  "JID_4377.chk"
 Charge =  1 Multiplicity = 2

 SCF Done:  E(UB3LYP) =  -594.811360940     A.U. after   22 cycles
 Normal termination of Gaussian 16 at Thu Dec 10 10:23:27 2020.
 Gaussian 16:  ES64L-G16RevA.03 25-Dec-2016

 ----------------------------------------------------------------------
 # B3LYP/6-311++G(d,p) empiricaldispersion=gd3bj scf=xqc pop=npa geom=c
 heck
 ----------------------------------------------------------------------

 -----------------------------------
 CID_20735624_JID_4377_Energie_anion
 -----------------------------------
 Structure from the checkpoint file:  "JID_4377.chk"
 Charge = -1 Multiplicity = 2

                         Standard orientation:
 ---------------------------------------------------------------------
 Center     Atomic      Atomic             Coordinates (Angstroms)
 Number     Number       Type             X           Y           Z
 ---------------------------------------------------------------------
      1          6           0        4.636381    0.196631   -0.138558
      2          6           0        3.191966   -0.192749   -0.123650
      3          6           0        2.096054    0.558878    0.245208
      4          7           0        0.998870   -0.286519    0.092152
      5          6           0        1.488532   -1.478786   -0.371244
      6          7           0        2.796486   -1.461999   -0.505148
      7          6           0       -0.402145    0.088829    0.259429
      8          6           0       -1.239195   -1.031956    0.882522
      9          6           0       -2.691804   -0.575181    1.030030
     10          7           0       -3.250344   -0.185962   -0.261476
     11          6           0       -2.501400    0.919752   -0.851756
     12          6           0       -1.035937    0.538242   -1.064026
     13          6           0       -4.666960    0.123664   -0.159087
     14          6           0        1.968104    1.964718    0.729009
     15          1           0        5.068822    0.051923   -1.135442
     16          1           0        5.218796   -0.419414    0.557211
     17          1           0        4.775599    1.245346    0.142492
     18          1           0        0.847288   -2.321140   -0.588628
     19          1           0       -0.414077    0.937712    0.952984
     20          1           0       -0.825946   -1.314252    1.856942
     21          1           0       -1.219246   -1.917857    0.238730
     22          1           0       -2.745125    0.258795    1.762210
     23          1           0       -3.297389   -1.393136    1.435575
     24          1           0       -2.962873    1.176131   -1.811853
     25          1           0       -2.557038    1.828993   -0.215282
     26          1           0       -0.480004    1.387255   -1.477535
     27          1           0       -0.970776   -0.284428   -1.785422
     28          1           0       -4.876633    0.986229    0.503961
     29          1           0       -5.066438    0.354739   -1.152183
     30          1           0       -5.207014   -0.744602    0.232985
     31          1           0        1.550745    2.023729    1.743423
     32          1           0        2.954138    2.435418    0.756119
     33          1           0        1.330510    2.577661    0.077749
 ---------------------------------------------------------------------

 SCF Done:  E(UB3LYP) =  -595.077445956     A.U. after   31 cycles

 The electronic state is 2-A.
 Alpha  occ. eigenvalues --  -14.26577 -14.21136 -14.19111 -10.12503 -10.12040
 Alpha  occ. eigenvalues --  -10.10140 -10.09947 -10.09778 -10.09006 -10.08670
 Alpha  occ. eigenvalues --  -10.08114 -10.07736 -10.07732 -10.07253  -0.91686
 Alpha  occ. eigenvalues --   -0.83855  -0.79238  -0.70592  -0.68431  -0.66655
 Alpha  occ. eigenvalues --   -0.62949  -0.60333  -0.57388  -0.54463  -0.53981
 Alpha  occ. eigenvalues --   -0.48837  -0.45942  -0.45384  -0.42594  -0.38752
 Alpha  occ. eigenvalues --   -0.37582  -0.36822  -0.36739  -0.35963  -0.33530
 Alpha  occ. eigenvalues --   -0.33242  -0.31938  -0.31526  -0.30479  -0.30105
 Alpha  occ. eigenvalues --   -0.29977  -0.29548  -0.29112  -0.28445  -0.26821
 Alpha  occ. eigenvalues --   -0.26107  -0.25357  -0.24131  -0.23476  -0.17451
 Alpha  occ. eigenvalues --   -0.16557  -0.12862  -0.11977   0.04191
 Alpha virt. eigenvalues --    0.06126   0.07122   0.07470   0.08060   0.09044
 Alpha virt. eigenvalues --    0.09373   0.09961   0.10256   0.10595   0.10896
 Alpha virt. eigenvalues --    0.11166   0.11689   0.12166   0.12478   0.13179

  Beta  occ. eigenvalues --  -14.26574 -14.21119 -14.19108 -10.12492 -10.12039
  Beta  occ. eigenvalues --  -10.10137 -10.09919 -10.09751 -10.08973 -10.08670
  Beta  occ. eigenvalues --  -10.08104 -10.07719 -10.07688 -10.07240  -0.91678
  Beta  occ. eigenvalues --   -0.83821  -0.79227  -0.70567  -0.68409  -0.66617
  Beta  occ. eigenvalues --   -0.62911  -0.60279  -0.57350  -0.54413  -0.53930
  Beta  occ. eigenvalues --   -0.48780  -0.45913  -0.45346  -0.42559  -0.38692
  Beta  occ. eigenvalues --   -0.37549  -0.36795  -0.36706  -0.35926  -0.33507
  Beta  occ. eigenvalues --   -0.33200  -0.31898  -0.31495  -0.30438  -0.30072
  Beta  occ. eigenvalues --   -0.29946  -0.29518  -0.29077  -0.28426  -0.26787
  Beta  occ. eigenvalues --   -0.26065  -0.25316  -0.24096  -0.23442  -0.17432
  Beta  occ. eigenvalues --   -0.16548  -0.12758  -0.11967
  Beta virt. eigenvalues --    0.06462   0.06886   0.07910   0.08029   0.08313
  Beta virt. eigenvalues --    0.09575   0.10060   0.10302   0.10351   0.10976
  Beta virt. eigenvalues --    0.10999   0.11462   0.11888   0.12661   0.12871

 Mulliken charges and spin densities:
               1          2
     1  C   -0.034260  -0.802358
     2  C   -0.181663   0.149213
     3  C   -1.121629   1.575735
     4  N    0.434169   0.062045
     5  C   -0.186426   0.326413
     6  N   -0.109309   0.015905
     7  C   -1.252803   0.167305
     8  C   -0.265599   0.364654
     9  C    0.597019  -1.228805
    10  N   -0.206231   0.328734
    11  C    0.214783  -0.779894
    12  C    0.554647  -0.433821
    13  C    0.429585  -0.710628
    14  C    1.881081  -2.650098
    15  H    0.081772   0.064413
    16  H    0.080037   0.064561
    17  H   -0.054758   0.166985
    18  H    0.069699   0.070585
    19  H    0.706304  -0.549880
    20  H   -0.188426   0.386852
    21  H    0.166974  -0.040932
    22  H   -0.424971   0.540613
    23  H   -0.115957   0.316423
    24  H   -0.182436   0.371514
    25  H   -0.255671   0.375340
    26  H   -0.131852   0.321692
    27  H    0.193979  -0.034028
    28  H   -0.070479   0.194063
    29  H   -0.280186   0.411793
    30  H   -0.317463   0.443459
    31  H   -0.560006   0.738389
    32  H   -0.121664   0.272517
    33  H   -0.348263   0.501243
 Sum of Mulliken charges =  -1.00000   1.00000

 Dipole moment (field-independent basis, Debye):
    X=              2.9193    Y=             -3.1212    Z=             -1.7314  Tot=              4.6110
 Quadrupole moment (field-independent basis, Debye-Ang):
   XX=           -173.5785   YY=           -132.3981   ZZ=           -125.0916
   XY=              3.2315   XZ=              1.3638   YZ=             -2.4072

 Summary of Natural Population Analysis:

                                       Natural Population
                Natural  -----------------------------------------------
    Atom  No    Charge         Core      Valence    Rydberg      Total
 -----------------------------------------------------------------------
      C    1   -0.29259      0.99963     2.28822    0.00474     3.29259
      C    2    0.04260      0.99948     1.94296    0.01496     2.95740
      C    3    0.06369      0.99946     1.92467    0.01219     2.93631
      N    4   -0.20645      0.99962     2.69618    0.01066     3.70645
      C    5    0.10468      0.99963     1.88048    0.01521     2.89532
      N    6   -0.26231      0.99971     2.75240    0.01020     3.76231
      C    7   -0.00655      0.99956     1.99404    0.01295     3.00655
      C    8   -0.19461      0.99961     2.18503    0.00998     3.19461
      C    9   -0.08334      0.99961     2.07186    0.01187     3.08334
      N   10   -0.27919      0.99971     2.76719    0.01229     3.77919
      C   11   -0.08492      0.99961     2.07343    0.01189     3.08492
      C   12   -0.19344      0.99960     2.18446    0.00937     3.19344
      C   13   -0.17498      0.99965     2.16680    0.00852     3.17498
      C   14   -0.30310      0.99964     2.29807    0.00539     3.30310
      H   15    0.10193      0.00000     0.39677    0.00130     0.39807
      H   16    0.10143      0.00000     0.39725    0.00132     0.39857
      H   17    0.10103      0.00000     0.39813    0.00084     0.39897
      H   18    0.09145      0.00000     0.40721    0.00134     0.40855
      H   19    0.10466      0.00000     0.39243    0.00291     0.39534
      H   20    0.10571      0.00000     0.39324    0.00104     0.39429
      H   21    0.09777      0.00000     0.40054    0.00169     0.40223
      H   22    0.08236      0.00000     0.41553    0.00211     0.41764
      H   23    0.09957      0.00000     0.39903    0.00140     0.40043
      H   24    0.09985      0.00000     0.39874    0.00141     0.40015
      H   25    0.08245      0.00000     0.41536    0.00219     0.41755
      H   26    0.10528      0.00000     0.39369    0.00103     0.39472
      H   27    0.09888      0.00000     0.39951    0.00161     0.40112
      H   28    0.08230      0.00000     0.41623    0.00147     0.41770
      H   29    0.09577      0.00000     0.40293    0.00130     0.40423
      H   30    0.09566      0.00000     0.40302    0.00132     0.40434
      H   31    0.10778      0.00000     0.39041    0.00181     0.39222
      H   32    0.10949      0.00000     0.38940    0.00110     0.39051
      H   33    0.10712      0.00000     0.39120    0.00167     0.39288
 =======================================================================
   * Total *    0.00000     13.99452    38.82643    0.17905    53.00000

 Normal termination of Gaussian 16 at Thu Dec 10 10:39:38 2020.
