 Gaussian 16, Revision A.03,

 -----------------------------------------------------------
 # opt freq B3LYP/6-31G(d) empiricaldispersion=gd3bj scf=xqc
 -----------------------------------------------------------

 -------------------------------
 CID_127491818_JID_8011_neutraal
 -------------------------------
 Symbolic Z-matrix:
 Charge =  0 Multiplicity = 1

 SCF Done:  E(RB3LYP) =  -1182.59005962     A.U. after   15 cycles
 SCF Done:  E(RB3LYP) =  -1182.65330131     A.U. after   15 cycles
 SCF Done:  E(RB3LYP) =  -1182.70295346     A.U. after   13 cycles
 SCF Done:  E(RB3LYP) =  -1182.75324346     A.U. after   13 cycles
 SCF Done:  E(RB3LYP) =  -1182.77167417     A.U. after   13 cycles
 SCF Done:  E(RB3LYP) =  -1182.78133780     A.U. after   12 cycles
 SCF Done:  E(RB3LYP) =  -1182.78580304     A.U. after   12 cycles
 SCF Done:  E(RB3LYP) =  -1182.78804715     A.U. after   12 cycles
 SCF Done:  E(RB3LYP) =  -1182.78983847     A.U. after   12 cycles
 SCF Done:  E(RB3LYP) =  -1182.79071819     A.U. after   12 cycles
 SCF Done:  E(RB3LYP) =  -1182.79254994     A.U. after   10 cycles
 SCF Done:  E(RB3LYP) =  -1182.79255081     A.U. after    9 cycles
 SCF Done:  E(RB3LYP) =  -1182.79255158     A.U. after    8 cycles
 SCF Done:  E(RB3LYP) =  -1182.79255211     A.U. after    8 cycles
 SCF Done:  E(RB3LYP) =  -1182.79255219     A.U. after    7 cycles
 SCF Done:  E(RB3LYP) =  -1182.79255222     A.U. after    6 cycles
 Optimization completed.
    -- Stationary point found.
 Normal termination of Gaussian 16 at Fri Dec 11 18:56:21 2020.

 --------------------------------------------------------------------
 #N Geom=AllCheck Guess=TCheck SCRF=Check GenChk RB3LYP/6-31G(d) Freq
 --------------------------------------------------------------------

 Structure from the checkpoint file:  "JID_8011.chk"
 -------------------------------
 CID_127491818_JID_8011_neutraal
 -------------------------------
 Charge =  0 Multiplicity = 1

 SCF Done:  E(RB3LYP) =  -1182.79255222     A.U. after    1 cycles

  Exact polarizability: 168.331   2.631 160.297  -0.984  -3.742 142.478
 Approx polarizability: 217.056   7.311 219.883  -8.823 -10.546 241.627

                      1                      2                      3
                      A                      A                      A
 Frequencies --     22.8587                26.7957                40.8980
 Red. masses --      6.7357                 3.4735                 2.3684
 Frc consts  --      0.0021                 0.0015                 0.0023
 IR Inten    --      3.0150                 2.6027                 0.8498

                      4                      5                      6
                      A                      A                      A
 Frequencies --     52.0091                77.9706                91.5504
 Red. masses --      2.3945                 3.4970                 4.2827
 Frc consts  --      0.0038                 0.0125                 0.0211
 IR Inten    --      1.0448                 1.3578                 5.3575

                      7                      8                      9
                      A                      A                      A
 Frequencies --     97.8778               113.5861               148.8965
 Red. masses --      3.6185                 4.2577                 2.6929
 Frc consts  --      0.0204                 0.0324                 0.0352
 IR Inten    --      1.8456                 0.4473                 3.2445

                     10                     11                     12
                      A                      A                      A
 Frequencies --    166.9532               198.3143               210.9700
 Red. masses --      4.1633                 2.9333                 2.4477
 Frc consts  --      0.0684                 0.0680                 0.0642
 IR Inten    --      0.3481                 0.3573                 1.9780

                     13                     14                     15
                      A                      A                      A
 Frequencies --    242.6477               253.6240               283.2993
 Red. masses --      5.3253                 3.4383                 7.1097
 Frc consts  --      0.1847                 0.1303                 0.3362
 IR Inten    --     10.2591                 1.0921                 3.2802

                     16                     17                     18
                      A                      A                      A
 Frequencies --    290.3212               314.9419               320.5570
 Red. masses --      3.2170                 3.2594                 2.6259
 Frc consts  --      0.1598                 0.1905                 0.1590
 IR Inten    --      0.9669                 4.0319                 0.4910

                     19                     20                     21
                      A                      A                      A
 Frequencies --    361.4767               385.0757               410.3476
 Red. masses --      2.8074                 3.6048                 2.2372
 Frc consts  --      0.2161                 0.3149                 0.2220
 IR Inten    --     10.3726                 0.8903                 0.9625

                     22                     23                     24
                      A                      A                      A
 Frequencies --    452.3084               459.5888               514.2916
 Red. masses --      4.5783                 6.2751                 5.5875
 Frc consts  --      0.5519                 0.7809                 0.8707
 IR Inten    --      3.6253                 7.5328                15.2587

                     25                     26                     27
                      A                      A                      A
 Frequencies --    530.0809               552.1025               589.1424
 Red. masses --      5.1378                 5.4448                 2.7745
 Frc consts  --      0.8506                 0.9778                 0.5674
 IR Inten    --     17.5381                70.8768                 3.4022

                     28                     29                     30
                      A                      A                      A
 Frequencies --    627.4610               635.1100               722.4151
 Red. masses --      3.1402                 3.6656                 2.3642
 Frc consts  --      0.7284                 0.8711                 0.7270
 IR Inten    --      3.1680                12.9363                15.4202

                     31                     32                     33
                      A                      A                      A
 Frequencies --    780.5681               784.6212               817.9925
 Red. masses --      1.4233                 3.2202                 1.7974
 Frc consts  --      0.5109                 1.1680                 0.7086
 IR Inten    --      5.9888                45.1079                 4.5567

                     34                     35                     36
                      A                      A                      A
 Frequencies --    819.1852               870.2038               879.9498
 Red. masses --      2.5781                 1.8646                 1.4353
 Frc consts  --      1.0193                 0.8319                 0.6548
 IR Inten    --     34.9116                12.1940                 3.0099

                     37                     38                     39
                      A                      A                      A
 Frequencies --    894.1732               909.7524               931.0068
 Red. masses --      2.8955                 2.3104                 4.0881
 Frc consts  --      1.3640                 1.1266                 2.0878
 IR Inten    --      0.7326                 3.6181                 0.4072

                     40                     41                     42
                      A                      A                      A
 Frequencies --    961.7410               974.8573               977.8937
 Red. masses --      2.8876                 2.2078                 2.1303
 Frc consts  --      1.5736                 1.2362                 1.2002
 IR Inten    --     86.0499                30.9336                 0.7414

                     43                     44                     45
                      A                      A                      A
 Frequencies --    984.1729              1002.5770              1007.0582
 Red. masses --      1.4698                 1.4058                 2.5603
 Frc consts  --      0.8388                 0.8326                 1.5298
 IR Inten    --      0.8579                 1.7641                18.2762

                     46                     47                     48
                      A                      A                      A
 Frequencies --   1034.8050              1050.7152              1055.8884
 Red. masses --      1.9419                 2.4730                 2.4080
 Frc consts  --      1.2252                 1.6086                 1.5817
 IR Inten    --      6.3684                79.0882                 1.0061

                     49                     50                     51
                      A                      A                      A
 Frequencies --   1088.4842              1095.9538              1113.2001
 Red. masses --      2.3690                 1.7567                 2.8525
 Frc consts  --      1.6537                 1.2432                 2.0827
 IR Inten    --     18.4128                11.6036                29.6697

                     52                     53                     54
                      A                      A                      A
 Frequencies --   1120.7657              1156.1279              1164.6369
 Red. masses --      4.8319                 2.5478                 1.9753
 Frc consts  --      3.5760                 2.0064                 1.5786
 IR Inten    --    158.8124                10.3697                19.9343

                     55                     56                     57
                      A                      A                      A
 Frequencies --   1166.4293              1219.3887              1222.5056
 Red. masses --      1.5554                 2.5149                 1.4426
 Frc consts  --      1.2468                 2.2032                 1.2703
 IR Inten    --     16.1470                12.9622                 0.6566

                     58                     59                     60
                      A                      A                      A
 Frequencies --   1232.3442              1238.5765              1251.7387
 Red. masses --      3.5679                 1.3508                 1.3219
 Frc consts  --      3.1925                 1.2209                 1.2203
 IR Inten    --     43.1812                 4.4882                 2.5691

                     61                     62                     63
                      A                      A                      A
 Frequencies --   1264.3684              1276.6595              1282.6190
 Red. masses --      1.1289                 1.1853                 1.3659
 Frc consts  --      1.0633                 1.1382                 1.3239
 IR Inten    --      4.4974                15.6524                 2.7250

                     64                     65                     66
                      A                      A                      A
 Frequencies --   1296.5720              1306.4762              1316.1503
 Red. masses --      1.2209                 1.4349                 3.5524
 Frc consts  --      1.2093                 1.4431                 3.6257
 IR Inten    --      9.8642                29.1392               154.2968

                     67                     68                     69
                      A                      A                      A
 Frequencies --   1321.7738              1323.2526              1343.6963
 Red. masses --      1.3146                 1.2583                 1.2881
 Frc consts  --      1.3532                 1.2981                 1.3703
 IR Inten    --      1.4354                 7.0863                 0.9214

                     70                     71                     72
                      A                      A                      A
 Frequencies --   1344.6869              1359.3962              1364.0169
 Red. masses --      1.4400                 1.3351                 1.3831
 Frc consts  --      1.5341                 1.4537                 1.5161
 IR Inten    --     10.2021                 4.1856                10.8176

                     73                     74                     75
                      A                      A                      A
 Frequencies --   1370.2273              1383.6104              1398.1660
 Red. masses --      1.4012                 1.2969                 1.3669
 Frc consts  --      1.5500                 1.4628                 1.5743
 IR Inten    --      1.5351                 4.9584                31.5670

                     76                     77                     78
                      A                      A                      A
 Frequencies --   1416.6558              1424.6470              1427.1257
 Red. masses --      1.5420                 1.3348                 1.3983
 Frc consts  --      1.8233                 1.5962                 1.6779
 IR Inten    --      2.2300                 7.9755                 5.1102

                     79                     80                     81
                      A                      A                      A
 Frequencies --   1447.9337              1482.5508              1507.1169
 Red. masses --      1.4888                 1.0898                 1.0822
 Frc consts  --      1.8390                 1.4113                 1.4483
 IR Inten    --      3.6493                 7.9901                 3.8131

                     82                     83                     84
                      A                      A                      A
 Frequencies --   1517.1240              1526.0641              1531.5143
 Red. masses --      1.0765                 1.0888                 1.0872
 Frc consts  --      1.4598                 1.4939                 1.5025
 IR Inten    --      0.1580                 2.2274                 4.4552

                     85                     86                     87
                      A                      A                      A
 Frequencies --   1532.1627              1535.3481              1541.7937
 Red. masses --      1.0853                 1.0785                 1.0886
 Frc consts  --      1.5011                 1.4979                 1.5247
 IR Inten    --      1.6165                 1.6471                 5.1840

                     88                     89                     90
                      A                      A                      A
 Frequencies --   1554.8351              1555.8307              2378.2945
 Red. masses --      1.1016                 1.0926                12.6172
 Frc consts  --      1.5691                 1.5583                42.0480
 IR Inten    --      1.9371                 1.6945                 1.0103

                     91                     92                     93
                      A                      A                      A
 Frequencies --   2935.3203              2953.7692              2957.9056
 Red. masses --      1.0728                 1.0731                 1.0733
 Frc consts  --      5.4460                 5.5163                 5.5328
 IR Inten    --     46.9677                47.4169                84.0331

                     94                     95                     96
                      A                      A                      A
 Frequencies --   3020.2112              3020.9492              3037.8042
 Red. masses --      1.0742                 1.0733                 1.0715
 Frc consts  --      5.7729                 5.7709                 5.8260
 IR Inten    --     70.6603                13.2669                17.7171

                     97                     98                     99
                      A                      A                      A
 Frequencies --   3050.9245              3052.4540              3054.8251
 Red. masses --      1.0718                 1.0599                 1.0722
 Frc consts  --      5.8782                 5.8187                 5.8951
 IR Inten    --      2.5126                21.3162                48.5471

                    100                    101                    102
                      A                      A                      A
 Frequencies --   3070.8004              3072.1134              3076.0886
 Red. masses --      1.0901                 1.0634                 1.0600
 Frc consts  --      6.0563                 5.9134                 5.9093
 IR Inten    --     36.0038                47.6567                 8.2220

                    103                    104                    105
                      A                      A                      A
 Frequencies --   3077.9537              3093.1165              3100.1271
 Red. masses --      1.0861                 1.0985                 1.1033
 Frc consts  --      6.0622                 6.1920                 6.2477
 IR Inten    --      4.8710                20.0681                20.1519

                    106                    107                    108
                      A                      A                      A
 Frequencies --   3103.7257              3118.8190              3120.2184
 Red. masses --      1.0985                 1.1044                 1.0913
 Frc consts  --      6.2347                 6.3293                 6.2600
 IR Inten    --     11.3334                57.5910                16.3171

                    109                    110                    111
                      A                      A                      A
 Frequencies --   3129.2477              3144.4079              3171.4061
 Red. masses --      1.1051                 1.0926                 1.0907
 Frc consts  --      6.3759                 6.3651                 6.4636
 IR Inten    --      7.8035                 3.8177                 1.7084

 - Thermochemistry -
 -------------------
 Temperature   298.150 Kelvin.  Pressure   1.00000 Atm.
 Atom     1 has atomic number  6 and mass  12.00000

 Molecular mass:   271.13545 amu.
 Principal axes and moments of inertia in atomic units:
                           1         2         3
     Eigenvalues --  4057.713755911.458648453.23229
           X            0.99459  -0.10311   0.01248
           Y            0.10307   0.99466   0.00437
           Z           -0.01287  -0.00306   0.99991
 This molecule is an asymmetric top.
 Rotational symmetry number  1.
 Warning -- assumption of classical behavior for rotation
           may cause significant error
 Rotational temperatures (Kelvin)      0.02135     0.01465     0.01025
 Rotational constants (GHZ):           0.44477     0.30530     0.21350
 Zero-point vibrational energy     883404.2 (Joules/Mol)
                                  211.13866 (Kcal/Mol)
 Warning -- explicit consideration of  27 degrees of freedom as
           vibrations may cause significant error
 Vibrational temperatures:     32.89    38.55    58.84    74.83   112.18
          (Kelvin)            131.72   140.82   163.43   214.23   240.21
                              285.33   303.54   349.12   364.91   407.60
                              417.71   453.13   461.21   520.08   554.04
                              590.40   650.77   661.25   739.95   762.67
                              794.35   847.64   902.78   913.78  1039.39
                             1123.06  1128.89  1176.91  1178.62  1252.03
                             1266.05  1286.52  1308.93  1339.51  1383.73
                             1402.60  1406.97  1416.01  1442.48  1448.93
                             1488.85  1511.74  1519.19  1566.09  1576.83
                             1601.65  1612.53  1663.41  1675.65  1678.23
                             1754.43  1758.91  1773.07  1782.04  1800.97
                             1819.14  1836.83  1845.40  1865.48  1879.73
                             1893.65  1901.74  1903.87  1933.28  1934.70
                             1955.87  1962.52  1971.45  1990.71  2011.65
                             2038.25  2049.75  2053.32  2083.25  2133.06
                             2168.41  2182.80  2195.67  2203.51  2204.44
                             2209.02  2218.30  2237.06  2238.49  3421.84
                             4223.27  4249.82  4255.77  4345.41  4346.47
                             4370.72  4389.60  4391.80  4395.21  4418.20
                             4420.09  4425.81  4428.49  4450.30  4460.39
                             4465.57  4487.28  4489.30  4502.29  4524.10
                             4562.95

 Zero-point correction=                           0.336471 (Hartree/Particle)
 Thermal correction to Energy=                    0.354775
 Thermal correction to Enthalpy=                  0.355719
 Thermal correction to Gibbs Free Energy=         0.287843
 Sum of electronic and zero-point Energies=          -1182.456081
 Sum of electronic and thermal Energies=             -1182.437777
 Sum of electronic and thermal Enthalpies=           -1182.436833
 Sum of electronic and thermal Free Energies=        -1182.504709

                     E (Thermal)             CV                S
                      KCal/Mol        Cal/Mol-Kelvin    Cal/Mol-Kelvin
 Total                  222.625             68.157            142.856
 Electronic               0.000              0.000              0.000
 Translational            0.889              2.981             42.691
 Rotational               0.889              2.981             33.672
 Vibrational            220.847             62.195             66.493
 Vibration     1          0.593              1.985              6.369
 Vibration     2          0.593              1.984              6.054
 Vibration     3          0.594              1.981              5.215
 Vibration     4          0.596              1.977              4.739
 Vibration     5          0.599              1.964              3.941
 Vibration     6          0.602              1.955              3.627
 Vibration     7          0.603              1.951              3.496
 Vibration     8          0.607              1.938              3.207
 Vibration     9          0.618              1.904              2.686
 Vibration    10          0.624              1.883              2.470
 Vibration    11          0.637              1.842              2.149
 Vibration    12          0.643              1.824              2.035
 Vibration    13          0.659              1.775              1.783
 Vibration    14          0.665              1.757              1.705
 Vibration    15          0.682              1.705              1.514
 Vibration    16          0.686              1.692              1.472
 Vibration    17          0.702              1.645              1.336
 Vibration    18          0.706              1.634              1.307
 Vibration    19          0.736              1.552              1.116
 Vibration    20          0.754              1.502              1.019
 Vibration    21          0.775              1.448              0.925
 Vibration    22          0.811              1.356              0.789
 Vibration    23          0.818              1.340              0.767
 Vibration    24          0.869              1.218              0.623
 Vibration    25          0.885              1.183              0.587
 Vibration    26          0.907              1.135              0.540
 Vibration    27          0.946              1.055              0.469

                           ! Non-Optimized Parameters !
 Normal termination of Gaussian 16 at Fri Dec 11 19:15:50 2020.

 ----------------------------------------------------------------------
 # B3LYP/6-311++G(d,p) empiricaldispersion=gd3bj scf=xqc pop=npa geom=c
 heck
 ----------------------------------------------------------------------

 ---------------------------------------
 CID_127491818_JID_8011_Energie_neutraal
 ---------------------------------------
 Structure from the checkpoint file:  "JID_8011.chk"
 Charge =  0 Multiplicity = 1

 SCF Done:  E(RB3LYP) =  -1183.03784751     A.U. after   15 cycles
 Normal termination of Gaussian 16 at Fri Dec 11 19:23:56 2020.

 ----------------------------------------------------------------------
 # B3LYP/6-311++G(d,p) empiricaldispersion=gd3bj scf=xqc pop=npa geom=c
 heck
 ----------------------------------------------------------------------

 -------------------------------------
 CID_127491818_JID_8011_Energie_kation
 -------------------------------------
 Structure from the checkpoint file:  "JID_8011.chk"
 Charge =  1 Multiplicity = 2

 SCF Done:  E(UB3LYP) =  -1182.72169613     A.U. after   23 cycles
 Normal termination of Gaussian 16 at Fri Dec 11 19:40:14 2020.
 Gaussian 16:  ES64L-G16RevA.03 25-Dec-2016

 ----------------------------------------------------------------------
 # B3LYP/6-311++G(d,p) empiricaldispersion=gd3bj scf=xqc pop=npa geom=c
 heck
 ----------------------------------------------------------------------

 ------------------------------------
 CID_127491818_JID_8011_Energie_anion
 ------------------------------------
 Structure from the checkpoint file:  "JID_8011.chk"
 Charge = -1 Multiplicity = 2

                         Standard orientation:
 ---------------------------------------------------------------------
 Center     Atomic      Atomic             Coordinates (Angstroms)
 Number     Number       Type             X           Y           Z
 ---------------------------------------------------------------------
      1          6           0       -0.899124    3.148702    0.460690
      2          6           0       -2.423314    3.448546    0.355014
      3          6           0       -3.070291    2.152556   -0.194528
      4          6           0       -2.013420    1.051319    0.031885
      5          6           0       -0.697588    1.797218   -0.246300
      6          6           0       -2.273441   -0.181953   -0.829333
      7         16           0       -1.593534   -1.726791   -0.168939
      8          8           0       -2.162429   -1.943281    1.167585
      9          8           0       -1.737645   -2.742313   -1.220443
     10          7           0        0.030791   -1.367985    0.066051
     11          6           0        0.901410   -1.405115   -1.116062
     12          6           0        2.343456   -1.111522   -0.672126
     13          7           0        2.315730   -0.142905    0.420018
     14          6           0        1.757153   -0.717105    1.651123
     15          6           0        0.674100   -1.757150    1.317069
     16          6           0        3.585484    0.513555    0.675438
     17          6           0        4.002482    1.338486   -0.468376
     18          7           0        4.330443    1.969407   -1.384628
     19          1           0       -0.606572    3.059392    1.513915
     20          1           0       -0.281686    3.941039    0.026722
     21          1           0       -2.836748    3.707230    1.335195
     22          1           0       -2.625130    4.297929   -0.304923
     23          1           0       -3.258629    2.250568   -1.271998
     24          1           0       -4.028281    1.913747    0.279032
     25          1           0       -2.043521    0.751527    1.087881
     26          1           0       -0.605173    1.952717   -1.331513
     27          1           0        0.194782    1.260475    0.081804
     28          1           0       -3.342040   -0.411535   -0.906005
     29          1           0       -1.883293   -0.069760   -1.845775
     30          1           0        0.848099   -2.373849   -1.628520
     31          1           0        0.569685   -0.628282   -1.812107
     32          1           0        2.892711   -0.684326   -1.515170
     33          1           0        2.863177   -2.043471   -0.383974
     34          1           0        1.334959    0.102456    2.244473
     35          1           0        2.534555   -1.211034    2.262989
     36          1           0       -0.080645   -1.794819    2.101420
     37          1           0        1.116160   -2.760496    1.233941
     38          1           0        3.468084    1.169721    1.546235
     39          1           0        4.406448   -0.190644    0.915228
 ---------------------------------------------------------------------

 SCF Done:  E(UB3LYP) =  -1183.03302711     A.U. after   31 cycles

 The electronic state is 2-A.
 Alpha  occ. eigenvalues --  -88.97519 -19.03190 -19.03108 -14.25738 -14.23570
 Alpha  occ. eigenvalues --  -14.22638 -10.14874 -10.13058 -10.12875 -10.12468
 Alpha  occ. eigenvalues --  -10.12368 -10.12191 -10.11251 -10.10007 -10.08888
 Alpha  occ. eigenvalues --  -10.08329 -10.07639 -10.07352  -8.03724  -6.00018
 Alpha  occ. eigenvalues --   -5.99972  -5.99780  -1.03285  -0.92314  -0.88172
 Alpha  occ. eigenvalues --   -0.84151  -0.81759  -0.76593  -0.70364  -0.69353
 Alpha  occ. eigenvalues --   -0.67867  -0.62789  -0.62144  -0.59390  -0.57984
 Alpha  occ. eigenvalues --   -0.53096  -0.49054  -0.48498  -0.46463  -0.45922
 Alpha  occ. eigenvalues --   -0.44312  -0.42604  -0.41574  -0.39927  -0.39769
 Alpha  occ. eigenvalues --   -0.39120  -0.38688  -0.37791  -0.36263  -0.36117
 Alpha  occ. eigenvalues --   -0.33684  -0.33247  -0.32166  -0.31974  -0.31255
 Alpha  occ. eigenvalues --   -0.31027  -0.29508  -0.28315  -0.28048  -0.26858
 Alpha  occ. eigenvalues --   -0.26078  -0.26042  -0.25322  -0.25141  -0.24979
 Alpha  occ. eigenvalues --   -0.24246  -0.24181  -0.23638  -0.23474  -0.22517
 Alpha  occ. eigenvalues --   -0.21482  -0.16975  -0.14412   0.03762
 Alpha virt. eigenvalues --    0.05593   0.06525   0.07292   0.07645   0.07851
 Alpha virt. eigenvalues --    0.08427   0.09417   0.09824   0.09996   0.10186
 Alpha virt. eigenvalues --    0.10433   0.10725   0.11024   0.11633   0.11782

  Beta  occ. eigenvalues --  -88.97516 -19.03183 -19.03103 -14.25734 -14.23558
  Beta  occ. eigenvalues --  -14.22620 -10.14812 -10.13052 -10.12868 -10.12464
  Beta  occ. eigenvalues --  -10.12354 -10.12162 -10.11202 -10.10000 -10.08877
  Beta  occ. eigenvalues --  -10.08318 -10.07620 -10.07345  -8.03719  -6.00014
  Beta  occ. eigenvalues --   -5.99969  -5.99777  -1.03269  -0.92298  -0.88149
  Beta  occ. eigenvalues --   -0.84125  -0.81724  -0.76578  -0.70339  -0.69311
  Beta  occ. eigenvalues --   -0.67799  -0.62760  -0.62097  -0.59342  -0.57924
  Beta  occ. eigenvalues --   -0.53035  -0.49020  -0.48455  -0.46410  -0.45882
  Beta  occ. eigenvalues --   -0.44254  -0.42573  -0.41548  -0.39869  -0.39709
  Beta  occ. eigenvalues --   -0.39086  -0.38658  -0.37758  -0.36233  -0.36095
  Beta  occ. eigenvalues --   -0.33653  -0.33228  -0.32123  -0.31929  -0.31209
  Beta  occ. eigenvalues --   -0.30982  -0.29463  -0.28294  -0.28019  -0.26825
  Beta  occ. eigenvalues --   -0.26060  -0.26020  -0.25296  -0.25088  -0.24945
  Beta  occ. eigenvalues --   -0.24215  -0.24162  -0.23626  -0.23449  -0.22506
  Beta  occ. eigenvalues --   -0.21468  -0.16944  -0.14322
  Beta virt. eigenvalues --    0.05644   0.06734   0.06884   0.07462   0.08075
  Beta virt. eigenvalues --    0.08398   0.08812   0.09635   0.09985   0.10272
  Beta virt. eigenvalues --    0.10377   0.10672   0.10927   0.11258   0.11776

 Mulliken charges and spin densities:
               1          2
     1  C   -0.283822  -0.258858
     2  C   -0.247456  -0.156076
     3  C   -0.086203  -0.598553
     4  C   -0.302429   1.023155
     5  C   -0.497873   0.090640
     6  C   -0.628177  -0.263432
     7  S    0.161466   0.090123
     8  O   -0.239687   0.012575
     9  O   -0.082887   0.004989
    10  N    0.047821   0.048063
    11  C   -0.084030  -0.098454
    12  C   -0.058769  -0.656949
    13  N   -0.000642   0.216313
    14  C    0.568658  -0.740542
    15  C   -0.251561  -0.302055
    16  C    0.286907  -0.432354
    17  C    0.438803  -0.470418
    18  N   -0.292406  -0.010671
    19  H   -0.206075   0.360833
    20  H    0.047031   0.111455
    21  H   -0.038364   0.193226
    22  H    0.110187   0.033656
    23  H    0.087269   0.059850
    24  H   -0.036791   0.190256
    25  H    0.087525   0.153584
    26  H   -0.077096   0.202281
    27  H    1.937333  -1.577510
    28  H    0.203066   0.045711
    29  H    0.170316   0.094508
    30  H    0.095147   0.133140
    31  H    0.129128   0.010525
    32  H    0.129598   0.046601
    33  H   -0.221534   0.391999
    34  H   -0.250924   0.445575
    35  H   -0.734955   0.902008
    36  H    0.081969   0.151481
    37  H    0.086048   0.117023
    38  H   -0.508365   0.703755
    39  H   -0.538226   0.732544
 Sum of Mulliken charges =  -1.00000   1.00000

 Dipole moment (field-independent basis, Debye):
    X=             -6.9829    Y=              0.0738    Z=             -4.4022  Tot=              8.2550
 Quadrupole moment (field-independent basis, Debye-Ang):
   XX=           -201.8569   YY=           -174.8929   ZZ=           -161.6644
   XY=             -9.7783   XZ=             -4.0942   YZ=              1.4702

 Summary of Natural Population Analysis:

                                       Natural Population
                Natural  -----------------------------------------------
    Atom  No    Charge         Core      Valence    Rydberg      Total
 -----------------------------------------------------------------------
      C    1   -0.19145      0.99964     2.18398    0.00783     3.19145
      C    2   -0.19231      0.99965     2.18591    0.00675     3.19231
      C    3   -0.18477      0.99962     2.17818    0.00697     3.18477
      C    4   -0.12861      0.99958     2.11680    0.01224     3.12861
      C    5   -0.19597      0.99962     2.18665    0.00971     3.19597
      C    6   -0.28027      0.99954     2.26929    0.01145     3.28027
      S    7    1.10931      4.99923     1.79284    0.09862     6.89069
      O    8   -0.46583      0.99991     3.46062    0.00531     4.46583
      O    9   -0.46764      0.99991     3.46274    0.00499     4.46764
      N   10   -0.38181      0.99971     2.86835    0.01374     3.88181
      C   11   -0.08482      0.99960     2.07413    0.01109     3.08482
      C   12   -0.09092      0.99960     2.08026    0.01106     3.09092
      N   13   -0.28019      0.99971     2.76496    0.01552     3.78019
      C   14   -0.08341      0.99960     2.07120    0.01260     3.08341
      C   15   -0.09140      0.99960     2.08003    0.01177     3.09140
      C   16   -0.13791      0.99952     2.12598    0.01241     3.13791
      C   17    0.16403      0.99965     1.82055    0.01577     2.83597
      N   18   -0.18210      0.99979     2.67122    0.01109     3.68210
      H   19    0.09945      0.00000     0.39912    0.00143     0.40055
      H   20    0.10041      0.00000     0.39865    0.00093     0.39959
      H   21    0.09802      0.00000     0.40077    0.00121     0.40198
      H   22    0.09602      0.00000     0.40291    0.00107     0.40398
      H   23    0.09251      0.00000     0.40622    0.00127     0.40749
      H   24    0.10051      0.00000     0.39853    0.00096     0.39949
      H   25    0.10805      0.00000     0.39034    0.00161     0.39195
      H   26    0.08851      0.00000     0.41023    0.00126     0.41149
      H   27    0.11820      0.00000     0.37898    0.00283     0.38180
      H   28    0.11672      0.00000     0.38220    0.00107     0.38328
      H   29    0.11329      0.00000     0.38565    0.00106     0.38671
      H   30    0.10020      0.00000     0.39874    0.00106     0.39980
      H   31    0.09703      0.00000     0.40179    0.00118     0.40297
      H   32    0.10795      0.00000     0.39096    0.00109     0.39205
      H   33    0.08847      0.00000     0.40988    0.00165     0.41153
      H   34    0.10089      0.00000     0.39669    0.00242     0.39911
      H   35    0.09382      0.00000     0.40200    0.00419     0.40618
      H   36    0.12154      0.00000     0.37720    0.00125     0.37846
      H   37    0.09010      0.00000     0.40853    0.00137     0.40990
      H   38    0.12463      0.00000     0.37220    0.00317     0.37537
      H   39    0.10975      0.00000     0.38577    0.00448     0.39025
 =======================================================================
   * Total *    0.00000     21.99348    50.69106    0.31546    73.00000

 Normal termination of Gaussian 16 at Fri Dec 11 20:02:08 2020.
