 Gaussian 16, Revision A.03,

 -----------------------------------------------------------
 # opt freq B3LYP/6-31G(d) empiricaldispersion=gd3bj scf=xqc
 -----------------------------------------------------------

 -------------------------------
 CID_149660219_JID_8766_neutraal
 -------------------------------
 Symbolic Z-matrix:
 Charge =  0 Multiplicity = 1

 SCF Done:  E(RB3LYP) =  -766.018264118     A.U. after   15 cycles
 SCF Done:  E(RB3LYP) =  -766.023881461     A.U. after   14 cycles
 SCF Done:  E(RB3LYP) =  -766.023692889     A.U. after   15 cycles
 SCF Done:  E(RB3LYP) =  -766.024638947     A.U. after   13 cycles
 SCF Done:  E(RB3LYP) =  -766.025568134     A.U. after   12 cycles
 SCF Done:  E(RB3LYP) =  -766.025804881     A.U. after   13 cycles
 SCF Done:  E(RB3LYP) =  -766.026029939     A.U. after   12 cycles
 SCF Done:  E(RB3LYP) =  -766.026229040     A.U. after   12 cycles
 SCF Done:  E(RB3LYP) =  -766.026320868     A.U. after   12 cycles
 SCF Done:  E(RB3LYP) =  -766.026457504     A.U. after   12 cycles
 SCF Done:  E(RB3LYP) =  -766.032052028     A.U. after   10 cycles
 SCF Done:  E(RB3LYP) =  -766.032056111     A.U. after   11 cycles
 SCF Done:  E(RB3LYP) =  -766.032055943     A.U. after   11 cycles
 SCF Done:  E(RB3LYP) =  -766.032056683     A.U. after   11 cycles
 SCF Done:  E(RB3LYP) =  -766.032056584     A.U. after    8 cycles
 SCF Done:  E(RB3LYP) =  -766.032056999     A.U. after    8 cycles
 Optimization completed.
    -- Stationary point found.
 Normal termination of Gaussian 16 at Fri Dec 11 22:43:00 2020.

 --------------------------------------------------------------------
 #N Geom=AllCheck Guess=TCheck SCRF=Check GenChk RB3LYP/6-31G(d) Freq
 --------------------------------------------------------------------

 Structure from the checkpoint file:  "JID_8766.chk"
 -------------------------------
 CID_149660219_JID_8766_neutraal
 -------------------------------
 Charge =  0 Multiplicity = 1

 SCF Done:  E(RB3LYP) =  -766.032056999     A.U. after    1 cycles

  Exact polarizability: 189.220  35.932 172.684 -16.635  20.357 126.161
 Approx polarizability: 288.755  82.237 300.036 -25.204  57.435 201.491

                      1                      2                      3
                      A                      A                      A
 Frequencies --     26.3123                32.4179                53.2530
 Red. masses --      4.8142                 3.4796                 4.0290
 Frc consts  --      0.0020                 0.0022                 0.0067
 IR Inten    --      0.6407                 0.4617                 0.2675

                      4                      5                      6
                      A                      A                      A
 Frequencies --     81.6463                99.0101               106.2319
 Red. masses --      5.6195                 5.7041                 3.4879
 Frc consts  --      0.0221                 0.0329                 0.0232
 IR Inten    --      2.7279                 1.4854                 1.5676

                      7                      8                      9
                      A                      A                      A
 Frequencies --    128.2266               147.8573               176.3838
 Red. masses --      3.6814                 4.2504                 5.9726
 Frc consts  --      0.0357                 0.0547                 0.1095
 IR Inten    --      1.9250                 4.7361                 1.0143

                     10                     11                     12
                      A                      A                      A
 Frequencies --    181.2538               230.1611               254.7831
 Red. masses --      1.5897                 3.0265                 2.9432
 Frc consts  --      0.0308                 0.0945                 0.1126
 IR Inten    --      1.6229                 4.3188                 7.6850

                     13                     14                     15
                      A                      A                      A
 Frequencies --    262.7774               287.0570               349.0230
 Red. masses --      2.4310                 2.5898                 3.4645
 Frc consts  --      0.0989                 0.1257                 0.2487
 IR Inten    --      2.2549                 3.1848                11.4386

                     16                     17                     18
                      A                      A                      A
 Frequencies --    377.5826               403.9890               411.4594
 Red. masses --      2.1552                 1.6421                 6.0361
 Frc consts  --      0.1810                 0.1579                 0.6021
 IR Inten    --     10.7553                40.4649                 2.1122

                     19                     20                     21
                      A                      A                      A
 Frequencies --    432.8214               457.8215               471.4265
 Red. masses --      2.7046                 2.8293                 3.7455
 Frc consts  --      0.2985                 0.3494                 0.4904
 IR Inten    --      1.5428                35.8440                 4.2206

                     22                     23                     24
                      A                      A                      A
 Frequencies --    509.8841               532.2877               567.5266
 Red. masses --      5.4610                 3.5266                 3.6022
 Frc consts  --      0.8365                 0.5887                 0.6836
 IR Inten    --      1.1634                 5.8871                 0.8819

                     25                     26                     27
                      A                      A                      A
 Frequencies --    597.9196               614.6175               622.0999
 Red. masses --      3.7492                 3.0701                 3.1185
 Frc consts  --      0.7897                 0.6833                 0.7111
 IR Inten    --      1.4828                 1.1165                11.1800

                     28                     29                     30
                      A                      A                      A
 Frequencies --    664.5547               680.6404               741.1873
 Red. masses --      4.7499                 3.4809                 2.0790
 Frc consts  --      1.2359                 0.9501                 0.6729
 IR Inten    --      5.9693                 8.6199                 2.4199

                     31                     32                     33
                      A                      A                      A
 Frequencies --    767.3458               778.2018               795.2393
 Red. masses --      5.5304                 3.1330                 1.5029
 Frc consts  --      1.9186                 1.1179                 0.5600
 IR Inten    --      0.2826                 5.5805                 8.2802

                     34                     35                     36
                      A                      A                      A
 Frequencies --    815.9187               818.5413               828.1217
 Red. masses --      1.4973                 1.6053                 4.7375
 Frc consts  --      0.5873                 0.6337                 1.9142
 IR Inten    --     20.9786                14.8912                 5.5689

                     37                     38                     39
                      A                      A                      A
 Frequencies --    859.4863               919.0204               926.2189
 Red. masses --      2.5619                 1.4489                 1.4801
 Frc consts  --      1.1150                 0.7210                 0.7481
 IR Inten    --      0.6045                21.1544                 0.5709

                     40                     41                     42
                      A                      A                      A
 Frequencies --    940.1612               941.2891               944.5476
 Red. masses --      2.8417                 1.3093                 3.0764
 Frc consts  --      1.4799                 0.6835                 1.6171
 IR Inten    --      8.3434                 0.9062                 1.6948

                     43                     44                     45
                      A                      A                      A
 Frequencies --    981.6031              1001.5913              1042.0628
 Red. masses --      2.2817                 1.7526                 2.4372
 Frc consts  --      1.2953                 1.0359                 1.5593
 IR Inten    --      1.3989                 6.6900                 2.0913

                     46                     47                     48
                      A                      A                      A
 Frequencies --   1072.5453              1095.9452              1107.1051
 Red. masses --      2.1741                 2.1911                 1.7057
 Frc consts  --      1.4735                 1.5506                 1.2317
 IR Inten    --     10.9487                10.7330                 6.4878

                     49                     50                     51
                      A                      A                      A
 Frequencies --   1114.9481              1171.8926              1184.4961
 Red. masses --      1.5021                 1.3146                 1.6890
 Frc consts  --      1.1002                 1.0637                 1.3962
 IR Inten    --     28.2903                 3.2961                 8.4904

                     52                     53                     54
                      A                      A                      A
 Frequencies --   1198.1562              1214.4884              1239.7341
 Red. masses --      1.4762                 2.4530                 1.6391
 Frc consts  --      1.2486                 2.1318                 1.4842
 IR Inten    --     13.7259                15.6912                12.0846

                     55                     56                     57
                      A                      A                      A
 Frequencies --   1256.7485              1266.5854              1294.9380
 Red. masses --      1.3832                 2.0908                 1.3392
 Frc consts  --      1.2872                 1.9762                 1.3231
 IR Inten    --     16.0602                15.7385                11.6514

                     58                     59                     60
                      A                      A                      A
 Frequencies --   1295.1395              1332.0756              1358.4116
 Red. masses --      1.4267                 2.2259                 2.2111
 Frc consts  --      1.4100                 2.3270                 2.4039
 IR Inten    --      6.6376                 7.0066                 5.9793

                     61                     62                     63
                      A                      A                      A
 Frequencies --   1364.1553              1373.9454              1388.4200
 Red. masses --      1.4934                 1.5953                 1.4070
 Frc consts  --      1.6374                 1.7744                 1.5980
 IR Inten    --      6.1691                 2.1763                12.1076

                     64                     65                     66
                      A                      A                      A
 Frequencies --   1401.1892              1406.5872              1450.0593
 Red. masses --      2.2840                 2.0499                 1.2450
 Frc consts  --      2.6420                 2.3895                 1.5424
 IR Inten    --     24.3560                 5.3190                 1.5410

                     67                     68                     69
                      A                      A                      A
 Frequencies --   1470.3761              1492.8184              1498.4046
 Red. masses --      2.6034                 1.1067                 3.1610
 Frc consts  --      3.3163                 1.4531                 4.1815
 IR Inten    --     35.6900                 5.9679                 0.9983

                     70                     71                     72
                      A                      A                      A
 Frequencies --   1508.2212              1515.2851              1517.1801
 Red. masses --      1.1072                 3.5712                 1.1414
 Frc consts  --      1.4840                 4.8312                 1.5480
 IR Inten    --      4.1921                23.1754                10.0957

                     73                     74                     75
                      A                      A                      A
 Frequencies --   1522.2176              1528.2956              1538.0163
 Red. masses --      1.0665                 1.0447                 1.0675
 Frc consts  --      1.4560                 1.4376                 1.4877
 IR Inten    --      3.5760                16.2240                 3.0784

                     76                     77                     78
                      A                      A                      A
 Frequencies --   1603.5259              1632.9560              1674.0548
 Red. masses --      5.8513                 5.2014                 6.1751
 Frc consts  --      8.8646                 8.1718                10.1961
 IR Inten    --      5.2016                 0.0081                18.0383

                     79                     80                     81
                      A                      A                      A
 Frequencies --   1804.5159              2346.4018              3030.8731
 Red. masses --     10.4811                12.6791                 1.0663
 Frc consts  --     20.1085                41.1286                 5.7711
 IR Inten    --     98.7373                61.6233                17.2924

                     82                     83                     84
                      A                      A                      A
 Frequencies --   3039.7903              3051.2660              3057.2367
 Red. masses --      1.0611                 1.0644                 1.0413
 Frc consts  --      5.7770                 5.8387                 5.7342
 IR Inten    --     17.3934                20.3185                17.9360

                     85                     86                     87
                      A                      A                      A
 Frequencies --   3064.8866              3077.5669              3092.9657
 Red. masses --      1.0641                 1.0983                 1.0956
 Frc consts  --      5.8892                 6.1292                 6.1753
 IR Inten    --     40.3626                39.4982                 9.9499

                     88                     89                     90
                      A                      A                      A
 Frequencies --   3114.7331              3117.3309              3119.8006
 Red. masses --      1.1024                 1.0998                 1.1012
 Frc consts  --      6.3012                 6.2967                 6.3149
 IR Inten    --      6.2770                 9.4189                46.5490

                     91                     92                     93
                      A                      A                      A
 Frequencies --   3157.5526              3198.1751              3224.0567
 Red. masses --      1.0980                 1.0892                 1.0941
 Frc consts  --      6.4501                 6.5641                 6.7009
 IR Inten    --     12.8536                 8.3220                 6.2989

                     94                     95                     96
                      A                      A                      A
 Frequencies --   3239.7278              3265.3349              3669.5942
 Red. masses --      1.0919                 1.0967                 1.0802
 Frc consts  --      6.7526                 6.8895                 8.5699
 IR Inten    --      0.6563                 1.6828                74.9462

 - Thermochemistry -
 -------------------
 Temperature   298.150 Kelvin.  Pressure   1.00000 Atm.
 Atom     1 has atomic number  6 and mass  12.00000

 Molecular mass:   240.12626 amu.
 Principal axes and moments of inertia in atomic units:
                           1         2         3
     Eigenvalues --  3371.783464992.034396146.14179
           X            0.99960  -0.02772  -0.00601
           Y            0.02750   0.99904  -0.03399
           Z            0.00694   0.03381   0.99940
 This molecule is an asymmetric top.
 Rotational symmetry number  1.
 Warning -- assumption of classical behavior for rotation
           may cause significant error
 Rotational temperatures (Kelvin)      0.02569     0.01735     0.01409
 Rotational constants (GHZ):           0.53525     0.36152     0.29364
 Zero-point vibrational energy     739425.5 (Joules/Mol)
                                  176.72693 (Kcal/Mol)
 Warning -- explicit consideration of  26 degrees of freedom as
           vibrations may cause significant error
 Vibrational temperatures:     37.86    46.64    76.62   117.47   142.45
          (Kelvin)            152.84   184.49   212.73   253.78   260.78
                              331.15   366.58   378.08   413.01   502.17
                              543.26   581.25   592.00   622.73   658.70
                              678.28   733.61   765.84   816.54   860.27
                              884.30   895.06   956.15   979.29  1066.40
                             1104.04  1119.66  1144.17  1173.93  1177.70
                             1191.48  1236.61  1322.27  1332.62  1352.68
                             1354.31  1358.99  1412.31  1441.07  1499.30
                             1543.15  1576.82  1592.88  1604.16  1686.09
                             1704.23  1723.88  1747.38  1783.70  1808.18
                             1822.33  1863.13  1863.42  1916.56  1954.45
                             1962.72  1976.80  1997.63  2016.00  2023.77
                             2086.31  2115.54  2147.83  2155.87  2169.99
                             2180.16  2182.88  2190.13  2198.88  2212.86
                             2307.12  2349.46  2408.59  2596.30  3375.95
                             4360.75  4373.58  4390.09  4398.68  4409.69
                             4427.93  4450.09  4481.41  4485.14  4488.70
                             4543.01  4601.46  4638.70  4661.25  4698.09
                             5279.73

 Zero-point correction=                           0.281632 (Hartree/Particle)
 Thermal correction to Energy=                    0.298411
 Thermal correction to Enthalpy=                  0.299356
 Thermal correction to Gibbs Free Energy=         0.236131
 Sum of electronic and zero-point Energies=           -765.750425
 Sum of electronic and thermal Energies=              -765.733646
 Sum of electronic and thermal Enthalpies=            -765.732701
 Sum of electronic and thermal Free Energies=         -765.795926

                     E (Thermal)             CV                S
                      KCal/Mol        Cal/Mol-Kelvin    Cal/Mol-Kelvin
 Total                  187.256             63.772            133.068
 Electronic               0.000              0.000              0.000
 Translational            0.889              2.981             42.329
 Rotational               0.889              2.981             33.003
 Vibrational            185.478             57.810             57.736
 Vibration     1          0.593              1.985              6.090
 Vibration     2          0.594              1.983              5.676
 Vibration     3          0.596              1.976              4.693
 Vibration     4          0.600              1.962              3.851
 Vibration     5          0.604              1.950              3.474
 Vibration     6          0.605              1.944              3.337
 Vibration     7          0.611              1.925              2.972
 Vibration     8          0.617              1.905              2.700
 Vibration     9          0.628              1.871              2.366
 Vibration    10          0.630              1.865              2.315
 Vibration    11          0.652              1.795              1.878
 Vibration    12          0.665              1.755              1.697
 Vibration    13          0.670              1.741              1.643
 Vibration    14          0.684              1.698              1.491
 Vibration    15          0.726              1.577              1.171
 Vibration    16          0.748              1.518              1.049
 Vibration    17          0.769              1.462              0.948
 Vibration    18          0.775              1.445              0.921
 Vibration    19          0.794              1.399              0.849
 Vibration    20          0.816              1.344              0.772
 Vibration    21          0.828              1.313              0.734
 Vibration    22          0.865              1.228              0.634
 Vibration    23          0.887              1.179              0.582
 Vibration    24          0.923              1.101              0.509
 Vibration    25          0.956              1.036              0.453
 Vibration    26          0.974              1.001              0.425

                           ! Non-Optimized Parameters !
 Normal termination of Gaussian 16 at Fri Dec 11 22:59:02 2020.

 ----------------------------------------------------------------------
 # B3LYP/6-311++G(d,p) empiricaldispersion=gd3bj scf=xqc pop=npa geom=c
 heck
 ----------------------------------------------------------------------

 ---------------------------------------
 CID_149660219_JID_8766_Energie_neutraal
 ---------------------------------------
 Structure from the checkpoint file:  "JID_8766.chk"
 Charge =  0 Multiplicity = 1

 SCF Done:  E(RB3LYP) =  -766.237495765     A.U. after   16 cycles
 Normal termination of Gaussian 16 at Fri Dec 11 23:06:26 2020.

 ----------------------------------------------------------------------
 # B3LYP/6-311++G(d,p) empiricaldispersion=gd3bj scf=xqc pop=npa geom=c
 heck
 ----------------------------------------------------------------------

 -------------------------------------
 CID_149660219_JID_8766_Energie_kation
 -------------------------------------
 Structure from the checkpoint file:  "JID_8766.chk"
 Charge =  1 Multiplicity = 2

 SCF Done:  E(UB3LYP) =  -765.947393318     A.U. after   27 cycles
 Normal termination of Gaussian 16 at Fri Dec 11 23:24:29 2020.
 Gaussian 16:  ES64L-G16RevA.03 25-Dec-2016

 ----------------------------------------------------------------------
 # B3LYP/6-311++G(d,p) empiricaldispersion=gd3bj scf=xqc pop=npa geom=c
 heck
 ----------------------------------------------------------------------

 ------------------------------------
 CID_149660219_JID_8766_Energie_anion
 ------------------------------------
 Structure from the checkpoint file:  "JID_8766.chk"
 Charge = -1 Multiplicity = 2

                         Standard orientation:
 ---------------------------------------------------------------------
 Center     Atomic      Atomic             Coordinates (Angstroms)
 Number     Number       Type             X           Y           Z
 ---------------------------------------------------------------------
      1          6           0        0.558442   -1.312880    2.216762
      2          6           0        1.989648   -0.811109    2.012319
      3          6           0        2.766002   -1.621179    0.944299
      4          6           0        2.267950   -1.268969   -0.442850
      5          8           0        1.432458   -1.939397   -1.023608
      6          6           0        2.842194   -0.004901   -1.080750
      7          6           0        1.786201    0.817024   -1.841795
      8          6           0        0.773970    1.440146   -0.922791
      9          6           0        0.912231    2.619624   -0.233863
     10          7           0       -0.199868    2.836378    0.565793
     11          6           0       -1.086778    1.798840    0.402335
     12          6           0       -0.505208    0.894039   -0.532541
     13          6           0       -1.206781   -0.264691   -0.884913
     14          6           0       -2.455835   -0.494942   -0.301297
     15          6           0       -3.013642    0.417799    0.632117
     16          6           0       -2.335584    1.569683    0.991363
     17          6           0       -3.191809   -1.675833   -0.638333
     18          7           0       -3.801475   -2.630311   -0.905735
     19          1           0       -0.000758   -1.325306    1.278474
     20          1           0        0.016545   -0.672096    2.920806
     21          1           0        0.557857   -2.333164    2.617330
     22          1           0        1.975362    0.248894    1.725069
     23          1           0        2.543490   -0.868121    2.957244
     24          1           0        3.836663   -1.391806    1.016509
     25          1           0        2.622851   -2.693428    1.110626
     26          1           0        3.334123    0.614388   -0.323015
     27          1           0        3.626906   -0.338144   -1.776335
     28          1           0        2.296106    1.596073   -2.419837
     29          1           0        1.285870    0.160054   -2.559489
     30          1           0        1.721322    3.336888   -0.250111
     31          1           0       -0.350098    3.646272    1.146590
     32          1           0       -0.777069   -0.989892   -1.565573
     33          1           0       -3.984001    0.198489    1.063743
     34          1           0       -2.761441    2.267712    1.706041
 ---------------------------------------------------------------------

 SCF Done:  E(UB3LYP) =  -766.240708773     A.U. after   32 cycles

 The electronic state is 2-A.
 Alpha  occ. eigenvalues --  -19.00115 -14.25902 -14.19833 -10.14432 -10.11077
 Alpha  occ. eigenvalues --  -10.09987 -10.09965 -10.09630 -10.08403 -10.07854
 Alpha  occ. eigenvalues --  -10.07831 -10.07715 -10.07689 -10.07646 -10.07273
 Alpha  occ. eigenvalues --  -10.07152 -10.06835 -10.05704  -0.93490  -0.88342
 Alpha  occ. eigenvalues --   -0.79782  -0.75236  -0.71515  -0.69916  -0.66667
 Alpha  occ. eigenvalues --   -0.65884  -0.62748  -0.60717  -0.55561  -0.54849
 Alpha  occ. eigenvalues --   -0.51068  -0.50358  -0.47136  -0.44634  -0.42602
 Alpha  occ. eigenvalues --   -0.41987  -0.39134  -0.37972  -0.36678  -0.36015
 Alpha  occ. eigenvalues --   -0.34731  -0.34273  -0.33692  -0.33137  -0.31607
 Alpha  occ. eigenvalues --   -0.31108  -0.30296  -0.29776  -0.29090  -0.27890
 Alpha  occ. eigenvalues --   -0.27272  -0.26267  -0.25660  -0.25266  -0.25060
 Alpha  occ. eigenvalues --   -0.24601  -0.24106  -0.23407  -0.22271  -0.22017
 Alpha  occ. eigenvalues --   -0.18336  -0.14386  -0.13293  -0.11298   0.03315
 Alpha virt. eigenvalues --    0.05437   0.05917   0.07028   0.07693   0.07945
 Alpha virt. eigenvalues --    0.08198   0.08731   0.09502   0.09866   0.10615
 Alpha virt. eigenvalues --    0.10751   0.11820   0.12062   0.12264   0.12908

  Beta  occ. eigenvalues --  -19.00029 -14.25875 -14.19795 -10.14284 -10.11063
  Beta  occ. eigenvalues --  -10.09982 -10.09876 -10.09609 -10.08417 -10.07806
  Beta  occ. eigenvalues --  -10.07773 -10.07708 -10.07687 -10.07654 -10.07276
  Beta  occ. eigenvalues --  -10.06985 -10.06820 -10.05702  -0.93295  -0.88261
  Beta  occ. eigenvalues --   -0.79719  -0.75117  -0.71432  -0.69850  -0.66553
  Beta  occ. eigenvalues --   -0.65764  -0.62601  -0.60645  -0.55476  -0.54659
  Beta  occ. eigenvalues --   -0.50977  -0.50288  -0.47031  -0.44499  -0.42471
  Beta  occ. eigenvalues --   -0.41854  -0.39036  -0.37874  -0.36558  -0.35912
  Beta  occ. eigenvalues --   -0.34657  -0.34190  -0.33613  -0.33001  -0.31519
  Beta  occ. eigenvalues --   -0.31017  -0.30243  -0.29651  -0.28992  -0.27657
  Beta  occ. eigenvalues --   -0.27192  -0.26108  -0.25582  -0.25227  -0.25000
  Beta  occ. eigenvalues --   -0.24549  -0.24053  -0.23146  -0.22234  -0.21777
  Beta  occ. eigenvalues --   -0.17944  -0.14307  -0.13016  -0.10887
  Beta virt. eigenvalues --    0.05954   0.06680   0.06919   0.07545   0.07993
  Beta virt. eigenvalues --    0.08208   0.08820   0.09136   0.09582   0.10082
  Beta virt. eigenvalues --    0.10714   0.10869   0.11902   0.12249   0.12300

 Mulliken charges and spin densities:
               1          2
     1  C   -0.439914  -0.133011
     2  C   -0.036007  -0.166469
     3  C   -0.402901  -0.173244
     4  C    0.179560   0.351020
     5  O   -0.277731   0.038229
     6  C    0.061085  -0.547267
     7  C   -0.221128  -0.207825
     8  C    0.548667  -0.170065
     9  C    0.052578  -0.091045
    10  N   -0.237601   0.092102
    11  C    0.277935  -0.607112
    12  C    0.931638  -0.329552
    13  C   -0.305223   0.007780
    14  C    1.363274  -0.162904
    15  C   -0.353500   0.029879
    16  C   -0.652677   0.233081
    17  C   -1.208366  -0.163190
    18  N   -0.241480   0.021095
    19  H    0.222483   0.069422
    20  H    0.124316  -0.016037
    21  H    0.118235   0.005949
    22  H    0.174640   0.003516
    23  H   -0.103575   0.277367
    24  H   -0.038356   0.198649
    25  H    0.137123   0.025514
    26  H    0.161013  -0.037811
    27  H   -0.059997   0.252397
    28  H   -0.150444   0.331577
    29  H    0.190355  -0.014102
    30  H   -0.728270   0.897016
    31  H   -0.336440   0.665462
    32  H    0.220170   0.028339
    33  H    0.181201  -0.005467
    34  H   -0.150665   0.296707
 Sum of Mulliken charges =  -1.00000   1.00000

 Dipole moment (field-independent basis, Debye):
    X=              2.1930    Y=             -0.3149    Z=              2.0718  Tot=              3.0333
 Quadrupole moment (field-independent basis, Debye-Ang):
   XX=           -158.7115   YY=           -171.1840   ZZ=           -133.9077
   XY=            -16.1564   XZ=             -4.6653   YZ=             -7.5761

 Summary of Natural Population Analysis:

                                       Natural Population
                Natural  -----------------------------------------------
    Atom  No    Charge         Core      Valence    Rydberg      Total
 -----------------------------------------------------------------------
      C    1   -0.28855      0.99966     2.28311    0.00578     3.28855
      C    2   -0.18735      0.99964     2.18060    0.00712     3.18735
      C    3   -0.23365      0.99958     2.22589    0.00817     3.23365
      C    4    0.31494      0.99966     1.66361    0.02180     2.68506
      O    5   -0.28852      0.99987     3.28202    0.00663     4.28852
      C    6   -0.23106      0.99957     2.22329    0.00820     3.23106
      C    7   -0.19642      0.99960     2.18724    0.00958     3.19642
      C    8   -0.05094      0.99948     2.03978    0.01168     3.05094
      C    9    0.01740      0.99949     1.97054    0.01258     2.98260
      N   10   -0.26909      0.99966     2.75930    0.01012     3.76909
      C   11    0.08690      0.99948     1.90130    0.01232     2.91310
      C   12   -0.04707      0.99945     2.03755    0.01007     3.04707
      C   13   -0.03367      0.99950     2.02584    0.00834     3.03367
      C   14   -0.10953      0.99943     2.10116    0.00894     3.10953
      C   15   -0.09031      0.99955     2.08113    0.00962     3.09031
      C   16   -0.10677      0.99952     2.09801    0.00924     3.10677
      C   17    0.16030      0.99963     1.82249    0.01759     2.83970
      N   18   -0.19358      0.99979     2.68328    0.01051     3.69358
      H   19    0.11009      0.00000     0.38874    0.00117     0.38991
      H   20    0.09809      0.00000     0.40126    0.00065     0.40191
      H   21    0.09199      0.00000     0.40728    0.00073     0.40801
      H   22    0.09953      0.00000     0.39896    0.00151     0.40047
      H   23    0.09380      0.00000     0.40519    0.00101     0.40620
      H   24    0.10209      0.00000     0.39688    0.00103     0.39791
      H   25    0.10398      0.00000     0.39491    0.00112     0.39602
      H   26    0.09902      0.00000     0.39954    0.00143     0.40098
      H   27    0.11120      0.00000     0.38745    0.00136     0.38880
      H   28    0.10353      0.00000     0.39545    0.00103     0.39647
      H   29    0.10905      0.00000     0.38963    0.00133     0.39095
      H   30    0.10054      0.00000     0.39777    0.00170     0.39946
      H   31    0.20404      0.00000     0.28665    0.00931     0.29596
      H   32    0.11614      0.00000     0.38265    0.00121     0.38386
      H   33    0.10154      0.00000     0.39763    0.00083     0.39846
      H   34    0.10238      0.00000     0.39676    0.00086     0.39762
 =======================================================================
   * Total *   -0.00000     17.99255    45.79289    0.21456    64.00000

 Normal termination of Gaussian 16 at Fri Dec 11 23:44:55 2020.
