 Gaussian 16, Revision A.03,

 -----------------------------------------------------------
 # opt freq B3LYP/6-31G(d) empiricaldispersion=gd3bj scf=xqc
 -----------------------------------------------------------

 ------------------------------
 CID_90749520_JID_4381_neutraal
 ------------------------------
 Symbolic Z-matrix:
 Charge =  0 Multiplicity = 1

 SCF Done:  E(RB3LYP) =  -720.023809989     A.U. after   15 cycles
 SCF Done:  E(RB3LYP) =  -720.025454009     A.U. after   14 cycles
 SCF Done:  E(RB3LYP) =  -720.027792523     A.U. after   15 cycles
 SCF Done:  E(RB3LYP) =  -720.028894056     A.U. after   12 cycles
 SCF Done:  E(RB3LYP) =  -720.029312332     A.U. after   12 cycles
 SCF Done:  E(RB3LYP) =  -720.029658715     A.U. after   12 cycles
 SCF Done:  E(RB3LYP) =  -720.029995822     A.U. after   12 cycles
 SCF Done:  E(RB3LYP) =  -720.030642847     A.U. after   13 cycles
 SCF Done:  E(RB3LYP) =  -720.031395756     A.U. after   15 cycles
 SCF Done:  E(RB3LYP) =  -720.032216794     A.U. after   13 cycles
 SCF Done:  E(RB3LYP) =  -720.032646164     A.U. after   12 cycles
 SCF Done:  E(RB3LYP) =  -720.032683055     A.U. after   11 cycles
 SCF Done:  E(RB3LYP) =  -720.032698859     A.U. after   11 cycles
 SCF Done:  E(RB3LYP) =  -720.032702943     A.U. after    9 cycles
 SCF Done:  E(RB3LYP) =  -720.032704541     A.U. after    9 cycles
 SCF Done:  E(RB3LYP) =  -720.032704860     A.U. after    8 cycles
 Optimization completed.
    -- Stationary point found.
 Normal termination of Gaussian 16 at Thu Dec 10 09:25:19 2020.

 --------------------------------------------------------------------
 #N Geom=AllCheck Guess=TCheck SCRF=Check GenChk RB3LYP/6-31G(d) Freq
 --------------------------------------------------------------------

 Structure from the checkpoint file:  "JID_4381.chk"
 ------------------------------
 CID_90749520_JID_4381_neutraal
 ------------------------------
 Charge =  0 Multiplicity = 1

 SCF Done:  E(RB3LYP) =  -720.032704860     A.U. after    1 cycles

  Exact polarizability: 140.297   0.474  92.375   4.746   9.802  72.969
 Approx polarizability: 197.068  -2.546 149.581   6.129  32.826 124.365

                      1                      2                      3
                      A                      A                      A
 Frequencies --     36.6194                52.1883                54.3350
 Red. masses --      6.3435                 6.0328                 6.3218
 Frc consts  --      0.0050                 0.0097                 0.0110
 IR Inten    --      1.1816                 8.1006                 3.6306

                      4                      5                      6
                      A                      A                      A
 Frequencies --    103.5055               120.2720               183.8566
 Red. masses --      5.5908                 7.8807                 6.2892
 Frc consts  --      0.0353                 0.0672                 0.1253
 IR Inten    --      2.3195                 0.7500                 0.9740

                      7                      8                      9
                      A                      A                      A
 Frequencies --    203.2042               247.2351               276.9674
 Red. masses --      5.7809                 4.6304                 2.6402
 Frc consts  --      0.1406                 0.1668                 0.1193
 IR Inten    --      3.7583                 1.7036                 7.5429

                     10                     11                     12
                      A                      A                      A
 Frequencies --    326.1971               343.6318               396.1827
 Red. masses --      5.7490                 5.5437                 4.7291
 Frc consts  --      0.3604                 0.3857                 0.4373
 IR Inten    --     11.5309                 0.1381                 2.4714

                     13                     14                     15
                      A                      A                      A
 Frequencies --    476.8348               500.6633               574.6649
 Red. masses --      4.1706                 5.8505                 2.4725
 Frc consts  --      0.5587                 0.8640                 0.4811
 IR Inten    --     20.5134                 8.7544                82.6215

                     16                     17                     18
                      A                      A                      A
 Frequencies --    582.1714               605.8853               625.6227
 Red. masses --      1.3791                 1.4875                 4.4661
 Frc consts  --      0.2754                 0.3217                 1.0299
 IR Inten    --     23.0953               104.7130                48.1634

                     19                     20                     21
                      A                      A                      A
 Frequencies --    642.6451               703.5925               762.8183
 Red. masses --      5.3937                 3.6203                 3.6036
 Frc consts  --      1.3124                 1.0559                 1.2355
 IR Inten    --      1.7926                 5.6668                45.7785

                     22                     23                     24
                      A                      A                      A
 Frequencies --    770.6504               787.2743               833.7600
 Red. masses --      4.4977                 1.2087                 5.1555
 Frc consts  --      1.5738                 0.4414                 2.1116
 IR Inten    --     10.3065                 7.8292                16.5378

                     25                     26                     27
                      A                      A                      A
 Frequencies --    839.5446               896.6102               911.3627
 Red. masses --      1.4217                 2.3204                 1.3361
 Frc consts  --      0.5904                 1.0991                 0.6539
 IR Inten    --     23.4177                10.1767                 2.0975

                     28                     29                     30
                      A                      A                      A
 Frequencies --    940.2744               949.4144               956.6678
 Red. masses --      5.4954                 2.3863                 4.6553
 Frc consts  --      2.8626                 1.2673                 2.5103
 IR Inten    --     20.6716                 4.8083                10.6337

                     31                     32                     33
                      A                      A                      A
 Frequencies --    979.9339              1000.9236              1023.8249
 Red. masses --      4.1511                 3.1973                 4.0604
 Frc consts  --      2.3486                 1.8872                 2.5077
 IR Inten    --      6.6987                12.0066                11.8464

                     34                     35                     36
                      A                      A                      A
 Frequencies --   1056.2602              1080.5998              1097.2536
 Red. masses --      1.4208                 1.3186                 1.3715
 Frc consts  --      0.9340                 0.9072                 0.9729
 IR Inten    --     11.4983                11.1860                 1.8480

                     37                     38                     39
                      A                      A                      A
 Frequencies --   1145.6117              1183.4138              1211.8080
 Red. masses --      1.8885                 2.9330                 1.2870
 Frc consts  --      1.4603                 2.4201                 1.1135
 IR Inten    --      5.4708               107.4746                 0.3775

                     40                     41                     42
                      A                      A                      A
 Frequencies --   1229.6735              1242.7919              1302.6904
 Red. masses --      2.5214                 2.0897                 3.3538
 Frc consts  --      2.2463                 1.9016                 3.3533
 IR Inten    --    147.1093               101.1228               135.9498

                     43                     44                     45
                      A                      A                      A
 Frequencies --   1333.2473              1383.3592              1424.8691
 Red. masses --      6.1541                 4.6189                 3.6775
 Frc consts  --      6.4452                 5.2079                 4.3989
 IR Inten    --    251.3367                 0.7379               147.2480

                     46                     47                     48
                      A                      A                      A
 Frequencies --   1469.5511              1503.7189              1510.6006
 Red. masses --      1.0985                 4.5581                 1.4655
 Frc consts  --      1.3978                 6.0725                 1.9704
 IR Inten    --      6.0895                24.2153                 1.4806

                     49                     50                     51
                      A                      A                      A
 Frequencies --   1627.1609              1659.6814              1797.5482
 Red. masses --      6.7578                 1.2614                 7.5388
 Frc consts  --     10.5419                 2.0471                14.3521
 IR Inten    --     25.9886               178.2784               241.5966

                     52                     53                     54
                      A                      A                      A
 Frequencies --   1811.6989              3165.8831              3171.7115
 Red. masses --     11.9147                 1.0541                 1.0548
 Frc consts  --     23.0412                 6.2249                 6.2517
 IR Inten    --    227.9144                 4.1350                 5.0673

                     55                     56                     57
                      A                      A                      A
 Frequencies --   3252.4543              3269.0457              3269.4743
 Red. masses --      1.1203                 1.0958                 1.1176
 Frc consts  --      6.9823                 6.8996                 7.0387
 IR Inten    --      1.6024                 1.9543                 0.8113

                     58                     59                     60
                      A                      A                      A
 Frequencies --   3313.3028              3546.2566              3664.8962
 Red. masses --      1.1005                 1.0470                 1.1019
 Frc consts  --      7.1181                 7.7579                 8.7201
 IR Inten    --      1.2381                54.6254                92.7004

 - Thermochemistry -
 -------------------
 Temperature   298.150 Kelvin.  Pressure   1.00000 Atm.
 Atom     1 has atomic number  6 and mass  12.00000

 Molecular mass:   196.04841 amu.
 Principal axes and moments of inertia in atomic units:
                           1         2         3
     Eigenvalues --  1041.073394776.821255153.35498
           X            0.99994   0.00243   0.01033
           Y           -0.00225   0.99986  -0.01672
           Z           -0.01037   0.01670   0.99981
 This molecule is an asymmetric top.
 Rotational symmetry number  1.
 Warning -- assumption of classical behavior for rotation
           may cause significant error
 Rotational temperatures (Kelvin)      0.08320     0.01813     0.01681
 Rotational constants (GHZ):           1.73354     0.37781     0.35021
 Zero-point vibrational energy     427269.6 (Joules/Mol)
                                  102.11988 (Kcal/Mol)
 Warning -- explicit consideration of  17 degrees of freedom as
           vibrations may cause significant error
 Vibrational temperatures:     52.69    75.09    78.18   148.92   173.04
          (Kelvin)            264.53   292.37   355.72   398.49   469.32
                              494.41   570.02   686.06   720.34   826.81
                              837.61   871.73   900.13   924.62  1012.31
                             1097.53  1108.79  1132.71  1199.59  1207.92
                             1290.02  1311.25  1352.85  1366.00  1376.43
                             1409.91  1440.11  1473.06  1519.72  1554.74
                             1578.70  1648.28  1702.67  1743.52  1769.23
                             1788.10  1874.28  1918.25  1990.35  2050.07
                             2114.36  2163.52  2173.42  2341.12  2387.91
                             2586.27  2606.63  4555.00  4563.39  4679.56
                             4703.43  4704.04  4767.10  5102.27  5272.97

 Zero-point correction=                           0.162738 (Hartree/Particle)
 Thermal correction to Energy=                    0.175001
 Thermal correction to Enthalpy=                  0.175945
 Thermal correction to Gibbs Free Energy=         0.122647
 Sum of electronic and zero-point Energies=           -719.869966
 Sum of electronic and thermal Energies=              -719.857704
 Sum of electronic and thermal Enthalpies=            -719.856760
 Sum of electronic and thermal Free Energies=         -719.910058

                     E (Thermal)             CV                S
                      KCal/Mol        Cal/Mol-Kelvin    Cal/Mol-Kelvin
 Total                  109.815             45.590            112.175
 Electronic               0.000              0.000              0.000
 Translational            0.889              2.981             41.725
 Rotational               0.889              2.981             31.616
 Vibrational            108.037             39.629             38.834
 Vibration     1          0.594              1.982              5.434
 Vibration     2          0.596              1.977              4.733
 Vibration     3          0.596              1.976              4.653
 Vibration     4          0.605              1.946              3.387
 Vibration     5          0.609              1.932              3.096
 Vibration     6          0.631              1.862              2.289
 Vibration     7          0.639              1.835              2.104
 Vibration     8          0.661              1.767              1.750
 Vibration     9          0.678              1.716              1.552
 Vibration    10          0.710              1.623              1.279
 Vibration    11          0.722              1.588              1.195
 Vibration    12          0.763              1.478              0.977
 Vibration    13          0.833              1.301              0.719
 Vibration    14          0.856              1.249              0.656
 Vibration    15          0.931              1.086              0.495
 Vibration    16          0.939              1.070              0.481
 Vibration    17          0.965              1.019              0.440

                           ! Non-Optimized Parameters !
 Normal termination of Gaussian 16 at Thu Dec 10 09:31:06 2020.

 ----------------------------------------------------------------------
 # B3LYP/6-311++G(d,p) empiricaldispersion=gd3bj scf=xqc pop=npa geom=c
 heck
 ----------------------------------------------------------------------

 --------------------------------------
 CID_90749520_JID_4381_Energie_neutraal
 --------------------------------------
 Structure from the checkpoint file:  "JID_4381.chk"
 Charge =  0 Multiplicity = 1

 SCF Done:  E(RB3LYP) =  -720.243637628     A.U. after   16 cycles
 Normal termination of Gaussian 16 at Thu Dec 10 09:33:35 2020.

 ----------------------------------------------------------------------
 # B3LYP/6-311++G(d,p) empiricaldispersion=gd3bj scf=xqc pop=npa geom=c
 heck
 ----------------------------------------------------------------------

 ------------------------------------
 CID_90749520_JID_4381_Energie_kation
 ------------------------------------
 Structure from the checkpoint file:  "JID_4381.chk"
 Charge =  1 Multiplicity = 2

 SCF Done:  E(UB3LYP) =  -719.896875424     A.U. after   29 cycles
 Normal termination of Gaussian 16 at Thu Dec 10 09:40:05 2020.
 Gaussian 16:  ES64L-G16RevA.03 25-Dec-2016

 ----------------------------------------------------------------------
 # B3LYP/6-311++G(d,p) empiricaldispersion=gd3bj scf=xqc pop=npa geom=c
 heck
 ----------------------------------------------------------------------

 -----------------------------------
 CID_90749520_JID_4381_Energie_anion
 -----------------------------------
 Structure from the checkpoint file:  "JID_4381.chk"
 Charge = -1 Multiplicity = 2

                         Standard orientation:
 ---------------------------------------------------------------------
 Center     Atomic      Atomic             Coordinates (Angstroms)
 Number     Number       Type             X           Y           Z
 ---------------------------------------------------------------------
      1          6           0       -2.089408    1.192747   -1.308093
      2          6           0       -2.293134    1.897410    0.003719
      3          6           0       -1.713956    0.512995   -0.010918
      4          6           0       -2.601817   -0.616877    0.467061
      5          8           0       -3.798691   -0.420696    0.629408
      6          7           0       -1.993554   -1.817015    0.701182
      7          8           0       -0.324270    0.487783    0.327889
      8          6           0        0.505986   -0.313796   -0.370863
      9          8           0        0.164313   -1.166085   -1.163573
     10          6           0        1.903563   -0.019237   -0.007723
     11          6           0        2.474182    0.895813    0.830698
     12          6           0        3.862180    0.629855    0.704483
     13          7           0        4.102379   -0.355455   -0.134771
     14          8           0        2.860876   -0.772727   -0.590491
     15          1           0       -1.269079    1.508674   -1.944740
     16          1           0       -2.956537    0.797104   -1.826519
     17          1           0       -1.604203    2.695257    0.261459
     18          1           0       -3.300560    1.980368    0.394646
     19          1           0       -1.169077   -2.047585    0.158546
     20          1           0       -2.635765   -2.577839    0.885265
     21          1           0        1.974423    1.633452    1.438042
     22          1           0        4.695613    1.118198    1.192380
 ---------------------------------------------------------------------

 SCF Done:  E(UB3LYP) =  -720.271551656     A.U. after   23 cycles

 The electronic state is 2-A.
 Alpha  occ. eigenvalues --  -19.03062 -19.02476 -18.98828 -18.93892 -14.22052
 Alpha  occ. eigenvalues --  -14.18835 -10.17257 -10.13561 -10.12085 -10.07737
 Alpha  occ. eigenvalues --  -10.07395 -10.06305 -10.05118 -10.01579  -0.98099
 Alpha  occ. eigenvalues --   -0.96396  -0.93731  -0.86831  -0.79782  -0.75854
 Alpha  occ. eigenvalues --   -0.70561  -0.64105  -0.56696  -0.52052  -0.50681
 Alpha  occ. eigenvalues --   -0.46739  -0.45115  -0.43609  -0.41573  -0.39328
 Alpha  occ. eigenvalues --   -0.38216  -0.34886  -0.33954  -0.32571  -0.31512
 Alpha  occ. eigenvalues --   -0.30818  -0.30223  -0.29082  -0.28254  -0.26777
 Alpha  occ. eigenvalues --   -0.25021  -0.22710  -0.22066  -0.19270  -0.17884
 Alpha  occ. eigenvalues --   -0.17619  -0.15344  -0.15070  -0.14881  -0.12723
 Alpha  occ. eigenvalues --   -0.11723   0.04103
 Alpha virt. eigenvalues --    0.08689   0.09122   0.09734   0.10462   0.11008
 Alpha virt. eigenvalues --    0.11635   0.12854   0.14078   0.14462   0.15069
 Alpha virt. eigenvalues --    0.15617   0.16298   0.17062   0.17774   0.17899

  Beta  occ. eigenvalues --  -19.02652 -19.02355 -18.98819 -18.93446 -14.22050
  Beta  occ. eigenvalues --  -14.18360 -10.17243 -10.13565 -10.11668 -10.07720
  Beta  occ. eigenvalues --  -10.07397 -10.06126 -10.05210 -10.01397  -0.97419
  Beta  occ. eigenvalues --   -0.96008  -0.93670  -0.86117  -0.79768  -0.75783
  Beta  occ. eigenvalues --   -0.69962  -0.63479  -0.56477  -0.51697  -0.50436
  Beta  occ. eigenvalues --   -0.46476  -0.45058  -0.43267  -0.41433  -0.39117
  Beta  occ. eigenvalues --   -0.38031  -0.34751  -0.33683  -0.31765  -0.30483
  Beta  occ. eigenvalues --   -0.30400  -0.29973  -0.28383  -0.27604  -0.26536
  Beta  occ. eigenvalues --   -0.24668  -0.22312  -0.21738  -0.18518  -0.17578
  Beta  occ. eigenvalues --   -0.17197  -0.14790  -0.14408  -0.13495  -0.12307
  Beta  occ. eigenvalues --   -0.09414
  Beta virt. eigenvalues --    0.08658   0.09069   0.09681   0.10358   0.10971
  Beta virt. eigenvalues --    0.11423   0.11881   0.12803   0.14084   0.14457
  Beta virt. eigenvalues --    0.15048   0.16289   0.16690   0.17070   0.17796

 Mulliken charges and spin densities:
               1          2
     1  C   -0.119111   0.000129
     2  C   -0.364159  -0.000091
     3  C    0.194626  -0.009241
     4  C   -0.124632   0.013860
     5  O   -0.378957   0.002830
     6  N   -0.332763  -0.001884
     7  O    0.081941   0.018676
     8  C   -0.249329   0.161456
     9  O   -0.345432   0.155069
    10  C   -0.289332   0.184493
    11  C    0.068090   0.204043
    12  C   -0.277797  -0.057688
    13  N   -0.342352   0.223150
    14  O    0.061268   0.088538
    15  H    0.169771   0.000358
    16  H    0.161160   0.004967
    17  H    0.145407   0.000525
    18  H    0.180223   0.001245
    19  H    0.248279   0.013403
    20  H    0.265056   0.001283
    21  H    0.127199  -0.008329
    22  H    0.120846   0.003209
 Sum of Mulliken charges =  -1.00000   1.00000

 Dipole moment (field-independent basis, Debye):
    X=             -5.0694    Y=              2.3538    Z=              1.3354  Tot=              5.7465
 Quadrupole moment (field-independent basis, Debye-Ang):
   XX=           -139.9930   YY=            -83.9770   ZZ=            -90.7574
   XY=              7.8547   XZ=              8.3866   YZ=             -3.6980

 Summary of Natural Population Analysis:

                                       Natural Population
                Natural  -----------------------------------------------
    Atom  No    Charge         Core      Valence    Rydberg      Total
 -----------------------------------------------------------------------
      C    1   -0.19005      0.99961     2.18248    0.00797     3.19005
      C    2   -0.19748      0.99960     2.18996    0.00792     3.19748
      C    3    0.08954      0.99939     1.89577    0.01530     2.91046
      C    4    0.33447      0.99963     1.64328    0.02261     2.66553
      O    5   -0.33431      0.99988     3.32794    0.00649     4.33431
      N    6   -0.40178      0.99969     2.89497    0.00711     3.90178
      O    7   -0.27703      0.99985     3.26747    0.00971     4.27703
      C    8    0.43138      0.99963     1.54624    0.02274     2.56862
      O    9   -0.28620      0.99987     3.28052    0.00582     4.28620
      C   10    0.14259      0.99945     1.84385    0.01411     2.85741
      C   11   -0.13660      0.99951     2.12876    0.00832     3.13660
      C   12   -0.05280      0.99967     2.03776    0.01537     3.05280
      N   13   -0.02421      0.99971     2.50950    0.01499     3.52421
      O   14   -0.12302      0.99985     3.11129    0.01188     4.12302
      H   15    0.11061      0.00000     0.38851    0.00087     0.38939
      H   16    0.10473      0.00000     0.39423    0.00104     0.39527
      H   17    0.10676      0.00000     0.39226    0.00098     0.39324
      H   18    0.11156      0.00000     0.38735    0.00109     0.38844
      H   19    0.21310      0.00000     0.28515    0.00174     0.28690
      H   20    0.18379      0.00000     0.31294    0.00326     0.31621
      H   21    0.10463      0.00000     0.39456    0.00081     0.39537
      H   22    0.09030      0.00000     0.40860    0.00110     0.40970
 =======================================================================
   * Total *   -0.00000     13.99535    36.82341    0.18123    51.00000

 Normal termination of Gaussian 16 at Thu Dec 10 09:45:20 2020.
