 Gaussian 16, Revision A.03,

 -----------------------------------------------------------
 # opt freq B3LYP/6-31G(d) empiricaldispersion=gd3bj scf=xqc
 -----------------------------------------------------------

 -------------------------------
 CID_150320699_JID_3790_neutraal
 -------------------------------
 Symbolic Z-matrix:
 Charge =  0 Multiplicity = 1

 SCF Done:  E(RB3LYP) =  -660.610043190     A.U. after   16 cycles
 SCF Done:  E(RB3LYP) =  -660.617909472     A.U. after   15 cycles
 SCF Done:  E(RB3LYP) =  -660.619504327     A.U. after   14 cycles
 SCF Done:  E(RB3LYP) =  -660.620842891     A.U. after   13 cycles
 SCF Done:  E(RB3LYP) =  -660.621444835     A.U. after   14 cycles
 SCF Done:  E(RB3LYP) =  -660.622342471     A.U. after   14 cycles
 SCF Done:  E(RB3LYP) =  -660.622708416     A.U. after   14 cycles
 SCF Done:  E(RB3LYP) =  -660.622913607     A.U. after   13 cycles
 SCF Done:  E(RB3LYP) =  -660.623025551     A.U. after   13 cycles
 SCF Done:  E(RB3LYP) =  -660.623091082     A.U. after   11 cycles
 SCF Done:  E(RB3LYP) =  -660.624102018     A.U. after   10 cycles
 SCF Done:  E(RB3LYP) =  -660.624110149     A.U. after   11 cycles
 SCF Done:  E(RB3LYP) =  -660.624113049     A.U. after   10 cycles
 SCF Done:  E(RB3LYP) =  -660.624113776     A.U. after    9 cycles
 SCF Done:  E(RB3LYP) =  -660.624113868     A.U. after    8 cycles
 SCF Done:  E(RB3LYP) =  -660.624113895     A.U. after    7 cycles
 Optimization completed.
    -- Stationary point found.
 Normal termination of Gaussian 16 at Sun Dec 13 12:26:01 2020.

 --------------------------------------------------------------------
 #N Geom=AllCheck Guess=TCheck SCRF=Check GenChk RB3LYP/6-31G(d) Freq
 --------------------------------------------------------------------

 Structure from the checkpoint file:  "JID_3790.chk"
 -------------------------------
 CID_150320699_JID_3790_neutraal
 -------------------------------
 Charge =  0 Multiplicity = 1

 SCF Done:  E(RB3LYP) =  -660.624113895     A.U. after    1 cycles

  Exact polarizability: 119.067  14.821 113.047   4.328  -3.189  78.924
 Approx polarizability: 180.476  43.870 171.161   6.720  -3.795 119.950

                      1                      2                      3
                      A                      A                      A
 Frequencies --     42.5602                49.0825                55.1110
 Red. masses --      4.8454                 3.8210                 4.4218
 Frc consts  --      0.0052                 0.0054                 0.0079
 IR Inten    --      1.3680                 1.5364                 1.3162

                      4                      5                      6
                      A                      A                      A
 Frequencies --     81.5065                95.2528               128.5459
 Red. masses --      5.0216                 7.1731                 3.8616
 Frc consts  --      0.0197                 0.0383                 0.0376
 IR Inten    --      1.4264                 3.0629                 0.8561

                      7                      8                      9
                      A                      A                      A
 Frequencies --    165.7724               189.1666               245.6842
 Red. masses --      1.9230                 4.0670                 2.3447
 Frc consts  --      0.0311                 0.0857                 0.0834
 IR Inten    --      0.4109                 2.3501                 3.2119

                     10                     11                     12
                      A                      A                      A
 Frequencies --    253.8055               266.4582               282.5131
 Red. masses --      2.4656                 2.0644                 1.8648
 Frc consts  --      0.0936                 0.0864                 0.0877
 IR Inten    --      1.6130                60.7449                 1.0733

                     13                     14                     15
                      A                      A                      A
 Frequencies --    310.4138               365.3078               380.7465
 Red. masses --      2.4749                 5.3923                 2.6187
 Frc consts  --      0.1405                 0.4240                 0.2237
 IR Inten    --     16.1480                 5.6772                 8.6150

                     16                     17                     18
                      A                      A                      A
 Frequencies --    443.8818               457.7537               487.2521
 Red. masses --      3.0605                 2.8993                 3.3544
 Frc consts  --      0.3553                 0.3579                 0.4692
 IR Inten    --      3.0631                33.7352                 4.7090

                     19                     20                     21
                      A                      A                      A
 Frequencies --    506.4338               532.6035               549.5491
 Red. masses --     10.0036                 1.4114                 3.0467
 Frc consts  --      1.5116                 0.2359                 0.5421
 IR Inten    --      2.5648                63.6293                 0.9445

                     22                     23                     24
                      A                      A                      A
 Frequencies --    598.7164               633.2293               684.0192
 Red. masses --      5.2440                 1.1924                 2.2719
 Frc consts  --      1.1075                 0.2817                 0.6263
 IR Inten    --     13.0156               187.6925                16.7317

                     25                     26                     27
                      A                      A                      A
 Frequencies --    752.2756               766.7377               800.3963
 Red. masses --      3.2181                 1.9176                 5.6876
 Frc consts  --      1.0730                 0.6642                 2.1468
 IR Inten    --     55.9500                16.4246                31.7779

                     28                     29                     30
                      A                      A                      A
 Frequencies --    831.6318               860.4349               962.0845
 Red. masses --      2.4113                 1.5497                 1.7359
 Frc consts  --      0.9826                 0.6760                 0.9467
 IR Inten    --      9.1618                 9.1884                 6.0373

                     31                     32                     33
                      A                      A                      A
 Frequencies --    977.6449              1015.9357              1049.2029
 Red. masses --      2.0426                 2.3825                 2.6068
 Frc consts  --      1.1502                 1.4488                 1.6907
 IR Inten    --      3.8313                11.9208                48.8239

                     34                     35                     36
                      A                      A                      A
 Frequencies --   1081.3127              1092.3874              1135.1955
 Red. masses --      3.5762                 2.1294                 1.8080
 Frc consts  --      2.4636                 1.4972                 1.3728
 IR Inten    --     36.0082                 6.5893                33.6332

                     37                     38                     39
                      A                      A                      A
 Frequencies --   1146.4383              1169.9971              1187.7354
 Red. masses --      2.1234                 2.2556                 2.7674
 Frc consts  --      1.6443                 1.8192                 2.3002
 IR Inten    --     10.0113                24.3518                76.8152

                     40                     41                     42
                      A                      A                      A
 Frequencies --   1247.4721              1279.3525              1281.7971
 Red. masses --      1.3417                 2.4452                 2.4239
 Frc consts  --      1.2301                 2.3580                 2.3464
 IR Inten    --     15.5756                22.5891                 9.1831

                     43                     44                     45
                      A                      A                      A
 Frequencies --   1313.9071              1335.5204              1359.0013
 Red. masses --      1.3865                 1.1728                 1.2581
 Frc consts  --      1.4102                 1.2325                 1.3690
 IR Inten    --     44.2105                 6.1801                21.3626

                     46                     47                     48
                      A                      A                      A
 Frequencies --   1377.6446              1398.7165              1411.6231
 Red. masses --      1.8549                 1.3989                 1.4467
 Frc consts  --      2.0742                 1.6125                 1.6985
 IR Inten    --    215.6952                18.8734                10.4074

                     49                     50                     51
                      A                      A                      A
 Frequencies --   1428.0912              1444.1863              1479.4107
 Red. masses --      1.4779                 1.2719                 1.5447
 Frc consts  --      1.7758                 1.5629                 1.9919
 IR Inten    --     28.8835                 2.9278                63.1484

                     52                     53                     54
                      A                      A                      A
 Frequencies --   1513.3877              1521.5528              1526.8289
 Red. masses --      1.0939                 1.0922                 1.0489
 Frc consts  --      1.4762                 1.4898                 1.4407
 IR Inten    --      5.1388                 6.7733                 1.3132

                     55                     56                     57
                      A                      A                      A
 Frequencies --   1536.1117              1542.6440              1643.4677
 Red. masses --      1.0564                 1.0794                 1.1949
 Frc consts  --      1.4687                 1.5135                 1.9016
 IR Inten    --      7.3371                 5.1183               165.2248

                     58                     59                     60
                      A                      A                      A
 Frequencies --   1813.4788              2243.6093              3030.2951
 Red. masses --      9.4781                13.9794                 1.0668
 Frc consts  --     18.3653                41.4605                 5.7716
 IR Inten    --    236.5682               447.0419                16.7418

                     61                     62                     63
                      A                      A                      A
 Frequencies --   3040.7418              3043.9794              3052.2035
 Red. masses --      1.0519                 1.0529                 1.0651
 Frc consts  --      5.7306                 5.7481                 5.8459
 IR Inten    --     27.4168                33.8388                20.0888

                     64                     65                     66
                      A                      A                      A
 Frequencies --   3081.6242              3085.5755              3092.1132
 Red. masses --      1.0946                 1.0893                 1.0980
 Frc consts  --      6.1242                 6.1106                 6.1854
 IR Inten    --      3.1309                15.1633                22.2093

                     67                     68                     69
                      A                      A                      A
 Frequencies --   3107.6818              3111.6695              3115.0897
 Red. masses --      1.0994                 1.0966                 1.1005
 Frc consts  --      6.2555                 6.2556                 6.2919
 IR Inten    --     67.0602                43.3872                34.7265

                     70                     71                     72
                      A                      A                      A
 Frequencies --   3534.3477              3673.0067              3745.5269
 Red. masses --      1.0499                 1.0988                 1.0657
 Frc consts  --      7.7272                 8.7337                 8.8087
 IR Inten    --     51.4011                70.8353                19.2739

 - Thermochemistry -
 -------------------
 Temperature   298.150 Kelvin.  Pressure   1.00000 Atm.
 Atom     1 has atomic number  6 and mass  12.00000

 Molecular mass:   187.10692 amu.
 Principal axes and moments of inertia in atomic units:
                           1         2         3
     Eigenvalues --  1798.705253126.034413940.77247
           X            0.99874  -0.05007  -0.00189
           Y            0.05009   0.99871   0.00806
           Z            0.00149  -0.00814   0.99997
 This molecule is an asymmetric top.
 Rotational symmetry number  1.
 Warning -- assumption of classical behavior for rotation
           may cause significant error
 Rotational temperatures (Kelvin)      0.04815     0.02771     0.02198
 Rotational constants (GHZ):           1.00336     0.57733     0.45797
 Zero-point vibrational energy     562522.6 (Joules/Mol)
                                  134.44613 (Kcal/Mol)
 Warning -- explicit consideration of  22 degrees of freedom as
           vibrations may cause significant error
 Vibrational temperatures:     61.23    70.62    79.29   117.27   137.05
          (Kelvin)            184.95   238.51   272.17   353.48   365.17
                              383.37   406.47   446.62   525.60   547.81
                              638.65   658.61   701.05   728.65   766.30
                              790.68   861.42   911.08   984.15  1082.36
                             1103.16  1151.59  1196.53  1237.97  1384.22
                             1406.61  1461.70  1509.57  1555.77  1571.70
                             1633.29  1649.47  1683.36  1708.89  1794.83
                             1840.70  1844.22  1890.42  1921.52  1955.30
                             1982.12  2012.44  2031.01  2054.70  2077.86
                             2128.54  2177.43  2189.18  2196.77  2210.12
                             2219.52  2364.58  2609.19  3228.05  4359.92
                             4374.95  4379.61  4391.44  4433.77  4439.45
                             4448.86  4471.26  4477.00  4481.92  5085.14
                             5284.64  5388.98

 Zero-point correction=                           0.214254 (Hartree/Particle)
 Thermal correction to Energy=                    0.228547
 Thermal correction to Enthalpy=                  0.229491
 Thermal correction to Gibbs Free Energy=         0.172405
 Sum of electronic and zero-point Energies=           -660.409860
 Sum of electronic and thermal Energies=              -660.395567
 Sum of electronic and thermal Enthalpies=            -660.394622
 Sum of electronic and thermal Free Energies=         -660.451709

                     E (Thermal)             CV                S
                      KCal/Mol        Cal/Mol-Kelvin    Cal/Mol-Kelvin
 Total                  143.416             51.718            120.149
 Electronic               0.000              0.000              0.000
 Translational            0.889              2.981             41.586
 Rotational               0.889              2.981             31.472
 Vibrational            141.638             45.756             47.091
 Vibration     1          0.595              1.980              5.136
 Vibration     2          0.595              1.978              4.854
 Vibration     3          0.596              1.976              4.625
 Vibration     4          0.600              1.962              3.854
 Vibration     5          0.603              1.953              3.549
 Vibration     6          0.611              1.925              2.968
 Vibration     7          0.624              1.885              2.483
 Vibration     8          0.633              1.855              2.236
 Vibration     9          0.660              1.770              1.761
 Vibration    10          0.665              1.756              1.704
 Vibration    11          0.672              1.735              1.619
 Vibration    12          0.682              1.706              1.518
 Vibration    13          0.699              1.654              1.360
 Vibration    14          0.739              1.544              1.099
 Vibration    15          0.750              1.511              1.036
 Vibration    16          0.803              1.374              0.814
 Vibration    17          0.816              1.344              0.773
 Vibration    18          0.843              1.278              0.691
 Vibration    19          0.862              1.236              0.642
 Vibration    20          0.888              1.178              0.581
 Vibration    21          0.905              1.141              0.545
 Vibration    22          0.957              1.035              0.452

 Optimization completed.
    -- Stationary point found.
 Normal termination of Gaussian 16 at Sun Dec 13 12:32:08 2020.

 ----------------------------------------------------------------------
 # B3LYP/6-311++G(d,p) empiricaldispersion=gd3bj scf=xqc pop=npa geom=c
 heck
 ----------------------------------------------------------------------

 ---------------------------------------
 CID_150320699_JID_3790_Energie_neutraal
 ---------------------------------------
 Structure from the checkpoint file:  "JID_3790.chk"
 Charge =  0 Multiplicity = 1

 SCF Done:  E(RB3LYP) =  -660.831740976     A.U. after   16 cycles
 Normal termination of Gaussian 16 at Sun Dec 13 12:34:32 2020.

 ----------------------------------------------------------------------
 # B3LYP/6-311++G(d,p) empiricaldispersion=gd3bj scf=xqc pop=npa geom=c
 heck
 ----------------------------------------------------------------------

 -------------------------------------
 CID_150320699_JID_3790_Energie_kation
 -------------------------------------
 Structure from the checkpoint file:  "JID_3790.chk"
 Charge =  1 Multiplicity = 2

 SCF Done:  E(UB3LYP) =  -660.513797195     A.U. after   25 cycles
 Normal termination of Gaussian 16 at Sun Dec 13 12:39:26 2020.
 Gaussian 16:  ES64L-G16RevA.03 25-Dec-2016

 ----------------------------------------------------------------------
 # B3LYP/6-311++G(d,p) empiricaldispersion=gd3bj scf=xqc pop=npa geom=c
 heck
 ----------------------------------------------------------------------

 ------------------------------------
 CID_150320699_JID_3790_Energie_anion
 ------------------------------------
 Structure from the checkpoint file:  "JID_3790.chk"
 Charge = -1 Multiplicity = 2

                         Standard orientation:
 ---------------------------------------------------------------------
 Center     Atomic      Atomic             Coordinates (Angstroms)
 Number     Number       Type             X           Y           Z
 ---------------------------------------------------------------------
      1          6           0       -3.834193    0.832746   -0.210501
      2          6           0       -2.552344    1.215164    0.535496
      3          6           0       -1.831372    0.030272    1.197268
      4          6           0       -1.428447   -1.114161    0.255545
      5          6           0       -0.441992   -0.712837   -0.848241
      6          7           0        0.813131   -0.138355   -0.364249
      7          6           0        1.663971   -0.756174    0.576904
      8          8           0        2.425704   -0.106109    1.273422
      9          7           0        1.571935   -2.128977    0.593481
     10          7           0        0.731526    1.279188   -0.291924
     11          7           0        1.836907    1.838822   -0.475016
     12          7           0        2.738237    2.525587   -0.581406
     13          8           0       -0.080831   -1.839023   -1.655752
     14          1           0       -3.629446    0.195394   -1.079164
     15          1           0       -4.355237    1.723063   -0.578789
     16          1           0       -4.526518    0.286997    0.442901
     17          1           0       -1.864744    1.732792   -0.142970
     18          1           0       -2.797294    1.940437    1.321740
     19          1           0       -0.935525    0.398185    1.711160
     20          1           0       -2.480714   -0.395095    1.973851
     21          1           0       -0.977710   -1.923080    0.839322
     22          1           0       -2.323140   -1.526780   -0.232473
     23          1           0       -0.872713    0.068956   -1.480790
     24          1           0        1.226005   -2.570020   -0.252486
     25          1           0        2.350876   -2.572954    1.060603
     26          1           0       -0.868713   -2.400753   -1.729297
 ---------------------------------------------------------------------

 SCF Done:  E(UB3LYP) =  -660.833915897     A.U. after   29 cycles

 The electronic state is 2-A.
 Alpha  occ. eigenvalues --  -19.02788 -18.97675 -14.31746 -14.24896 -14.24439
 Alpha  occ. eigenvalues --  -14.23117 -14.21709 -10.18651 -10.15408 -10.06369
 Alpha  occ. eigenvalues --  -10.06303 -10.06082 -10.05966  -1.00144  -0.94854
 Alpha  occ. eigenvalues --   -0.93094  -0.87328  -0.80486  -0.75574  -0.69818
 Alpha  occ. eigenvalues --   -0.63771  -0.57900  -0.54635  -0.52057  -0.47046
 Alpha  occ. eigenvalues --   -0.45165  -0.41146  -0.39842  -0.39409  -0.37767
 Alpha  occ. eigenvalues --   -0.36430  -0.35433  -0.35186  -0.33229  -0.31972
 Alpha  occ. eigenvalues --   -0.31280  -0.30698  -0.29804  -0.28484  -0.27992
 Alpha  occ. eigenvalues --   -0.25438  -0.23619  -0.22733  -0.22449  -0.21842
 Alpha  occ. eigenvalues --   -0.18975  -0.17378  -0.16326  -0.15920  -0.10067
 Alpha  occ. eigenvalues --    0.04155
 Alpha virt. eigenvalues --    0.06331   0.07306   0.08152   0.08924   0.10023
 Alpha virt. eigenvalues --    0.11183   0.11439   0.12123   0.12586   0.13303
 Alpha virt. eigenvalues --    0.13861   0.14258   0.14626   0.15159   0.15711

  Beta  occ. eigenvalues --  -19.02737 -18.97679 -14.31432 -14.24775 -14.24465
  Beta  occ. eigenvalues --  -14.22625 -14.21684 -10.18654 -10.15391 -10.06339
  Beta  occ. eigenvalues --  -10.06295 -10.06073 -10.05940  -0.99572  -0.94712
  Beta  occ. eigenvalues --   -0.93021  -0.87057  -0.80416  -0.75295  -0.69773
  Beta  occ. eigenvalues --   -0.63708  -0.57835  -0.54513  -0.51795  -0.46984
  Beta  occ. eigenvalues --   -0.45120  -0.40924  -0.39764  -0.39246  -0.37524
  Beta  occ. eigenvalues --   -0.35696  -0.35281  -0.34674  -0.33121  -0.31698
  Beta  occ. eigenvalues --   -0.31045  -0.30090  -0.29666  -0.28397  -0.27937
  Beta  occ. eigenvalues --   -0.25387  -0.23356  -0.22672  -0.22409  -0.21337
  Beta  occ. eigenvalues --   -0.18862  -0.17349  -0.16080  -0.15876  -0.09893
  Beta virt. eigenvalues --    0.06905   0.07817   0.08710   0.09120   0.09859
  Beta virt. eigenvalues --    0.10501   0.11475   0.11517   0.12491   0.12762
  Beta virt. eigenvalues --    0.13398   0.14019   0.14545   0.14767   0.15445

 Mulliken charges and spin densities:
               1          2
     1  C    0.437208  -1.066375
     2  C   -0.533552   0.297401
     3  C   -0.161572   0.000177
     4  C   -0.120774  -0.079720
     5  C    0.301538  -0.964820
     6  N    0.346076   0.036036
     7  C    0.241601  -0.190297
     8  O   -0.365182  -0.000322
     9  N   -0.466940   0.017564
    10  N   -1.031584   0.214264
    11  N    1.067278  -0.124750
    12  N   -0.223601   0.161754
    13  O   -0.308579   0.026342
    14  H   -0.237694   0.390589
    15  H    0.047865   0.076767
    16  H   -0.084745   0.215467
    17  H    0.142231   0.023622
    18  H    0.055322   0.066082
    19  H    0.128968   0.061759
    20  H    0.030778   0.111962
    21  H   -0.006301   0.205588
    22  H   -0.435013   0.577681
    23  H    0.130520   0.123221
    24  H    0.224847   0.065547
    25  H    0.161335   0.140109
    26  H   -0.340031   0.614353
 Sum of Mulliken charges =  -1.00000   1.00000

 Dipole moment (field-independent basis, Debye):
    X=             -1.0338    Y=             -0.0705    Z=              2.2208  Tot=              2.4507
 Quadrupole moment (field-independent basis, Debye-Ang):
   XX=           -129.3491   YY=           -113.9063   ZZ=           -103.4974
   XY=            -18.2205   XZ=             -7.4660   YZ=             -6.6019

 Summary of Natural Population Analysis:

                                       Natural Population
                Natural  -----------------------------------------------
    Atom  No    Charge         Core      Valence    Rydberg      Total
 -----------------------------------------------------------------------
      C    1   -0.28829      0.99967     2.28383    0.00478     3.28829
      C    2   -0.19562      0.99964     2.18860    0.00738     3.19562
      C    3   -0.19050      0.99962     2.18218    0.00869     3.19050
      C    4   -0.21514      0.99960     2.20539    0.01015     3.21514
      C    5    0.15665      0.99956     1.82584    0.01795     2.84335
      N    6   -0.18334      0.99962     2.67122    0.01251     3.68334
      C    7    0.39916      0.99972     1.57754    0.02358     2.60084
      O    8   -0.33155      0.99987     3.32593    0.00575     4.33155
      N    9   -0.42227      0.99971     2.91503    0.00753     3.92227
      N   10   -0.14119      0.99971     2.62610    0.01537     3.64119
      N   11    0.13696      0.99971     2.34705    0.01627     3.36304
      N   12    0.03135      0.99982     2.45625    0.01258     3.46865
      O   13   -0.37644      0.99989     3.36963    0.00692     4.37644
      H   14    0.09858      0.00000     0.40023    0.00119     0.40142
      H   15    0.09617      0.00000     0.40310    0.00074     0.40383
      H   16    0.09318      0.00000     0.40581    0.00102     0.40682
      H   17    0.10534      0.00000     0.39319    0.00147     0.39466
      H   18    0.09172      0.00000     0.40723    0.00105     0.40828
      H   19    0.10625      0.00000     0.39253    0.00122     0.39375
      H   20    0.09262      0.00000     0.40642    0.00097     0.40738
      H   21    0.10760      0.00000     0.39067    0.00174     0.39240
      H   22    0.10083      0.00000     0.39667    0.00250     0.39917
      H   23    0.09290      0.00000     0.40521    0.00189     0.40710
      H   24    0.20517      0.00000     0.29258    0.00225     0.29483
      H   25    0.19065      0.00000     0.30746    0.00189     0.30935
      H   26    0.23920      0.00000     0.24691    0.01389     0.26080
 =======================================================================
   * Total *    0.00000     12.99614    36.82261    0.18125    50.00000

 Normal termination of Gaussian 16 at Sun Dec 13 12:45:01 2020.
