 Gaussian 16, Revision A.03,

 -----------------------------------------------------------
 # opt freq B3LYP/6-31G(d) empiricaldispersion=gd3bj scf=xqc
 -----------------------------------------------------------

 -------------------------------
 CID_80907039_JID_10486_neutraal
 -------------------------------
 Symbolic Z-matrix:
 Charge =  0 Multiplicity = 1

 SCF Done:  E(RB3LYP) =  -895.134753156     A.U. after   14 cycles
 SCF Done:  E(RB3LYP) =  -895.142875048     A.U. after   12 cycles
 SCF Done:  E(RB3LYP) =  -895.146727204     A.U. after   12 cycles
 SCF Done:  E(RB3LYP) =  -895.149832549     A.U. after   12 cycles
 SCF Done:  E(RB3LYP) =  -895.150943310     A.U. after   12 cycles
 SCF Done:  E(RB3LYP) =  -895.151314180     A.U. after   12 cycles
 SCF Done:  E(RB3LYP) =  -895.151711641     A.U. after   12 cycles
 SCF Done:  E(RB3LYP) =  -895.152346250     A.U. after   12 cycles
 SCF Done:  E(RB3LYP) =  -895.152561259     A.U. after   11 cycles
 SCF Done:  E(RB3LYP) =  -895.152641929     A.U. after   11 cycles
 SCF Done:  E(RB3LYP) =  -895.152700141     A.U. after    9 cycles
 SCF Done:  E(RB3LYP) =  -895.152700946     A.U. after    7 cycles
 SCF Done:  E(RB3LYP) =  -895.152701332     A.U. after    7 cycles
 SCF Done:  E(RB3LYP) =  -895.152701514     A.U. after    7 cycles
 SCF Done:  E(RB3LYP) =  -895.152701575     A.U. after    7 cycles
 Optimization completed.
    -- Stationary point found.
 Normal termination of Gaussian 16 at Mon Dec 14 14:04:16 2020.

 --------------------------------------------------------------------
 #N Geom=AllCheck Guess=TCheck SCRF=Check GenChk RB3LYP/6-31G(d) Freq
 --------------------------------------------------------------------

 Structure from the checkpoint file:  "JID_10486.chk"
 -------------------------------
 CID_80907039_JID_10486_neutraal
 -------------------------------
 Charge =  0 Multiplicity = 1

 SCF Done:  E(RB3LYP) =  -895.152701575     A.U. after    1 cycles

  Exact polarizability: 242.081   2.958 194.718  -2.259   5.359 114.373
 Approx polarizability: 330.348  16.896 305.809  -5.084   7.235 175.375

                      1                      2                      3
                      A                      A                      A
 Frequencies --     23.9057                37.1157                44.1735
 Red. masses --      3.8147                 4.2388                 4.3853
 Frc consts  --      0.0013                 0.0034                 0.0050
 IR Inten    --      0.0555                 0.3495                 0.2476

                      4                      5                      6
                      A                      A                      A
 Frequencies --     64.1150                93.0398               109.3699
 Red. masses --      3.8516                 3.6528                 2.0604
 Frc consts  --      0.0093                 0.0186                 0.0145
 IR Inten    --      0.7366                 0.9114                 0.9476

                      7                      8                      9
                      A                      A                      A
 Frequencies --    114.6071               130.6336               149.3632
 Red. masses --      2.9489                 1.1425                 2.3800
 Frc consts  --      0.0228                 0.0115                 0.0313
 IR Inten    --      0.5578                 0.1308                 2.5894

                     10                     11                     12
                      A                      A                      A
 Frequencies --    159.5119               163.1907               184.8838
 Red. masses --      1.7231                 2.8535                 1.8429
 Frc consts  --      0.0258                 0.0448                 0.0371
 IR Inten    --      7.3625                 0.7805                 8.0041

                     13                     14                     15
                      A                      A                      A
 Frequencies --    196.3154               211.4848               223.4862
 Red. masses --      1.9615                 2.7566                 1.1539
 Frc consts  --      0.0445                 0.0726                 0.0340
 IR Inten    --      4.5336                 1.6159                 0.5209

                     16                     17                     18
                      A                      A                      A
 Frequencies --    230.1789               242.0063               251.4870
 Red. masses --      1.2767                 4.1417                 2.8967
 Frc consts  --      0.0399                 0.1429                 0.1079
 IR Inten    --      1.9728                 2.7812                 7.1261

                     19                     20                     21
                      A                      A                      A
 Frequencies --    272.3496               291.0644               311.2300
 Red. masses --      3.4110                 2.9004                 2.7187
 Frc consts  --      0.1491                 0.1448                 0.1552
 IR Inten    --      9.0474                 3.0225                 8.6288

                     22                     23                     24
                      A                      A                      A
 Frequencies --    338.3201               352.2212               397.1812
 Red. masses --      3.5425                 3.3986                 3.2677
 Frc consts  --      0.2389                 0.2484                 0.3037
 IR Inten    --      1.7901                 0.3191                 7.8623

                     25                     26                     27
                      A                      A                      A
 Frequencies --    428.9443               435.5514               456.2577
 Red. masses --      2.3568                 2.8920                 3.1863
 Frc consts  --      0.2555                 0.3232                 0.3908
 IR Inten    --      3.3928                 8.9948                 4.6819

                     28                     29                     30
                      A                      A                      A
 Frequencies --    504.5979               549.5505               574.1393
 Red. masses --      1.5407                 3.9861                 4.2673
 Frc consts  --      0.2311                 0.7093                 0.8288
 IR Inten    --    166.0555                 7.4080                 2.6014

                     31                     32                     33
                      A                      A                      A
 Frequencies --    591.2132               620.8588               634.3308
 Red. masses --      3.1504                 4.5363                 4.0761
 Frc consts  --      0.6488                 1.0302                 0.9663
 IR Inten    --     13.4910                 6.0348                 0.8363

                     34                     35                     36
                      A                      A                      A
 Frequencies --    640.5677               684.2141               713.0367
 Red. masses --      4.6270                 4.5798                 9.0228
 Frc consts  --      1.1186                 1.2632                 2.7028
 IR Inten    --      8.2918                 1.6824                 2.7811

                     37                     38                     39
                      A                      A                      A
 Frequencies --    767.2073               775.7241               803.0396
 Red. masses --      3.6909                 3.7667                 1.2349
 Frc consts  --      1.2800                 1.3355                 0.4692
 IR Inten    --     25.3869                 4.0466                36.3801

                     40                     41                     42
                      A                      A                      A
 Frequencies --    825.9834               842.3079               853.3492
 Red. masses --      8.2632                 3.8609                 1.5382
 Frc consts  --      3.3215                 1.6139                 0.6600
 IR Inten    --      8.7689                10.2942                 6.4495

                     43                     44                     45
                      A                      A                      A
 Frequencies --    902.2376               915.5179               936.9642
 Red. masses --      2.8756                 3.4621                 2.3804
 Frc consts  --      1.3792                 1.7097                 1.2313
 IR Inten    --     14.8254                16.5718                 8.4802

                     46                     47                     48
                      A                      A                      A
 Frequencies --    950.0861               977.1475               979.9767
 Red. masses --      1.3063                 2.2595                 1.5163
 Frc consts  --      0.6947                 1.2711                 0.8579
 IR Inten    --      1.2853                71.9362                20.7338

                     49                     50                     51
                      A                      A                      A
 Frequencies --    982.6330               997.8468              1017.2699
 Red. masses --      1.4857                 3.6224                 2.3579
 Frc consts  --      0.8452                 2.1251                 1.4376
 IR Inten    --      5.6930                83.0008                 9.0117

                     52                     53                     54
                      A                      A                      A
 Frequencies --   1030.5458              1051.0523              1056.8819
 Red. masses --      1.8172                 1.7229                 1.8171
 Frc consts  --      1.1371                 1.1214                 1.1958
 IR Inten    --     22.3191                35.8847                33.6199

                     55                     56                     57
                      A                      A                      A
 Frequencies --   1081.7224              1085.4112              1132.2572
 Red. masses --      1.4630                 2.5238                 2.5189
 Frc consts  --      1.0086                 1.7518                 1.9026
 IR Inten    --      2.4614                19.7948                 3.5681

                     58                     59                     60
                      A                      A                      A
 Frequencies --   1152.7684              1160.2170              1168.0129
 Red. masses --      2.2206                 1.3314                 2.1972
 Frc consts  --      1.7386                 1.0559                 1.7661
 IR Inten    --      9.0706                 6.7810                22.1390

                     61                     62                     63
                      A                      A                      A
 Frequencies --   1212.6549              1220.6412              1236.4304
 Red. masses --      2.5885                 2.2196                 1.7211
 Frc consts  --      2.2427                 1.9485                 1.5502
 IR Inten    --     12.8370                49.6416                25.3623

                     64                     65                     66
                      A                      A                      A
 Frequencies --   1247.9529              1260.8572              1270.8792
 Red. masses --      4.3536                 2.4649                 3.7860
 Frc consts  --      3.9948                 2.3087                 3.6028
 IR Inten    --     10.7055                91.6643                13.3152

                     67                     68                     69
                      A                      A                      A
 Frequencies --   1296.0942              1315.2059              1361.1444
 Red. masses --      2.6939                 2.3732                 1.9725
 Frc consts  --      2.6663                 2.4187                 2.1531
 IR Inten    --     31.2110                20.7113                29.0052

                     70                     71                     72
                      A                      A                      A
 Frequencies --   1377.3718              1384.0337              1385.3602
 Red. masses --      1.6269                 1.5440                 1.7412
 Frc consts  --      1.8185                 1.7426                 1.9689
 IR Inten    --      8.5480                17.0941                 4.2065

                     73                     74                     75
                      A                      A                      A
 Frequencies --   1402.5159              1411.3338              1414.7107
 Red. masses --      1.4320                 1.4188                 2.5457
 Frc consts  --      1.6596                 1.6651                 3.0018
 IR Inten    --    127.4573                44.8417                13.9410

                     76                     77                     78
                      A                      A                      A
 Frequencies --   1429.1516              1439.3364              1446.9758
 Red. masses --      1.2238                 1.5543                 1.3447
 Frc consts  --      1.4727                 1.8972                 1.6588
 IR Inten    --      5.0919                32.6067                12.5917

                     79                     80                     81
                      A                      A                      A
 Frequencies --   1454.2854              1465.0560              1496.3245
 Red. masses --      1.3459                 1.4512                 1.4577
 Frc consts  --      1.6771                 1.8352                 1.9230
 IR Inten    --     18.4118                97.8129                72.1648

                     82                     83                     84
                      A                      A                      A
 Frequencies --   1502.7738              1509.5855              1512.4578
 Red. masses --      1.0429                 1.2375                 1.4833
 Frc consts  --      1.3877                 1.6615                 1.9992
 IR Inten    --      8.4361                38.3881                22.1165

                     85                     86                     87
                      A                      A                      A
 Frequencies --   1516.0565              1520.9071              1521.2713
 Red. masses --      1.0533                 1.1269                 1.0940
 Frc consts  --      1.4264                 1.5359                 1.4917
 IR Inten    --     19.9991                10.4816                 9.9207

                     88                     89                     90
                      A                      A                      A
 Frequencies --   1524.8998              1535.3440              1537.9881
 Red. masses --      1.1746                 1.0904                 1.1724
 Frc consts  --      1.6092                 1.5144                 1.6340
 IR Inten    --      8.8176                17.0414                38.0730

                     91                     92                     93
                      A                      A                      A
 Frequencies --   1542.7537              1595.3817              1618.0264
 Red. masses --      1.0806                 6.3444                 6.8748
 Frc consts  --      1.5154                 9.5142                10.6043
 IR Inten    --      2.3463               123.7120                26.3160

                     94                     95                     96
                      A                      A                      A
 Frequencies --   1626.1295              1673.1711              1749.9728
 Red. masses --      5.0360                 6.1713                 1.0609
 Frc consts  --      7.8459                10.1790                 1.9143
 IR Inten    --    475.3407                 4.4352                22.2713

                     97                     98                     99
                      A                      A                      A
 Frequencies --   2997.5784              3021.4747              3043.1505
 Red. masses --      1.0743                 1.0508                 1.0383
 Frc consts  --      5.6874                 5.6522                 5.6650
 IR Inten    --     45.7027                69.4372                28.4945

                    100                    101                    102
                      A                      A                      A
 Frequencies --   3045.6824              3054.6872              3095.6298
 Red. masses --      1.0382                 1.0375                 1.1015
 Frc consts  --      5.6741                 5.7041                 6.2192
 IR Inten    --     25.4401                31.2173                15.1264

                    103                    104                    105
                      A                      A                      A
 Frequencies --   3097.9320              3108.7944              3118.2597
 Red. masses --      1.0962                 1.0874                 1.1008
 Frc consts  --      6.1983                 6.1919                 6.3067
 IR Inten    --     48.1152                26.5240                20.1982

                    106                    107                    108
                      A                      A                      A
 Frequencies --   3121.8761              3133.0273              3143.6981
 Red. masses --      1.1021                 1.0957                 1.0994
 Frc consts  --      6.3287                 6.3368                 6.4013
 IR Inten    --     35.8961                 7.1038                11.7408

                    109                    110                    111
                      A                      A                      A
 Frequencies --   3143.8552              3153.5595              3170.3618
 Red. masses --      1.0877                 1.0891                 1.0906
 Frc consts  --      6.3339                 6.3814                 6.4583
 IR Inten    --     15.1108                 7.3320                53.1265

                    112                    113                    114
                      A                      A                      A
 Frequencies --   3171.9623              3260.8460              3273.9170
 Red. masses --      1.1002                 1.0932                 1.1009
 Frc consts  --      6.5222                 6.8487                 6.9526
 IR Inten    --      8.6552                 7.3608                 2.3831

                    115                    116                    117
                      A                      A                      A
 Frequencies --   3431.0021              3502.9651              3650.9847
 Red. masses --      1.0487                 1.0924                 1.0768
 Frc consts  --      7.2733                 7.8977                 8.4570
 IR Inten    --      5.9471                 1.0266                29.4628

 - Thermochemistry -
 -------------------
 Temperature   298.150 Kelvin.  Pressure   1.00000 Atm.
 Atom     1 has atomic number  6 and mass  12.00000

 Molecular mass:   275.17461 amu.
 Principal axes and moments of inertia in atomic units:
                           1         2         3
     Eigenvalues --  2858.362768687.63663**********
           X            0.99999   0.00259  -0.00304
           Y           -0.00257   0.99997   0.00760
           Z            0.00306  -0.00759   0.99997
 This molecule is an asymmetric top.
 Rotational symmetry number  1.
 Warning -- assumption of classical behavior for rotation
           may cause significant error
 Rotational temperatures (Kelvin)      0.03030     0.00997     0.00811
 Rotational constants (GHZ):           0.63139     0.20774     0.16895
 Zero-point vibrational energy     918893.1 (Joules/Mol)
                                  219.62073 (Kcal/Mol)
 Warning -- explicit consideration of  31 degrees of freedom as
           vibrations may cause significant error
 Vibrational temperatures:     34.39    53.40    63.56    92.25   133.86
          (Kelvin)            157.36   164.89   187.95   214.90   229.50
                              234.80   266.01   282.45   304.28   321.55
                              331.18   348.19   361.83   391.85   418.78
                              447.79   486.77   506.77   571.46   617.16
                              626.66   656.45   726.00   790.68   826.06
                              850.62   893.28   912.66   921.63   984.43
                             1025.90  1103.84  1116.09  1155.39  1188.41
                             1211.89  1227.78  1298.12  1317.23  1348.08
                             1366.96  1405.90  1409.97  1413.79  1435.68
                             1463.62  1482.73  1512.23  1520.62  1556.36
                             1561.66  1629.07  1658.58  1669.29  1680.51
                             1744.74  1756.23  1778.95  1795.53  1814.09
                             1828.51  1864.79  1892.29  1958.38  1981.73
                             1991.32  1993.22  2017.91  2030.59  2035.45
                             2056.23  2070.88  2081.88  2092.39  2107.89
                             2152.88  2162.16  2171.96  2176.09  2181.27
                             2188.25  2188.77  2193.99  2209.02  2212.82
                             2219.68  2295.40  2327.98  2339.64  2407.32
                             2517.82  4312.85  4347.23  4378.41  4382.06
                             4395.01  4453.92  4457.23  4472.86  4486.48
                             4491.68  4507.73  4523.08  4523.31  4537.27
                             4561.44  4563.75  4691.63  4710.44  4936.45
                             5039.99  5252.95

 Zero-point correction=                           0.349988 (Hartree/Particle)
 Thermal correction to Energy=                    0.370570
 Thermal correction to Enthalpy=                  0.371514
 Thermal correction to Gibbs Free Energy=         0.300308
 Sum of electronic and zero-point Energies=           -894.802714
 Sum of electronic and thermal Energies=              -894.782132
 Sum of electronic and thermal Enthalpies=            -894.781187
 Sum of electronic and thermal Free Energies=         -894.852394

                     E (Thermal)             CV                S
                      KCal/Mol        Cal/Mol-Kelvin    Cal/Mol-Kelvin
 Total                  232.536             76.629            149.866
 Electronic               0.000              0.000              0.000
 Translational            0.889              2.981             42.735
 Rotational               0.889              2.981             33.939
 Vibrational            230.759             70.667             73.192
 Vibration     1          0.593              1.985              6.280
 Vibration     2          0.594              1.982              5.407
 Vibration     3          0.595              1.980              5.063
 Vibration     4          0.597              1.971              4.326
 Vibration     5          0.602              1.954              3.595
 Vibration     6          0.606              1.942              3.280
 Vibration     7          0.608              1.937              3.189
 Vibration     8          0.612              1.923              2.937
 Vibration     9          0.618              1.903              2.680
 Vibration    10          0.621              1.892              2.556
 Vibration    11          0.623              1.888              2.512
 Vibration    12          0.631              1.860              2.279
 Vibration    13          0.636              1.845              2.167
 Vibration    14          0.643              1.823              2.031
 Vibration    15          0.649              1.805              1.931
 Vibration    16          0.652              1.795              1.878
 Vibration    17          0.658              1.776              1.788
 Vibration    18          0.663              1.760              1.720
 Vibration    19          0.675              1.724              1.581
 Vibration    20          0.687              1.690              1.468
 Vibration    21          0.700              1.652              1.356
 Vibration    22          0.719              1.599              1.220
 Vibration    23          0.729              1.571              1.156
 Vibration    24          0.764              1.476              0.973
 Vibration    25          0.790              1.407              0.862
 Vibration    26          0.796              1.393              0.841
 Vibration    27          0.814              1.347              0.777
 Vibration    28          0.860              1.240              0.647
 Vibration    29          0.905              1.141              0.545
 Vibration    30          0.930              1.087              0.496
 Vibration    31          0.949              1.051              0.465

                           ! Non-Optimized Parameters !
 Normal termination of Gaussian 16 at Mon Dec 14 14:26:52 2020.

 ----------------------------------------------------------------------
 # B3LYP/6-311++G(d,p) empiricaldispersion=gd3bj scf=xqc pop=npa geom=c
 heck
 ----------------------------------------------------------------------

 ---------------------------------------
 CID_80907039_JID_10486_Energie_neutraal
 ---------------------------------------
 Structure from the checkpoint file:  "JID_10486.chk"
 Charge =  0 Multiplicity = 1

 SCF Done:  E(RB3LYP) =  -895.400231709     A.U. after   15 cycles
 Normal termination of Gaussian 16 at Mon Dec 14 14:37:03 2020.

 ----------------------------------------------------------------------
 # B3LYP/6-311++G(d,p) empiricaldispersion=gd3bj scf=xqc pop=npa geom=c
 heck
 ----------------------------------------------------------------------

 -------------------------------------
 CID_80907039_JID_10486_Energie_kation
 -------------------------------------
 Structure from the checkpoint file:  "JID_10486.chk"
 Charge =  1 Multiplicity = 2

 SCF Done:  E(UB3LYP) =  -895.126688347     A.U. after   25 cycles
 Normal termination of Gaussian 16 at Mon Dec 14 15:00:22 2020.
 Gaussian 16:  ES64L-G16RevA.03 25-Dec-2016

 ----------------------------------------------------------------------
 # B3LYP/6-311++G(d,p) empiricaldispersion=gd3bj scf=xqc pop=npa geom=c
 heck
 ----------------------------------------------------------------------

 ------------------------------------
 CID_80907039_JID_10486_Energie_anion
 ------------------------------------
 Structure from the checkpoint file:  "JID_10486.chk"
 Charge = -1 Multiplicity = 2

                         Standard orientation:
 ---------------------------------------------------------------------
 Center     Atomic      Atomic             Coordinates (Angstroms)
 Number     Number       Type             X           Y           Z
 ---------------------------------------------------------------------
      1          6           0       -4.391598    2.110653    0.783216
      2          6           0       -4.026475    0.815452    0.151357
      3          6           0       -4.741907   -0.255176   -0.296733
      4          6           0       -3.790161   -1.201495   -0.805778
      5          6           0       -2.556865   -0.647304   -0.636838
      6          8           0       -2.690241    0.589165   -0.053923
      7          6           0       -1.175758   -1.109849   -0.946709
      8          7           0       -0.390841   -1.471130    0.246466
      9          6           0       -0.799690   -2.753211    0.810084
     10          6           0        0.986069   -1.209969    0.205771
     11          7           0        1.797062   -2.280259    0.361439
     12          6           0        3.100401   -2.045369    0.295260
     13          7           0        3.700483   -0.883626    0.044209
     14          6           0        2.888124    0.185278   -0.063214
     15          6           0        1.479407    0.102917    0.064068
     16          6           0        0.572407    1.319098    0.197665
     17          6           0        0.968124    2.196968    1.401809
     18          6           0        0.412887    2.168698   -1.079177
     19          7           0        3.524832    1.393391   -0.269480
     20          7           0        4.903096    1.443841   -0.587612
     21          1           0       -5.477100    2.176096    0.894726
     22          1           0       -3.936695    2.214050    1.775918
     23          1           0       -4.056424    2.961610    0.177467
     24          1           0       -5.817607   -0.358346   -0.267551
     25          1           0       -3.996282   -2.169097   -1.242272
     26          1           0       -1.255930   -1.982014   -1.615866
     27          1           0       -0.633241   -0.340583   -1.498033
     28          1           0       -0.578268   -3.598540    0.142040
     29          1           0       -0.281572   -2.923013    1.754070
     30          1           0       -1.877758   -2.712099    0.991673
     31          1           0        3.756125   -2.902996    0.440621
     32          1           0       -0.417447    0.928303    0.432829
     33          1           0        1.964539    2.633496    1.290877
     34          1           0        0.247103    3.014480    1.518984
     35          1           0        0.962977    1.604684    2.322458
     36          1           0        0.231499    1.550797   -1.964827
     37          1           0       -0.437262    2.849971   -0.965001
     38          1           0        1.289370    2.793396   -1.292701
     39          1           0        3.000569    2.110138   -0.746283
     40          1           0        5.409059    1.391312    0.297039
     41          1           0        5.134040    0.569374   -1.064631
 ---------------------------------------------------------------------

 SCF Done:  E(UB3LYP) =  -895.389129738     A.U. after   33 cycles
 SCF Done:  E(UB3LYP) =  -895.389129738     a.u. after    1 cycles

 The electronic state is 2-A.
 Alpha  occ. eigenvalues --  -19.09136 -14.27012 -14.25263 -14.23837 -14.21411
 Alpha  occ. eigenvalues --  -14.21039 -10.16397 -10.15470 -10.14159 -10.13537
 Alpha  occ. eigenvalues --  -10.13166 -10.12730 -10.09852 -10.09115 -10.09062
 Alpha  occ. eigenvalues --  -10.08035 -10.07996 -10.07868 -10.07416 -10.06732
 Alpha  occ. eigenvalues --   -1.01648  -0.92536  -0.89156  -0.85053  -0.78366
 Alpha  occ. eigenvalues --   -0.74441  -0.70934  -0.70413  -0.70027  -0.66163
 Alpha  occ. eigenvalues --   -0.64349  -0.60129  -0.59702  -0.57375  -0.56497
 Alpha  occ. eigenvalues --   -0.51882  -0.51092  -0.49615  -0.46252  -0.45587
 Alpha  occ. eigenvalues --   -0.45103  -0.42314  -0.41784  -0.40363  -0.39439
 Alpha  occ. eigenvalues --   -0.37457  -0.36869  -0.36477  -0.36454  -0.35187
 Alpha  occ. eigenvalues --   -0.34320  -0.33949  -0.33433  -0.31814  -0.31552
 Alpha  occ. eigenvalues --   -0.30961  -0.30669  -0.30094  -0.29746  -0.29545
 Alpha  occ. eigenvalues --   -0.28636  -0.27788  -0.27483  -0.25997  -0.25181
 Alpha  occ. eigenvalues --   -0.24535  -0.21759  -0.20426  -0.19754  -0.19087
 Alpha  occ. eigenvalues --   -0.16944  -0.15204  -0.13188  -0.12844   0.03979
 Alpha virt. eigenvalues --    0.05652   0.05968   0.06376   0.06877   0.07541
 Alpha virt. eigenvalues --    0.07670   0.08088   0.08615   0.08846   0.09169
 Alpha virt. eigenvalues --    0.09378   0.09744   0.10005   0.10764   0.11328

  Beta  occ. eigenvalues --  -19.09124 -14.27009 -14.25251 -14.23843 -14.21376
  Beta  occ. eigenvalues --  -14.21053 -10.16404 -10.15433 -10.14106 -10.13537
  Beta  occ. eigenvalues --  -10.13165 -10.12713 -10.09841 -10.09113 -10.09025
  Beta  occ. eigenvalues --  -10.07986 -10.07985 -10.07851 -10.07399 -10.06706
  Beta  occ. eigenvalues --   -1.01627  -0.92512  -0.89120  -0.85020  -0.78338
  Beta  occ. eigenvalues --   -0.74393  -0.70915  -0.70388  -0.70001  -0.66107
  Beta  occ. eigenvalues --   -0.64310  -0.60088  -0.59663  -0.57294  -0.56453
  Beta  occ. eigenvalues --   -0.51846  -0.51057  -0.49580  -0.46223  -0.45558
  Beta  occ. eigenvalues --   -0.45069  -0.42294  -0.41742  -0.40339  -0.39413
  Beta  occ. eigenvalues --   -0.37432  -0.36828  -0.36449  -0.36411  -0.35164
  Beta  occ. eigenvalues --   -0.34262  -0.33895  -0.33393  -0.31753  -0.31508
  Beta  occ. eigenvalues --   -0.30930  -0.30634  -0.30055  -0.29713  -0.29519
  Beta  occ. eigenvalues --   -0.28613  -0.27748  -0.27450  -0.25955  -0.25125
  Beta  occ. eigenvalues --   -0.24509  -0.21696  -0.20292  -0.19734  -0.19071
  Beta  occ. eigenvalues --   -0.16926  -0.15168  -0.13137  -0.12770
  Beta virt. eigenvalues --    0.05764   0.06277   0.06400   0.06973   0.07279
  Beta virt. eigenvalues --    0.07811   0.07853   0.08235   0.08785   0.09148
  Beta virt. eigenvalues --    0.09420   0.09492   0.10085   0.10164   0.11089

 Mulliken charges and spin densities:
               1          2
     1  C    3.352875  -3.919172
     2  C   -1.246277   1.701189
     3  C   -0.952306   0.440353
     4  C   -0.663727   0.287616
     5  C    0.482841   0.104476
     6  O    0.038517   0.051342
     7  C    0.372547  -1.248185
     8  N    0.458464  -0.037568
     9  C    0.036250  -0.336173
    10  C   -0.628825   0.217729
    11  N   -0.162986   0.044704
    12  C   -0.208716   0.222983
    13  N   -0.235139   0.018654
    14  C   -0.285843  -0.159744
    15  C    0.645376  -0.343116
    16  C   -1.084835   0.856054
    17  C    0.043692  -0.760081
    18  C    0.034615  -0.696508
    19  N   -0.059867   0.013734
    20  N   -0.253809  -0.067741
    21  H   -0.465718   0.636694
    22  H   -0.235452   0.400064
    23  H   -0.231208   0.394575
    24  H   -0.785210   0.953810
    25  H   -0.413140   0.577808
    26  H   -0.110478   0.326107
    27  H    0.031067   0.057543
    28  H    0.046686   0.124249
    29  H    0.069092   0.103513
    30  H    0.135591   0.004470
    31  H    0.059930   0.125713
    32  H    0.722117  -0.299796
    33  H    0.023917   0.125489
    34  H   -0.070473   0.223055
    35  H   -0.051793   0.209581
    36  H    0.007990   0.158035
    37  H    0.018363   0.146190
    38  H   -0.102600   0.213677
    39  H    0.339445  -0.046330
    40  H    0.171899   0.090779
    41  H    0.157124   0.084230
 Sum of Mulliken charges =  -1.00000   1.00000

 Dipole moment (field-independent basis, Debye):
    X=              7.1491    Y=             -2.4795    Z=             -0.8673  Tot=              7.6164
 Quadrupole moment (field-independent basis, Debye-Ang):
   XX=           -229.6864   YY=           -174.2912   ZZ=           -153.4047
   XY=              9.3470   XZ=              3.4034   YZ=             -4.9412

 Summary of Natural Population Analysis:

                                       Natural Population
                Natural  -----------------------------------------------
    Atom  No    Charge         Core      Valence    Rydberg      Total
 -----------------------------------------------------------------------
      C    1   -0.30660      0.99963     2.30124    0.00573     3.30660
      C    2    0.15984      0.99947     1.82650    0.01419     2.84016
      C    3   -0.15208      0.99949     2.14330    0.00930     3.15208
      C    4   -0.13989      0.99949     2.13123    0.00917     3.13989
      C    5    0.13820      0.99945     1.84717    0.01518     2.86180
      O    6   -0.24314      0.99985     3.23408    0.00921     4.24314
      C    7   -0.10525      0.99954     2.09464    0.01108     3.10525
      N    8   -0.26166      0.99965     2.75152    0.01049     3.76166
      C    9   -0.17635      0.99964     2.16950    0.00720     3.17635
      C   10    0.22953      0.99946     1.75669    0.01432     2.77047
      N   11   -0.28036      0.99967     2.77103    0.00966     3.78036
      C   12    0.15943      0.99966     1.82202    0.01889     2.84057
      N   13   -0.28992      0.99967     2.77910    0.01115     3.78992
      C   14    0.20799      0.99950     1.77822    0.01429     2.79201
      C   15   -0.06985      0.99942     2.05975    0.01068     3.06985
      C   16   -0.13804      0.99958     2.12746    0.01100     3.13804
      C   17   -0.28193      0.99965     2.27551    0.00677     3.28193
      C   18   -0.27934      0.99964     2.27312    0.00658     3.27934
      N   19   -0.22791      0.99965     2.71721    0.01105     3.72791
      N   20   -0.31658      0.99978     2.80698    0.00981     3.81658
      H   21    0.11096      0.00000     0.38708    0.00195     0.38904
      H   22    0.10941      0.00000     0.38899    0.00160     0.39059
      H   23    0.10897      0.00000     0.38946    0.00157     0.39103
      H   24    0.11004      0.00000     0.38853    0.00142     0.38996
      H   25    0.10872      0.00000     0.39017    0.00111     0.39128
      H   26    0.09919      0.00000     0.39939    0.00142     0.40081
      H   27    0.10970      0.00000     0.38841    0.00190     0.39030
      H   28    0.08971      0.00000     0.40853    0.00176     0.41029
      H   29    0.10322      0.00000     0.39570    0.00108     0.39678
      H   30    0.09839      0.00000     0.40040    0.00120     0.40161
      H   31    0.07918      0.00000     0.41972    0.00110     0.42082
      H   32    0.11711      0.00000     0.37838    0.00452     0.38289
      H   33    0.09760      0.00000     0.40103    0.00137     0.40240
      H   34    0.10142      0.00000     0.39758    0.00100     0.39858
      H   35    0.10160      0.00000     0.39751    0.00089     0.39840
      H   36    0.09869      0.00000     0.40032    0.00099     0.40131
      H   37    0.10617      0.00000     0.39284    0.00100     0.39383
      H   38    0.08604      0.00000     0.41281    0.00115     0.41396
      H   39    0.18884      0.00000     0.30810    0.00306     0.31116
      H   40    0.17165      0.00000     0.32621    0.00214     0.32835
      H   41    0.17729      0.00000     0.32020    0.00251     0.32271
 =======================================================================
   * Total *    0.00000     19.99188    53.75763    0.25049    74.00000

 Normal termination of Gaussian 16 at Mon Dec 14 15:31:32 2020.
