 Gaussian 16, Revision A.03,

 -----------------------------------------------------------
 # opt freq B3LYP/6-31G(d) empiricaldispersion=gd3bj scf=xqc
 -----------------------------------------------------------

 ------------------------------
 CID_63026784_JID_9753_neutraal
 ------------------------------
 Symbolic Z-matrix:
 Charge =  0 Multiplicity = 1

 SCF Done:  E(RB3LYP) =  -875.699188609     A.U. after   16 cycles
 SCF Done:  E(RB3LYP) =  -875.723601029     A.U. after   13 cycles
 SCF Done:  E(RB3LYP) =  -875.724145453     A.U. after   13 cycles
 SCF Done:  E(RB3LYP) =  -875.724165321     A.U. after   13 cycles
 SCF Done:  E(RB3LYP) =  -875.723250763     A.U. after   13 cycles
 SCF Done:  E(RB3LYP) =  -875.724214345     A.U. after   13 cycles
 SCF Done:  E(RB3LYP) =  -875.725496281     A.U. after   12 cycles
 SCF Done:  E(RB3LYP) =  -875.725745797     A.U. after   12 cycles
 SCF Done:  E(RB3LYP) =  -875.725997908     A.U. after   11 cycles
 SCF Done:  E(RB3LYP) =  -875.726239821     A.U. after   12 cycles
 SCF Done:  E(RB3LYP) =  -875.727784584     A.U. after    8 cycles
 SCF Done:  E(RB3LYP) =  -875.727784757     A.U. after    8 cycles
 SCF Done:  E(RB3LYP) =  -875.727784779     A.U. after    6 cycles
 SCF Done:  E(RB3LYP) =  -875.727784760     A.U. after    7 cycles
 Optimization completed.
    -- Stationary point found.
 Normal termination of Gaussian 16 at Mon Dec 14 19:16:47 2020.

 --------------------------------------------------------------------
 #N Geom=AllCheck Guess=TCheck SCRF=Check GenChk RB3LYP/6-31G(d) Freq
 --------------------------------------------------------------------

 Structure from the checkpoint file:  "JID_9753.chk"
 ------------------------------
 CID_63026784_JID_9753_neutraal
 ------------------------------
 Charge =  0 Multiplicity = 1

 SCF Done:  E(RB3LYP) =  -875.727784760     A.U. after    1 cycles

  Exact polarizability: 180.129  10.293 152.024   8.551  -7.728 134.876
 Approx polarizability: 229.427  22.028 251.801  16.189 -12.735 215.018

                      1                      2                      3
                      A                      A                      A
 Frequencies --     15.0976                33.1441                55.8929
 Red. masses --      4.2750                 6.3779                 4.8435
 Frc consts  --      0.0006                 0.0041                 0.0089
 IR Inten    --      3.0176                 0.5807                 1.1238

                      4                      5                      6
                      A                      A                      A
 Frequencies --     81.6248               111.0317               121.6280
 Red. masses --      5.0798                 3.8725                 5.2987
 Frc consts  --      0.0199                 0.0281                 0.0462
 IR Inten    --      2.7775                 3.9020                 2.9196

                      7                      8                      9
                      A                      A                      A
 Frequencies --    144.5828               151.6003               166.7459
 Red. masses --      1.2587                 5.9602                 4.3862
 Frc consts  --      0.0155                 0.0807                 0.0719
 IR Inten    --      0.3107                 6.6034                 6.2196

                     10                     11                     12
                      A                      A                      A
 Frequencies --    186.0192               201.0773               217.2163
 Red. masses --      3.8521                 2.5086                 1.2006
 Frc consts  --      0.0785                 0.0598                 0.0334
 IR Inten    --      3.9721                 0.3931                 0.0406

                     13                     14                     15
                      A                      A                      A
 Frequencies --    230.0726               252.7648               266.9496
 Red. masses --      3.8533                 3.4574                 3.1290
 Frc consts  --      0.1202                 0.1301                 0.1314
 IR Inten    --      2.7318                 4.3712                 3.0973

                     16                     17                     18
                      A                      A                      A
 Frequencies --    295.2538               335.1213               352.5534
 Red. masses --      2.7537                 3.2028                 3.3235
 Frc consts  --      0.1414                 0.2119                 0.2434
 IR Inten    --      6.7591                 2.1967                 3.5724

                     19                     20                     21
                      A                      A                      A
 Frequencies --    392.8015               405.9502               411.8196
 Red. masses --      5.1845                 2.2155                 2.8725
 Frc consts  --      0.4713                 0.2151                 0.2870
 IR Inten    --      1.8835                 0.9690                 6.8632

                     22                     23                     24
                      A                      A                      A
 Frequencies --    442.1522               459.4869               483.8890
 Red. masses --      2.0011                 4.9595                 4.2298
 Frc consts  --      0.2305                 0.6169                 0.5835
 IR Inten    --      6.1296                 9.7629                 2.8242

                     25                     26                     27
                      A                      A                      A
 Frequencies --    541.5557               554.6942               591.8111
 Red. masses --      3.7632                 6.1593                 2.1627
 Frc consts  --      0.6503                 1.1166                 0.4463
 IR Inten    --      9.1362                 1.1006                10.2721

                     28                     29                     30
                      A                      A                      A
 Frequencies --    601.7549               636.5488               661.5658
 Red. masses --      5.4001                 3.9198                 4.8579
 Frc consts  --      1.1521                 0.9358                 1.2527
 IR Inten    --     15.4278                 2.9651                 5.4550

                     31                     32                     33
                      A                      A                      A
 Frequencies --    686.1800               719.8166               734.8397
 Red. masses --      5.3955                 3.7731                 2.5545
 Frc consts  --      1.4968                 1.1518                 0.8127
 IR Inten    --     15.2464                 5.9730                14.0450

                     34                     35                     36
                      A                      A                      A
 Frequencies --    741.2195               802.6028               825.0478
 Red. masses --      2.1116                 5.5168                 1.6037
 Frc consts  --      0.6835                 2.0938                 0.6432
 IR Inten    --     13.1324                21.8216                 0.8821

                     37                     38                     39
                      A                      A                      A
 Frequencies --    843.8596               847.4449               889.2740
 Red. masses --      2.6796                 1.4658                 3.3340
 Frc consts  --      1.1242                 0.6202                 1.5534
 IR Inten    --      1.8358                 6.5114                10.7108

                     40                     41                     42
                      A                      A                      A
 Frequencies --    936.8336               939.0718               947.9573
 Red. masses --      2.5327                 3.7063                 3.0567
 Frc consts  --      1.3097                 1.9257                 1.6184
 IR Inten    --      2.0485                 1.6161                 2.3360

                     43                     44                     45
                      A                      A                      A
 Frequencies --    998.8669              1005.6870              1030.4758
 Red. masses --      2.5938                 2.3920                 2.3492
 Frc consts  --      1.5248                 1.4254                 1.4697
 IR Inten    --      3.7180                15.9260                13.7926

                     46                     47                     48
                      A                      A                      A
 Frequencies --   1068.8141              1079.7964              1097.7454
 Red. masses --      1.7009                 1.8980                 2.8273
 Frc consts  --      1.1448                 1.3039                 2.0074
 IR Inten    --     17.1634                 3.0854                53.0706

                     49                     50                     51
                      A                      A                      A
 Frequencies --   1114.6310              1121.5198              1137.2072
 Red. masses --      1.2218                 3.5958                 2.2407
 Frc consts  --      0.8944                 2.6648                 1.7073
 IR Inten    --      5.6159                18.2397                35.3585

                     52                     53                     54
                      A                      A                      A
 Frequencies --   1162.7506              1165.6412              1166.9839
 Red. masses --      1.5086                 1.9773                 1.8949
 Frc consts  --      1.2017                 1.5829                 1.5205
 IR Inten    --     22.7164                27.1850                43.9829

                     55                     56                     57
                      A                      A                      A
 Frequencies --   1184.5312              1194.0170              1213.3586
 Red. masses --      2.4098                 2.5527                 2.4723
 Frc consts  --      1.9922                 2.1442                 2.1445
 IR Inten    --     28.9815                12.2193                 9.7609

                     58                     59                     60
                      A                      A                      A
 Frequencies --   1242.7487              1249.6218              1291.3553
 Red. masses --      1.5108                 1.9942                 1.3222
 Frc consts  --      1.3747                 1.8347                 1.2991
 IR Inten    --      3.8114                 4.4917                41.3034

                     61                     62                     63
                      A                      A                      A
 Frequencies --   1294.7608              1318.7522              1326.3806
 Red. masses --      1.5792                 2.7165                 1.4131
 Frc consts  --      1.5598                 2.7835                 1.4648
 IR Inten    --     72.8963                22.0008                11.4701

                     64                     65                     66
                      A                      A                      A
 Frequencies --   1341.0192              1369.7955              1388.8142
 Red. masses --      1.2414                 1.3071                 1.3194
 Frc consts  --      1.3153                 1.4451                 1.4994
 IR Inten    --     16.1895                 0.5026                11.5814

                     67                     68                     69
                      A                      A                      A
 Frequencies --   1398.8516              1402.9479              1407.0647
 Red. masses --      1.3659                 1.5245                 2.6266
 Frc consts  --      1.5748                 1.7679                 3.0638
 IR Inten    --      7.3940                 9.1802                 0.5154

                     70                     71                     72
                      A                      A                      A
 Frequencies --   1441.4180              1447.4960              1468.6021
 Red. masses --      1.3238                 2.1992                 1.8755
 Frc consts  --      1.6206                 2.7149                 2.3833
 IR Inten    --      6.3506                53.7184                34.5356

                     73                     74                     75
                      A                      A                      A
 Frequencies --   1492.7496              1493.3589              1499.9491
 Red. masses --      1.1695                 1.9956                 1.1938
 Frc consts  --      1.5354                 2.6221                 1.5825
 IR Inten    --      7.3282                 0.2409                 6.3459

                     76                     77                     78
                      A                      A                      A
 Frequencies --   1507.8657              1516.6563              1524.0065
 Red. masses --      1.1652                 1.1289                 1.0793
 Frc consts  --      1.5609                 1.5299                 1.4770
 IR Inten    --      7.8701                24.8586                 0.9040

                     79                     80                     81
                      A                      A                      A
 Frequencies --   1535.9842              1537.0064              1540.0470
 Red. masses --      1.3663                 1.3663                 1.1157
 Frc consts  --      1.8992                 1.9017                 1.5590
 IR Inten    --     28.0721                 6.9563                21.6173

                     82                     83                     84
                      A                      A                      A
 Frequencies --   1540.8495              1545.1656              1556.3992
 Red. masses --      1.3257                 1.2314                 1.1223
 Frc consts  --      1.8544                 1.7322                 1.6018
 IR Inten    --      9.8940                10.1788                28.8076

                     85                     86                     87
                      A                      A                      A
 Frequencies --   1574.1001              1722.3438              2351.9445
 Red. masses --      3.2332                 9.4497                12.6977
 Frc consts  --      4.7201                16.5161                41.3836
 IR Inten    --      4.8368               270.3450                11.9088

                     88                     89                     90
                      A                      A                      A
 Frequencies --   2985.2389              3045.3930              3060.1042
 Red. masses --      1.0719                 1.0487                 1.0381
 Frc consts  --      5.6279                 5.7306                 5.7274
 IR Inten    --     47.7940                45.3520                55.5598

                     91                     92                     93
                      A                      A                      A
 Frequencies --   3061.8883              3078.8431              3084.3559
 Red. masses --      1.0625                 1.0649                 1.0660
 Frc consts  --      5.8690                 5.9475                 5.9749
 IR Inten    --     29.9466                 5.0124                16.9111

                     94                     95                     96
                      A                      A                      A
 Frequencies --   3093.9116              3114.0711              3123.7350
 Red. masses --      1.0677                 1.0926                 1.1033
 Frc consts  --      6.0215                 6.2429                 6.3432
 IR Inten    --     15.5473                38.2943                36.6997

                     97                     98                     99
                      A                      A                      A
 Frequencies --   3126.7454              3132.2118              3145.6282
 Red. masses --      1.0942                 1.1006                 1.1011
 Frc consts  --      6.3030                 6.3618                 6.4191
 IR Inten    --      2.6583                14.1716                10.7840

                    100                    101                    102
                      A                      A                      A
 Frequencies --   3148.7638              3173.7396              3179.9590
 Red. masses --      1.0977                 1.1041                 1.0987
 Frc consts  --      6.4125                 6.5526                 6.5457
 IR Inten    --     16.5471                 7.4361                 7.7539

                    103                    104                    105
                      A                      A                      A
 Frequencies --   3209.1477              3261.5164              3287.6632
 Red. masses --      1.0975                 1.0914                 1.1043
 Frc consts  --      6.6592                 6.8401                 7.0326
 IR Inten    --      1.0121                 7.7180                 4.8736

 - Thermochemistry -
 -------------------
 Temperature   298.150 Kelvin.  Pressure   1.00000 Atm.
 Atom     1 has atomic number  6 and mass  12.00000

 Molecular mass:   262.14298 amu.
 Principal axes and moments of inertia in atomic units:
                           1         2         3
     Eigenvalues --  2342.898298156.005848508.17045
           X            0.99997  -0.00311   0.00713
           Y            0.00424   0.98658  -0.16320
           Z           -0.00652   0.16323   0.98657
 This molecule is an asymmetric top.
 Rotational symmetry number  1.
 Warning -- assumption of classical behavior for rotation
           may cause significant error
 Rotational temperatures (Kelvin)      0.03697     0.01062     0.01018
 Rotational constants (GHZ):           0.77030     0.22128     0.21212
 Zero-point vibrational energy     817644.9 (Joules/Mol)
                                  195.42182 (Kcal/Mol)
 Warning -- explicit consideration of  28 degrees of freedom as
           vibrations may cause significant error
 Vibrational temperatures:     21.72    47.69    80.42   117.44   159.75
          (Kelvin)            175.00   208.02   218.12   239.91   267.64
                              289.31   312.53   331.02   363.67   384.08
                              424.80   482.16   507.25   565.15   584.07
                              592.52   636.16   661.10   696.21   779.18
                              798.08   851.48   865.79   915.85   951.85
                              987.26  1035.66  1057.27  1066.45  1154.77
                             1187.06  1214.13  1219.28  1279.47  1347.89
                             1351.11  1363.90  1437.15  1446.96  1482.62
                             1537.79  1553.59  1579.41  1603.71  1613.62
                             1636.19  1672.94  1677.10  1679.03  1704.28
                             1717.92  1745.75  1788.04  1797.93  1857.97
                             1862.87  1897.39  1908.37  1929.43  1970.83
                             1998.19  2012.64  2018.53  2024.45  2073.88
                             2082.62  2112.99  2147.73  2148.61  2158.09
                             2169.48  2182.13  2192.71  2209.94  2211.41
                             2215.78  2216.94  2223.15  2239.31  2264.78
                             2478.07  3383.92  4295.09  4381.64  4402.81
                             4405.37  4429.77  4437.70  4451.45  4480.45
                             4494.36  4498.69  4506.55  4525.86  4530.37
                             4566.30  4575.25  4617.25  4692.59  4730.21

 Zero-point correction=                           0.311424 (Hartree/Particle)
 Thermal correction to Energy=                    0.329358
 Thermal correction to Enthalpy=                  0.330302
 Thermal correction to Gibbs Free Energy=         0.264464
 Sum of electronic and zero-point Energies=           -875.416360
 Sum of electronic and thermal Energies=              -875.398427
 Sum of electronic and thermal Enthalpies=            -875.397483
 Sum of electronic and thermal Free Energies=         -875.463321

                     E (Thermal)             CV                S
                      KCal/Mol        Cal/Mol-Kelvin    Cal/Mol-Kelvin
 Total                  206.675             67.995            138.567
 Electronic               0.000              0.000              0.000
 Translational            0.889              2.981             42.591
 Rotational               0.889              2.981             33.452
 Vibrational            204.898             62.034             62.524
 Vibration     1          0.593              1.986              7.193
 Vibration     2          0.594              1.983              5.632
 Vibration     3          0.596              1.975              4.597
 Vibration     4          0.600              1.962              3.851
 Vibration     5          0.607              1.940              3.251
 Vibration     6          0.609              1.931              3.074
 Vibration     7          0.616              1.909              2.742
 Vibration     8          0.619              1.901              2.652
 Vibration     9          0.624              1.883              2.472
 Vibration    10          0.632              1.859              2.267
 Vibration    11          0.638              1.838              2.123
 Vibration    12          0.646              1.815              1.982
 Vibration    13          0.652              1.795              1.878
 Vibration    14          0.664              1.758              1.711
 Vibration    15          0.672              1.734              1.616
 Vibration    16          0.689              1.683              1.444
 Vibration    17          0.716              1.605              1.235
 Vibration    18          0.729              1.570              1.155
 Vibration    19          0.760              1.486              0.989
 Vibration    20          0.771              1.457              0.941
 Vibration    21          0.776              1.445              0.920
 Vibration    22          0.802              1.378              0.820
 Vibration    23          0.817              1.340              0.768
 Vibration    24          0.840              1.286              0.700
 Vibration    25          0.897              1.158              0.562
 Vibration    26          0.910              1.129              0.535
 Vibration    27          0.949              1.049              0.464
 Vibration    28          0.960              1.028              0.447

 Optimization completed.
    -- Stationary point found.
 Normal termination of Gaussian 16 at Mon Dec 14 19:38:31 2020.

 ----------------------------------------------------------------------
 # B3LYP/6-311++G(d,p) empiricaldispersion=gd3bj scf=xqc pop=npa geom=c
 heck
 ----------------------------------------------------------------------

 --------------------------------------
 CID_63026784_JID_9753_Energie_neutraal
 --------------------------------------
 Structure from the checkpoint file:  "JID_9753.chk"
 Charge =  0 Multiplicity = 1

 SCF Done:  E(RB3LYP) =  -875.968376365     A.U. after   17 cycles
 Normal termination of Gaussian 16 at Mon Dec 14 19:49:20 2020.

 ----------------------------------------------------------------------
 # B3LYP/6-311++G(d,p) empiricaldispersion=gd3bj scf=xqc pop=npa geom=c
 heck
 ----------------------------------------------------------------------

 ------------------------------------
 CID_63026784_JID_9753_Energie_kation
 ------------------------------------
 Structure from the checkpoint file:  "JID_9753.chk"
 Charge =  1 Multiplicity = 2

 SCF Done:  E(UB3LYP) =  -875.662796528     A.U. after   33 cycles
 SCF Done:  E(UB3LYP) =  -875.662796528     a.u. after    1 cycles
 Normal termination of Gaussian 16 at Mon Dec 14 20:17:29 2020.
 Gaussian 16:  ES64L-G16RevA.03 25-Dec-2016

 ----------------------------------------------------------------------
 # B3LYP/6-311++G(d,p) empiricaldispersion=gd3bj scf=xqc pop=npa geom=c
 heck
 ----------------------------------------------------------------------

 -----------------------------------
 CID_63026784_JID_9753_Energie_anion
 -----------------------------------
 Structure from the checkpoint file:  "JID_9753.chk"
 Charge = -1 Multiplicity = 2

                         Standard orientation:
 ---------------------------------------------------------------------
 Center     Atomic      Atomic             Coordinates (Angstroms)
 Number     Number       Type             X           Y           Z
 ---------------------------------------------------------------------
      1          6           0        2.611108   -2.210935    0.587404
      2          7           0        3.189762   -0.921577    0.230489
      3          6           0        4.383494   -0.427019    0.714571
      4          6           0        4.585039    0.771102    0.075128
      5          7           0        3.551971    1.024204   -0.794960
      6          6           0        2.729607   -0.009838   -0.687014
      7          6           0        1.430780   -0.105578   -1.424087
      8          7           0        0.312315    0.538372   -0.704218
      9          6           0        0.376319    1.999654   -0.684328
     10          6           0       -0.593867   -0.268380   -0.091110
     11          8           0       -0.470758   -1.495019   -0.081588
     12          6           0       -1.855373    0.365151    0.584131
     13          6           0       -2.720274    1.170360   -0.430249
     14          6           0       -3.397228    0.226974   -1.424665
     15          8           0       -4.235304   -0.704126   -0.766308
     16          6           0       -3.482078   -1.553302    0.093190
     17          6           0       -2.749444   -0.762324    1.179654
     18          6           0       -1.433251    1.225947    1.696707
     19          7           0       -1.121497    1.894253    2.594153
     20          1           0        2.767688   -2.387806    1.654440
     21          1           0        1.539059   -2.201795    0.386684
     22          1           0        3.086604   -3.019101    0.020537
     23          1           0        4.960078   -0.970797    1.448052
     24          1           0        5.408533    1.462125    0.191380
     25          1           0        1.555046    0.422602   -2.373763
     26          1           0        1.140864   -1.135285   -1.625616
     27          1           0        0.001514    2.417648   -1.627324
     28          1           0       -0.181633    2.417739    0.149437
     29          1           0        1.424753    2.288235   -0.571274
     30          1           0       -3.494661    1.702884    0.131683
     31          1           0       -2.126504    1.916425   -0.961473
     32          1           0       -2.639775   -0.298051   -2.031874
     33          1           0       -4.037710    0.797514   -2.103172
     34          1           0       -2.764728   -2.143404   -0.489737
     35          1           0       -4.203663   -2.233156    0.554508
     36          1           0       -2.136623   -1.435054    1.783135
     37          1           0       -3.487200   -0.285188    1.833293
 ---------------------------------------------------------------------

 SCF Done:  E(UB3LYP) =  -875.959898407     A.U. after   33 cycles
 SCF Done:  E(UB3LYP) =  -875.959898407     a.u. after    1 cycles

 The electronic state is 2-A.
 Alpha  occ. eigenvalues --  -19.04074 -19.00715 -14.28607 -14.26796 -14.22905
 Alpha  occ. eigenvalues --  -14.20700 -10.19447 -10.15204 -10.14074 -10.13239
 Alpha  occ. eigenvalues --  -10.13117 -10.12956 -10.12743 -10.11707 -10.11234
 Alpha  occ. eigenvalues --  -10.10979 -10.09898 -10.09830 -10.09747  -0.96383
 Alpha  occ. eigenvalues --   -0.95623  -0.93309  -0.85711  -0.82807  -0.79950
 Alpha  occ. eigenvalues --   -0.75301  -0.69138  -0.68642  -0.63984  -0.63057
 Alpha  occ. eigenvalues --   -0.61733  -0.59466  -0.56551  -0.51683  -0.51285
 Alpha  occ. eigenvalues --   -0.48068  -0.46907  -0.45529  -0.43861  -0.42087
 Alpha  occ. eigenvalues --   -0.40267  -0.39798  -0.38470  -0.38195  -0.37426
 Alpha  occ. eigenvalues --   -0.36832  -0.35809  -0.34809  -0.34498  -0.33928
 Alpha  occ. eigenvalues --   -0.32770  -0.32202  -0.31539  -0.30943  -0.30614
 Alpha  occ. eigenvalues --   -0.29980  -0.29578  -0.28870  -0.28755  -0.28089
 Alpha  occ. eigenvalues --   -0.26765  -0.25673  -0.23456  -0.22985  -0.19289
 Alpha  occ. eigenvalues --   -0.18839  -0.18368  -0.17502  -0.16775  -0.14404
 Alpha  occ. eigenvalues --    0.03849
 Alpha virt. eigenvalues --    0.05409   0.06865   0.06960   0.07336   0.07909
 Alpha virt. eigenvalues --    0.07986   0.08589   0.09311   0.09461   0.10101
 Alpha virt. eigenvalues --    0.10481   0.10857   0.11055   0.11413   0.11715

  Beta  occ. eigenvalues --  -19.04068 -19.00655 -14.28605 -14.26792 -14.22884
  Beta  occ. eigenvalues --  -14.20696 -10.19360 -10.15209 -10.14073 -10.13209
  Beta  occ. eigenvalues --  -10.13114 -10.12943 -10.12723 -10.11667 -10.11210
  Beta  occ. eigenvalues --  -10.10963 -10.09859 -10.09818 -10.09746  -0.96279
  Beta  occ. eigenvalues --   -0.95595  -0.93300  -0.85663  -0.82761  -0.79940
  Beta  occ. eigenvalues --   -0.75248  -0.69116  -0.68610  -0.63943  -0.62982
  Beta  occ. eigenvalues --   -0.61689  -0.59428  -0.56490  -0.51669  -0.51200
  Beta  occ. eigenvalues --   -0.48008  -0.46817  -0.45479  -0.43807  -0.42045
  Beta  occ. eigenvalues --   -0.40208  -0.39766  -0.38432  -0.38133  -0.37373
  Beta  occ. eigenvalues --   -0.36790  -0.35764  -0.34775  -0.34462  -0.33874
  Beta  occ. eigenvalues --   -0.32727  -0.32163  -0.31485  -0.30859  -0.30581
  Beta  occ. eigenvalues --   -0.29946  -0.29495  -0.28821  -0.28669  -0.28016
  Beta  occ. eigenvalues --   -0.26718  -0.25592  -0.23424  -0.22955  -0.19263
  Beta  occ. eigenvalues --   -0.18815  -0.18323  -0.17456  -0.16650  -0.14383
  Beta virt. eigenvalues --    0.06098   0.06609   0.07188   0.07459   0.07787
  Beta virt. eigenvalues --    0.08220   0.08477   0.08880   0.09680   0.09763
  Beta virt. eigenvalues --    0.10252   0.10657   0.10979   0.11307   0.11544

 Mulliken charges and spin densities:
               1          2
     1  C    0.771874  -1.075137
     2  N   -0.058454   0.158477
     3  C    0.178188  -0.166847
     4  C   -0.019052  -0.002627
     5  N   -0.101209   0.052012
     6  C   -0.648459   0.779759
     7  C    0.493708  -1.491378
     8  N    0.187686   0.103389
     9  C    0.294233  -0.716787
    10  C   -0.191324  -0.807773
    11  O   -0.247787   0.029845
    12  C    0.459103   1.119288
    13  C   -0.163292  -0.133003
    14  C    0.418230  -0.869898
    15  O   -0.138670   0.021718
    16  C   -0.395199  -0.155961
    17  C   -0.614139   0.245177
    18  C    0.393857  -0.876376
    19  N   -0.272955   0.046964
    20  H   -0.219341   0.366321
    21  H    0.159574   0.038883
    22  H   -0.326940   0.510922
    23  H   -0.565998   0.739688
    24  H    0.047185   0.105524
    25  H   -0.247756   0.476289
    26  H    0.169587   0.049763
    27  H   -0.306330   0.504388
    28  H    0.023077   0.145889
    29  H    0.310117  -0.126263
    30  H   -0.021522   0.247109
    31  H   -0.381091   0.525961
    32  H    0.133886   0.031845
    33  H   -0.604159   0.833725
    34  H    0.170686   0.009735
    35  H    0.069277   0.121439
    36  H    0.091643   0.113126
    37  H    0.151768   0.044815
 Sum of Mulliken charges =  -1.00000   1.00000

 Dipole moment (field-independent basis, Debye):
    X=             -0.5420    Y=             -1.8972    Z=              0.6332  Tot=              2.0722
 Quadrupole moment (field-independent basis, Debye-Ang):
   XX=           -194.1875   YY=           -160.3278   ZZ=           -162.7630
   XY=             16.0693   XZ=            -11.3077   YZ=              6.0748

 Summary of Natural Population Analysis:

                                       Natural Population
                Natural  -----------------------------------------------
    Atom  No    Charge         Core      Valence    Rydberg      Total
 -----------------------------------------------------------------------
      C    1   -0.18319      0.99962     2.17554    0.00802     3.18319
      N    2   -0.19945      0.99962     2.68989    0.00994     3.69945
      C    3   -0.03086      0.99955     2.01964    0.01167     3.03086
      C    4   -0.03479      0.99958     2.02229    0.01292     3.03479
      N    5   -0.26158      0.99970     2.75239    0.00949     3.76158
      C    6    0.18331      0.99959     1.80053    0.01656     2.81669
      C    7   -0.10887      0.99955     2.09803    0.01128     3.10887
      N    8   -0.24545      0.99963     2.73452    0.01130     3.74545
      C    9   -0.18465      0.99961     2.17692    0.00812     3.18465
      C   10    0.36911      0.99959     1.60629    0.02501     2.63089
      O   11   -0.33028      0.99988     3.32515    0.00525     4.33028
      C   12   -0.12032      0.99945     2.10924    0.01164     3.12032
      C   13   -0.19575      0.99960     2.18473    0.01142     3.19575
      C   14   -0.01177      0.99957     1.99772    0.01448     3.01177
      O   15   -0.29961      0.99989     3.29101    0.00871     4.29961
      C   16   -0.01189      0.99957     2.00109    0.01124     3.01189
      C   17   -0.19341      0.99961     2.18401    0.00979     3.19341
      C   18    0.16557      0.99961     1.81452    0.02029     2.83443
      N   19   -0.17641      0.99979     2.66533    0.01129     3.67641
      H   20    0.10201      0.00000     0.39644    0.00156     0.39799
      H   21    0.12201      0.00000     0.37646    0.00152     0.37799
      H   22    0.09661      0.00000     0.40204    0.00135     0.40339
      H   23    0.10460      0.00000     0.39413    0.00127     0.39540
      H   24    0.09583      0.00000     0.40335    0.00082     0.40417
      H   25    0.11149      0.00000     0.38700    0.00151     0.38851
      H   26    0.12011      0.00000     0.37855    0.00134     0.37989
      H   27    0.09841      0.00000     0.39966    0.00193     0.40159
      H   28    0.10606      0.00000     0.39267    0.00127     0.39394
      H   29    0.11346      0.00000     0.38486    0.00169     0.38654
      H   30    0.10627      0.00000     0.39196    0.00177     0.39373
      H   31    0.11292      0.00000     0.38487    0.00221     0.38708
      H   32    0.08064      0.00000     0.41779    0.00156     0.41936
      H   33    0.09836      0.00000     0.39983    0.00181     0.40164
      H   34    0.09186      0.00000     0.40672    0.00142     0.40814
      H   35    0.09072      0.00000     0.40825    0.00102     0.40928
      H   36    0.11563      0.00000     0.38335    0.00102     0.38437
      H   37    0.10330      0.00000     0.39558    0.00112     0.39670
 =======================================================================
   * Total *   -0.00000     18.99300    50.75236    0.25464    70.00000

 Normal termination of Gaussian 16 at Mon Dec 14 20:46:00 2020.
