 Gaussian 16, Revision A.03,

 -----------------------------------------------------------
 # opt freq B3LYP/6-31G(d) empiricaldispersion=gd3bj scf=xqc
 -----------------------------------------------------------

 -------------------------------
 CID_53989225_JID_10101_neutraal
 -------------------------------
 Symbolic Z-matrix:
 Charge =  0 Multiplicity = 1

 SCF Done:  E(RB3LYP) =  -848.458196917     A.U. after   15 cycles
 SCF Done:  E(RB3LYP) =  -848.464624810     A.U. after   13 cycles
 SCF Done:  E(RB3LYP) =  -848.466312810     A.U. after   12 cycles
 SCF Done:  E(RB3LYP) =  -848.467374708     A.U. after   13 cycles
 SCF Done:  E(RB3LYP) =  -848.468662420     A.U. after   13 cycles
 SCF Done:  E(RB3LYP) =  -848.469056871     A.U. after   12 cycles
 SCF Done:  E(RB3LYP) =  -848.469157324     A.U. after   11 cycles
 SCF Done:  E(RB3LYP) =  -848.469207045     A.U. after   11 cycles
 SCF Done:  E(RB3LYP) =  -848.469214512     A.U. after   10 cycles
 SCF Done:  E(RB3LYP) =  -848.469218735     A.U. after    9 cycles
 SCF Done:  E(RB3LYP) =  -848.469219487     A.U. after    8 cycles
 SCF Done:  E(RB3LYP) =  -848.469219698     A.U. after    8 cycles
 SCF Done:  E(RB3LYP) =  -848.469219734     A.U. after    7 cycles
 Optimization completed.
    -- Stationary point found.
 Normal termination of Gaussian 16 at Mon Dec 14 13:31:58 2020.

 --------------------------------------------------------------------
 #N Geom=AllCheck Guess=TCheck SCRF=Check GenChk RB3LYP/6-31G(d) Freq
 --------------------------------------------------------------------

 Structure from the checkpoint file:  "JID_10101.chk"
 -------------------------------
 CID_53989225_JID_10101_neutraal
 -------------------------------
 Charge =  0 Multiplicity = 1

 SCF Done:  E(RB3LYP) =  -848.469219734     A.U. after    1 cycles

  Exact polarizability: 314.025  10.362 163.206  -9.232  17.900 135.367
 Approx polarizability: 430.229  31.403 268.572 -13.266  52.736 216.946

                      1                      2                      3
                      A                      A                      A
 Frequencies --     26.2117                48.9422                64.2770
 Red. masses --      3.7489                 4.3778                 4.5929
 Frc consts  --      0.0015                 0.0062                 0.0112
 IR Inten    --      0.7728                 0.3058                 0.1933

                      4                      5                      6
                      A                      A                      A
 Frequencies --     82.6595               105.1111               133.1574
 Red. masses --      3.4184                 3.8272                 4.7072
 Frc consts  --      0.0138                 0.0249                 0.0492
 IR Inten    --      1.1081                 4.7077                 1.0045

                      7                      8                      9
                      A                      A                      A
 Frequencies --    153.1520               184.4158               206.7116
 Red. masses --      3.6346                 4.1366                 3.0832
 Frc consts  --      0.0502                 0.0829                 0.0776
 IR Inten    --      2.0047                 0.4291                 0.6687

                     10                     11                     12
                      A                      A                      A
 Frequencies --    214.9141               236.5020               270.6826
 Red. masses --      4.6132                 1.7525                 1.6721
 Frc consts  --      0.1255                 0.0578                 0.0722
 IR Inten    --      1.7364                 0.1415                 0.3943

                     13                     14                     15
                      A                      A                      A
 Frequencies --    317.2622               345.3325               370.7889
 Red. masses --      3.7414                 2.8333                 2.9928
 Frc consts  --      0.2219                 0.1991                 0.2424
 IR Inten    --      4.0411                 0.9587                 2.4986

                     16                     17                     18
                      A                      A                      A
 Frequencies --    407.0155               425.8414               436.0827
 Red. masses --      3.2583                 3.4519                 3.8300
 Frc consts  --      0.3180                 0.3688                 0.4291
 IR Inten    --      1.5876                 3.1197                 0.4244

                     19                     20                     21
                      A                      A                      A
 Frequencies --    450.5633               499.5695               516.6949
 Red. masses --      3.6080                 4.3596                 3.3568
 Frc consts  --      0.4316                 0.6410                 0.5280
 IR Inten    --     11.8106                11.3407                 1.1683

                     22                     23                     24
                      A                      A                      A
 Frequencies --    529.0442               542.3032               582.3599
 Red. masses --      3.0632                 2.2672                 3.9618
 Frc consts  --      0.5051                 0.3929                 0.7916
 IR Inten    --     20.0641                 8.1110                 8.5701

                     25                     26                     27
                      A                      A                      A
 Frequencies --    610.6705               620.7539               648.8016
 Red. masses --      3.5206                 3.5238                 6.1103
 Frc consts  --      0.7735                 0.8000                 1.5154
 IR Inten    --      1.1916                 2.1136                 1.5211

                     28                     29                     30
                      A                      A                      A
 Frequencies --    697.1870               714.5033               738.6522
 Red. masses --      4.5665                 3.9036                 4.3806
 Frc consts  --      1.3078                 1.1741                 1.4082
 IR Inten    --      1.1813                 7.6607                 2.1578

                     31                     32                     33
                      A                      A                      A
 Frequencies --    764.0522               783.0418               821.0494
 Red. masses --      4.9392                 3.1089                 2.0263
 Frc consts  --      1.6989                 1.1231                 0.8048
 IR Inten    --      8.0553                 4.9586                10.1740

                     34                     35                     36
                      A                      A                      A
 Frequencies --    823.6882               831.7703               847.6404
 Red. masses --      1.9408                 2.4977                 1.7224
 Frc consts  --      0.7758                 1.0181                 0.7291
 IR Inten    --     23.7388                 6.7295                39.5486

                     37                     38                     39
                      A                      A                      A
 Frequencies --    865.1136               874.9431               898.9614
 Red. masses --      3.4123                 2.2851                 2.5675
 Frc consts  --      1.5047                 1.0307                 1.2225
 IR Inten    --      4.8176                12.7413                 0.8747

                     40                     41                     42
                      A                      A                      A
 Frequencies --    920.1332               926.5299               933.6128
 Red. masses --      2.4285                 1.9001                 2.1599
 Frc consts  --      1.2114                 0.9611                 1.1092
 IR Inten    --      0.2776                 2.4762                11.6786

                     43                     44                     45
                      A                      A                      A
 Frequencies --    943.6591               957.4505               969.6103
 Red. masses --      1.4368                 1.9347                 1.4950
 Frc consts  --      0.7538                 1.0449                 0.8281
 IR Inten    --      3.5378                 0.1280                11.4808

                     46                     47                     48
                      A                      A                      A
 Frequencies --    974.6441               978.1154               991.5059
 Red. masses --      1.5051                 2.0140                 1.9633
 Frc consts  --      0.8424                 1.1353                 1.1372
 IR Inten    --     14.1200                21.6664                 0.6716

                     49                     50                     51
                      A                      A                      A
 Frequencies --   1017.7955              1031.9805              1043.1280
 Red. masses --      2.1454                 2.6714                 1.5428
 Frc consts  --      1.3094                 1.6763                 0.9891
 IR Inten    --      3.9381                 0.0379                 5.3390

                     52                     53                     54
                      A                      A                      A
 Frequencies --   1048.6204              1064.2477              1080.5001
 Red. masses --      1.6800                 1.6749                 5.9822
 Frc consts  --      1.0884                 1.1177                 4.1149
 IR Inten    --     34.7795                 0.1529                80.1816

                     55                     56                     57
                      A                      A                      A
 Frequencies --   1128.7026              1145.7338              1153.5186
 Red. masses --      2.9647                 1.9319                 1.1854
 Frc consts  --      2.2253                 1.4942                 0.9293
 IR Inten    --     34.4157                52.1846                24.0677

                     58                     59                     60
                      A                      A                      A
 Frequencies --   1156.9967              1179.7098              1185.8406
 Red. masses --      1.3964                 1.4604                 1.2710
 Frc consts  --      1.1014                 1.1975                 1.0531
 IR Inten    --     19.0480                 7.2067                 0.7641

                     61                     62                     63
                      A                      A                      A
 Frequencies --   1193.8610              1213.3093              1214.2021
 Red. masses --      1.7658                 1.2778                 1.3261
 Frc consts  --      1.4828                 1.1083                 1.1519
 IR Inten    --      0.9740                75.8480                65.9718

                     64                     65                     66
                      A                      A                      A
 Frequencies --   1219.6769              1225.6390              1261.8224
 Red. masses --      1.3935                 1.7057                 1.6465
 Frc consts  --      1.2214                 1.5097                 1.5445
 IR Inten    --      8.5155                27.5069                 1.8433

                     67                     68                     69
                      A                      A                      A
 Frequencies --   1272.4344              1281.4945              1298.9454
 Red. masses --      1.9930                 1.5510                 1.7462
 Frc consts  --      1.9012                 1.5007                 1.7359
 IR Inten    --     14.1814                 1.4942               118.2796

                     70                     71                     72
                      A                      A                      A
 Frequencies --   1307.3928              1310.6567              1322.4934
 Red. masses --      1.4345                 3.3914                 1.3447
 Frc consts  --      1.4447                 3.4325                 1.3857
 IR Inten    --      1.4861               287.6854                 3.5611

                     73                     74                     75
                      A                      A                      A
 Frequencies --   1334.5936              1341.7850              1349.8993
 Red. masses --      1.4523                 1.4778                 1.3808
 Frc consts  --      1.5241                 1.5675                 1.4824
 IR Inten    --     15.2577                 0.3444                 8.6045

                     76                     77                     78
                      A                      A                      A
 Frequencies --   1351.8734              1361.5462              1366.0382
 Red. masses --      1.4274                 4.3169                 1.3255
 Frc consts  --      1.5370                 4.7150                 1.4574
 IR Inten    --      0.7304                30.5699                 0.9626

                     79                     80                     81
                      A                      A                      A
 Frequencies --   1379.3505              1386.0508              1423.9581
 Red. masses --      1.4176                 1.4744                 1.7934
 Frc consts  --      1.5891                 1.6689                 2.1425
 IR Inten    --      6.2950                 1.4217                 4.0480

                     82                     83                     84
                      A                      A                      A
 Frequencies --   1475.6970              1500.3285              1520.4773
 Red. masses --      2.9382                 1.1998                 1.0879
 Frc consts  --      3.7698                 1.5912                 1.4818
 IR Inten    --     20.0274                28.4135                 1.1888

                     85                     86                     87
                      A                      A                      A
 Frequencies --   1521.7542              1524.9916              1531.1788
 Red. masses --      1.0475                 1.0902                 1.1014
 Frc consts  --      1.4292                 1.4937                 1.5215
 IR Inten    --      5.9550                 2.3192                 7.5789

                     88                     89                     90
                      A                      A                      A
 Frequencies --   1534.8741              1541.1594              1568.5711
 Red. masses --      1.0618                 1.1032                 2.4722
 Frc consts  --      1.4738                 1.5438                 3.5837
 IR Inten    --     52.4140                 3.6390               131.1290

                     91                     92                     93
                      A                      A                      A
 Frequencies --   1620.2445              1668.9784              1705.1459
 Red. masses --      6.4041                 5.7106                 8.4653
 Frc consts  --      9.9053                 9.3720                14.5016
 IR Inten    --     39.1856               317.7696               160.7598

                     94                     95                     96
                      A                      A                      A
 Frequencies --   1813.0286              3030.4171              3040.7552
 Red. masses --     11.7466                 1.0345                 1.0672
 Frc consts  --     22.7495                 5.5976                 5.8139
 IR Inten    --    178.6016                74.6524                39.7851

                     97                     98                     99
                      A                      A                      A
 Frequencies --   3050.3691              3062.8187              3064.4860
 Red. masses --      1.0867                 1.0641                 1.0674
 Frc consts  --      5.9574                 5.8811                 5.9060
 IR Inten    --      3.6655                28.1447                15.6385

                    100                    101                    102
                      A                      A                      A
 Frequencies --   3066.2059              3069.1233              3091.0927
 Red. masses --      1.0620                 1.0733                 1.1069
 Frc consts  --      5.8825                 5.9567                 6.2311
 IR Inten    --     14.2057                70.4218                39.2967

                    103                    104                    105
                      A                      A                      A
 Frequencies --   3096.3446              3106.2322              3113.3697
 Red. masses --      1.0953                 1.1049                 1.1057
 Frc consts  --      6.1873                 6.2811                 6.3148
 IR Inten    --     35.9301                25.7550                43.0077

                    106                    107                    108
                      A                      A                      A
 Frequencies --   3115.3099              3131.6650              3143.5373
 Red. masses --      1.1077                 1.0876                 1.0889
 Frc consts  --      6.3339                 6.2846                 6.3396
 IR Inten    --     57.4604                25.5486                31.5711

                    109                    110                    111
                      A                      A                      A
 Frequencies --   3144.5696              3164.0192              3189.6661
 Red. masses --      1.0868                 1.1002                 1.0893
 Frc consts  --      6.3319                 6.4891                 6.5296
 IR Inten    --      7.7297                27.7923                 9.3608

                    112                    113                    114
                      A                      A                      A
 Frequencies --   3213.4348              3231.0106              3244.6294
 Red. masses --      1.0896                 1.0914                 1.0914
 Frc consts  --      6.6292                 6.7131                 6.7698
 IR Inten    --      6.6283                17.3240                 4.7475

 - Thermochemistry -
 -------------------
 Temperature   298.150 Kelvin.  Pressure   1.00000 Atm.
 Atom     1 has atomic number  6 and mass  12.00000

 Molecular mass:   268.14633 amu.
 Principal axes and moments of inertia in atomic units:
                           1         2         3
     Eigenvalues --  2259.18378********************
           X            0.99992  -0.01250  -0.00328
           Y            0.01243   0.99969  -0.02169
           Z            0.00355   0.02164   0.99976
 This molecule is an asymmetric top.
 Rotational symmetry number  1.
 Warning -- assumption of classical behavior for rotation
           may cause significant error
 Rotational temperatures (Kelvin)      0.03834     0.00806     0.00752
 Rotational constants (GHZ):           0.79885     0.16802     0.15676
 Zero-point vibrational energy     902193.5 (Joules/Mol)
                                  215.62941 (Kcal/Mol)
 Warning -- explicit consideration of  26 degrees of freedom as
           vibrations may cause significant error
 Vibrational temperatures:     37.71    70.42    92.48   118.93   151.23
          (Kelvin)            191.58   220.35   265.33   297.41   309.21
                              340.27   389.45   456.47   496.86   533.48
                              585.60   612.69   627.43   648.26   718.77
                              743.41   761.18   780.25   837.89   878.62
                              893.13   933.48  1003.10  1028.01  1062.76
                             1099.30  1126.62  1181.31  1185.10  1196.73
                             1219.57  1244.71  1258.85  1293.40  1323.87
                             1333.07  1343.26  1357.71  1377.56  1395.05
                             1402.30  1407.29  1426.56  1464.38  1484.79
                             1500.83  1508.73  1531.22  1554.60  1623.95
                             1648.46  1659.66  1664.66  1697.34  1706.16
                             1717.70  1745.68  1746.97  1754.84  1763.42
                             1815.48  1830.75  1843.78  1868.89  1881.05
                             1885.74  1902.77  1920.18  1930.53  1942.20
                             1945.04  1958.96  1965.42  1984.58  1994.22
                             2048.76  2123.20  2158.64  2187.63  2189.46
                             2194.12  2203.02  2208.34  2217.38  2256.82
                             2331.17  2401.29  2453.32  2608.54  4360.09
                             4374.97  4388.80  4406.71  4409.11  4411.59
                             4415.78  4447.39  4454.95  4469.18  4479.44
                             4482.24  4505.77  4522.85  4524.33  4552.32
                             4589.22  4623.42  4648.70  4668.30

 Zero-point correction=                           0.343627 (Hartree/Particle)
 Thermal correction to Energy=                    0.360036
 Thermal correction to Enthalpy=                  0.360980
 Thermal correction to Gibbs Free Energy=         0.298946
 Sum of electronic and zero-point Energies=           -848.125592
 Sum of electronic and thermal Energies=              -848.109184
 Sum of electronic and thermal Enthalpies=            -848.108240
 Sum of electronic and thermal Free Energies=         -848.170274

                     E (Thermal)             CV                S
                      KCal/Mol        Cal/Mol-Kelvin    Cal/Mol-Kelvin
 Total                  225.926             66.730            130.561
 Electronic               0.000              0.000              0.000
 Translational            0.889              2.981             42.658
 Rotational               0.889              2.981             33.990
 Vibrational            224.148             60.768             53.913
 Vibration     1          0.593              1.985              6.097
 Vibration     2          0.595              1.978              4.860
 Vibration     3          0.597              1.971              4.321
 Vibration     4          0.600              1.961              3.827
 Vibration     5          0.605              1.945              3.357
 Vibration     6          0.613              1.920              2.900
 Vibration     7          0.619              1.899              2.633
 Vibration     8          0.631              1.861              2.283
 Vibration     9          0.641              1.830              2.073
 Vibration    10          0.645              1.818              2.002
 Vibration    11          0.655              1.785              1.829
 Vibration    12          0.674              1.727              1.592
 Vibration    13          0.704              1.641              1.324
 Vibration    14          0.724              1.585              1.187
 Vibration    15          0.743              1.532              1.077
 Vibration    16          0.772              1.455              0.937
 Vibration    17          0.788              1.414              0.872
 Vibration    18          0.797              1.392              0.839
 Vibration    19          0.809              1.360              0.794
 Vibration    20          0.855              1.251              0.659
 Vibration    21          0.872              1.213              0.618
 Vibration    22          0.884              1.186              0.589
 Vibration    23          0.897              1.157              0.560
 Vibration    24          0.939              1.069              0.481
 Vibration    25          0.970              1.009              0.432
 Vibration    26          0.981              0.988              0.415

 Optimization completed.
    -- Stationary point found.
 Normal termination of Gaussian 16 at Mon Dec 14 13:56:08 2020.

 ----------------------------------------------------------------------
 # B3LYP/6-311++G(d,p) empiricaldispersion=gd3bj scf=xqc pop=npa geom=c
 heck
 ----------------------------------------------------------------------

 ---------------------------------------
 CID_53989225_JID_10101_Energie_neutraal
 ---------------------------------------
 Structure from the checkpoint file:  "JID_10101.chk"
 Charge =  0 Multiplicity = 1

 SCF Done:  E(RB3LYP) =  -848.690373854     A.U. after   16 cycles
 Normal termination of Gaussian 16 at Mon Dec 14 14:08:09 2020.

 ----------------------------------------------------------------------
 # B3LYP/6-311++G(d,p) empiricaldispersion=gd3bj scf=xqc pop=npa geom=c
 heck
 ----------------------------------------------------------------------

 -------------------------------------
 CID_53989225_JID_10101_Energie_kation
 -------------------------------------
 Structure from the checkpoint file:  "JID_10101.chk"
 Charge =  1 Multiplicity = 2

 SCF Done:  E(UB3LYP) =  -848.413200917     A.U. after   25 cycles
 Normal termination of Gaussian 16 at Mon Dec 14 14:35:26 2020.
 Gaussian 16:  ES64L-G16RevA.03 25-Dec-2016

 ----------------------------------------------------------------------
 # B3LYP/6-311++G(d,p) empiricaldispersion=gd3bj scf=xqc pop=npa geom=c
 heck
 ----------------------------------------------------------------------

 ------------------------------------
 CID_53989225_JID_10101_Energie_anion
 ------------------------------------
 Structure from the checkpoint file:  "JID_10101.chk"
 Charge = -1 Multiplicity = 2

                         Standard orientation:
 ---------------------------------------------------------------------
 Center     Atomic      Atomic             Coordinates (Angstroms)
 Number     Number       Type             X           Y           Z
 ---------------------------------------------------------------------
      1          6           0        6.375881    0.175767   -0.140597
      2          8           0        5.234775    0.878803    0.326726
      3          6           0        4.010713    0.324383    0.114865
      4          6           0        2.915293    1.065840    0.585426
      5          6           0        1.625895    0.588822    0.425281
      6          6           0        1.376292   -0.647345   -0.210489
      7          6           0        2.486355   -1.357984   -0.696352
      8          6           0        3.789791   -0.895755   -0.535290
      9          6           0        0.046061   -1.205555   -0.412567
     10          6           0       -1.119424   -0.911211    0.195813
     11          6           0       -1.498246    0.020010    1.327272
     12          6           0       -2.647598   -0.790071    1.989293
     13          6           0       -3.466106   -0.951535    0.687066
     14          6           0       -2.399501   -1.562122   -0.221814
     15          8           0       -2.557437   -2.380395   -1.111451
     16          6           0       -3.645618    0.541228    0.272154
     17          6           0       -2.302585    1.221597    0.744156
     18          6           0       -1.752927    1.968230   -0.487328
     19          6           0       -2.990519    2.197422   -1.375810
     20          6           0       -3.795836    0.893997   -1.221162
     21          1           0        7.236657    0.788098    0.131985
     22          1           0        6.349467    0.048227   -1.230405
     23          1           0        6.463038   -0.808915    0.336318
     24          1           0        3.106670    2.020194    1.065112
     25          1           0        0.797842    1.196473    0.767762
     26          1           0        2.321825   -2.303885   -1.205725
     27          1           0        4.615344   -1.482662   -0.919535
     28          1           0       -0.022037   -1.997159   -1.160243
     29          1           0       -0.678164    0.297239    1.991119
     30          1           0       -3.178402   -0.216315    2.756947
     31          1           0       -2.312961   -1.740379    2.418633
     32          1           0       -4.387177   -1.534704    0.722289
     33          1           0       -4.491393    0.947953    0.837443
     34          1           0       -2.503577    1.929798    1.555852
     35          1           0       -1.034755    1.337746   -1.023214
     36          1           0       -1.239604    2.899064   -0.223616
     37          1           0       -2.734306    2.422986   -2.416711
     38          1           0       -3.574945    3.044349   -0.991734
     39          1           0       -3.357370    0.110382   -1.849445
     40          1           0       -4.842383    0.999946   -1.524528
 ---------------------------------------------------------------------

 SCF Done:  E(UB3LYP) =  -848.706626660     A.U. after   28 cycles

 The electronic state is 2-A.
 Alpha  occ. eigenvalues --  -19.04530 -18.92785 -10.13498 -10.10068 -10.06706
 Alpha  occ. eigenvalues --  -10.05483 -10.05257 -10.05091 -10.05041 -10.04687
 Alpha  occ. eigenvalues --  -10.04671 -10.04569 -10.04567 -10.04406 -10.04064
 Alpha  occ. eigenvalues --  -10.04044 -10.04040 -10.03820 -10.00582 -10.00391
 Alpha  occ. eigenvalues --   -0.96318  -0.86453  -0.75272  -0.72917  -0.68923
 Alpha  occ. eigenvalues --   -0.65572  -0.63055  -0.61741  -0.60678  -0.58108
 Alpha  occ. eigenvalues --   -0.56485  -0.54180  -0.50706  -0.48984  -0.46397
 Alpha  occ. eigenvalues --   -0.45854  -0.42939  -0.41979  -0.41599  -0.38382
 Alpha  occ. eigenvalues --   -0.37588  -0.37391  -0.36597  -0.35314  -0.33679
 Alpha  occ. eigenvalues --   -0.32722  -0.31321  -0.30704  -0.30292  -0.29850
 Alpha  occ. eigenvalues --   -0.29328  -0.28196  -0.27196  -0.26781  -0.25292
 Alpha  occ. eigenvalues --   -0.24628  -0.23789  -0.22894  -0.22628  -0.22510
 Alpha  occ. eigenvalues --   -0.21507  -0.21242  -0.21130  -0.20656  -0.20105
 Alpha  occ. eigenvalues --   -0.19464  -0.18518  -0.17618  -0.14183  -0.13491
 Alpha  occ. eigenvalues --   -0.08214  -0.07774   0.03711
 Alpha virt. eigenvalues --    0.06412   0.07477   0.08943   0.09086   0.09243
 Alpha virt. eigenvalues --    0.10113   0.10297   0.10769   0.10809   0.11455
 Alpha virt. eigenvalues --    0.11632   0.11964   0.12141   0.13034   0.13306

  Beta  occ. eigenvalues --  -19.04462 -18.92378 -10.13500 -10.09800 -10.06459
  Beta  occ. eigenvalues --  -10.05479 -10.05225 -10.05170 -10.05017 -10.04756
  Beta  occ. eigenvalues --  -10.04698 -10.04569 -10.04545 -10.04406 -10.04061
  Beta  occ. eigenvalues --  -10.03904 -10.03886 -10.03815 -10.00290 -10.00204
  Beta  occ. eigenvalues --   -0.96147  -0.85707  -0.75119  -0.72693  -0.68806
  Beta  occ. eigenvalues --   -0.65257  -0.62874  -0.61583  -0.60500  -0.57900
  Beta  occ. eigenvalues --   -0.56367  -0.54040  -0.50138  -0.48848  -0.46247
  Beta  occ. eigenvalues --   -0.45831  -0.42785  -0.41789  -0.41442  -0.38257
  Beta  occ. eigenvalues --   -0.37401  -0.37303  -0.36479  -0.35221  -0.33525
  Beta  occ. eigenvalues --   -0.32477  -0.31199  -0.30583  -0.30162  -0.29702
  Beta  occ. eigenvalues --   -0.29119  -0.28070  -0.26813  -0.26348  -0.25187
  Beta  occ. eigenvalues --   -0.24310  -0.23525  -0.22797  -0.22543  -0.21995
  Beta  occ. eigenvalues --   -0.21173  -0.21075  -0.20682  -0.20407  -0.19741
  Beta  occ. eigenvalues --   -0.19271  -0.18030  -0.17392  -0.13187  -0.12711
  Beta  occ. eigenvalues --   -0.07721  -0.06423
  Beta virt. eigenvalues --    0.06399   0.07328   0.08908   0.08976   0.09202
  Beta virt. eigenvalues --    0.09585   0.10083   0.10361   0.10758   0.11073
  Beta virt. eigenvalues --    0.11431   0.11598   0.11949   0.12077   0.13029

 Mulliken charges and spin densities:
               1          2
     1  C   -0.317733  -0.003873
     2  O   -0.166087   0.010850
     3  C   -0.577708   0.173528
     4  C   -0.361139  -0.063059
     5  C   -0.055685   0.130245
     6  C    0.745249  -0.022777
     7  C   -0.287905   0.136117
     8  C   -0.080247  -0.046796
     9  C   -0.166415   0.274611
    10  C    0.187943   0.091567
    11  C    0.412659  -0.059312
    12  C   -0.901013   0.031659
    13  C    0.364133  -0.028210
    14  C   -0.723334   0.144423
    15  O   -0.391416   0.152534
    16  C   -0.066695  -0.006083
    17  C   -0.209711   0.008911
    18  C   -0.393308   0.018350
    19  C   -0.399795  -0.125257
    20  C   -0.411026   0.031418
    21  H    0.149789  -0.000215
    22  H    0.130734   0.004280
    23  H    0.129991   0.004479
    24  H    0.161135   0.007310
    25  H    0.065757  -0.014996
    26  H    0.117986  -0.002975
    27  H    0.145366   0.002668
    28  H    0.191085  -0.020702
    29  H    0.196813  -0.000596
    30  H    0.112875   0.008184
    31  H    0.143880   0.003048
    32  H    0.190301   0.010330
    33  H    0.119250   0.058442
    34  H    0.156143   0.036950
    35  H    0.134807  -0.004976
    36  H    0.118566   0.018235
    37  H    0.139281   0.004579
    38  H    0.077945   0.026930
    39  H    0.203599  -0.006911
    40  H    0.113931   0.017088
 Sum of Mulliken charges =  -1.00000   1.00000

 Dipole moment (field-independent basis, Debye):
    X=              3.2086    Y=              3.8749    Z=              1.8459  Tot=              5.3588
 Quadrupole moment (field-independent basis, Debye-Ang):
   XX=           -159.3609   YY=           -145.6127   ZZ=           -133.4843
   XY=            -14.8571   XZ=             -9.5458   YZ=             -4.5219

 Summary of Natural Population Analysis:

                                       Natural Population
                Natural  -----------------------------------------------
    Atom  No    Charge         Core      Valence    Rydberg      Total
 -----------------------------------------------------------------------
      C    1   -0.10046      0.99962     2.09236    0.00848     3.10046
      O    2   -0.27279      0.99985     3.26224    0.01070     4.27279
      C    3    0.19453      0.99940     1.79315    0.01293     2.80547
      C    4   -0.14814      0.99954     2.13854    0.01007     3.14814
      C    5   -0.07143      0.99959     2.05844    0.01340     3.07143
      C    6   -0.00441      0.99955     1.99674    0.00812     3.00441
      C    7   -0.01438      0.99949     2.00931    0.00558     3.01438
      C    8   -0.19813      0.99960     2.17972    0.01881     3.19813
      C    9   -0.05419      0.99958     2.02617    0.02844     3.05419
      C   10   -0.00404      0.99946     1.98409    0.02048     3.00404
      C   11   -0.13082      0.99960     2.11703    0.01420     3.13082
      C   12   -0.17781      0.99964     2.17026    0.00791     3.17781
      C   13   -0.14725      0.99955     2.13639    0.01131     3.14725
      C   14    0.29085      0.99960     1.68099    0.02857     2.70915
      O   15   -0.26997      0.99987     3.26294    0.00716     4.26997
      C   16   -0.09968      0.99960     2.08722    0.01285     3.09968
      C   17   -0.10175      0.99959     2.08901    0.01315     3.10175
      C   18   -0.19893      0.99962     2.19127    0.00804     3.19893
      C   19   -0.18613      0.99965     2.17942    0.00707     3.18613
      C   20   -0.19562      0.99962     2.18901    0.00699     3.19562
      H   21    0.08655      0.00000     0.41262    0.00083     0.41345
      H   22    0.08047      0.00000     0.41780    0.00174     0.41953
      H   23    0.08043      0.00000     0.41784    0.00173     0.41957
      H   24    0.09795      0.00000     0.40066    0.00139     0.40205
      H   25    0.09604      0.00000     0.40191    0.00205     0.40396
      H   26    0.09320      0.00000     0.40597    0.00082     0.40680
      H   27    0.09687      0.00000     0.40219    0.00095     0.40313
      H   28    0.09549      0.00000     0.40114    0.00337     0.40451
      H   29    0.10128      0.00000     0.39690    0.00182     0.39872
      H   30    0.08961      0.00000     0.40931    0.00108     0.41039
      H   31    0.10036      0.00000     0.39876    0.00088     0.39964
      H   32    0.10001      0.00000     0.39829    0.00170     0.39999
      H   33    0.09466      0.00000     0.40386    0.00148     0.40534
      H   34    0.09397      0.00000     0.40484    0.00119     0.40603
      H   35    0.11081      0.00000     0.38798    0.00121     0.38919
      H   36    0.09288      0.00000     0.40529    0.00183     0.40712
      H   37    0.09448      0.00000     0.40456    0.00097     0.40552
      H   38    0.08581      0.00000     0.41259    0.00160     0.41419
      H   39    0.10961      0.00000     0.38934    0.00105     0.39039
      H   40    0.09195      0.00000     0.40649    0.00156     0.40805
 =======================================================================
   * Total *    0.00186     19.99201    51.72262    0.28351    71.99814

 Normal termination of Gaussian 16 at Mon Dec 14 15:05:34 2020.
