 Gaussian 16, Revision A.03,

 -----------------------------------------------------------
 # opt freq B3LYP/6-31G(d) empiricaldispersion=gd3bj scf=xqc
 -----------------------------------------------------------

 ------------------------------
 CID_147904723_JID_700_neutraal
 ------------------------------
 Symbolic Z-matrix:
 Charge =  0 Multiplicity = 1

 SCF Done:  E(RB3LYP) =  -406.734753769     A.U. after   14 cycles
 SCF Done:  E(RB3LYP) =  -406.736787847     A.U. after   12 cycles
 SCF Done:  E(RB3LYP) =  -406.736973215     A.U. after   11 cycles
 SCF Done:  E(RB3LYP) =  -406.737034433     A.U. after   11 cycles
 SCF Done:  E(RB3LYP) =  -406.737041062     A.U. after   10 cycles
 SCF Done:  E(RB3LYP) =  -406.737042892     A.U. after    9 cycles
 SCF Done:  E(RB3LYP) =  -406.737043143     A.U. after    7 cycles
 SCF Done:  E(RB3LYP) =  -406.737043286     A.U. after    8 cycles
 SCF Done:  E(RB3LYP) =  -406.737043311     A.U. after    6 cycles
 Optimization completed.
    -- Stationary point found.

 1\1\GINC-NODE206\FOpt\RB3LYP\6-31G(d)\C9H15N1\VSC10255\08-Dec-2020\0\\
 # opt freq B3LYP/6-31G(d) empiricaldispersion=gd3bj scf=xqc\\CID_14790
 4723_JID_700_neutraal\\0,1\C,0.8036128952,-0.072525586,-0.039771681\C,
 1.0375649788,-0.7789586737,1.2965363825\C,2.0070716212,-0.0195371801,2
 .2169154654\N,1.4044412865,1.2239920607,2.6656716377\C,1.8351392989,2.
 3592059136,2.2567098767\C,2.9243529219,2.6866844308,1.342376006\C,3.21
 92119603,3.9678668575,1.0296102421\C,4.2718321919,4.3760978257,0.12564
 10791\C,4.5472208857,5.6584167227,-0.1731434957\C,5.6280349537,6.11201

 Normal termination of Gaussian 16 at Tue Dec  8 12:25:00 2020.

 --------------------------------------------------------------------
 #N Geom=AllCheck Guess=TCheck SCRF=Check GenChk RB3LYP/6-31G(d) Freq
 --------------------------------------------------------------------

 Structure from the checkpoint file:  "JID_700.chk"
 ------------------------------
 CID_147904723_JID_700_neutraal
 ------------------------------
 Charge =  0 Multiplicity = 1

 SCF Done:  E(RB3LYP) =  -406.737043311     A.U. after    1 cycles

  Exact polarizability: 216.428  -8.176  80.609  14.212  10.961  76.023
 Approx polarizability: 319.169 -18.053 111.970  29.981  18.932 112.351

                      1                      2                      3
                      A                      A                      A
 Frequencies --     23.6010                68.2433                82.2291
 Red. masses --      3.3143                 2.1836                 2.5074
 Frc consts  --      0.0011                 0.0060                 0.0100
 IR Inten    --      0.2888                 0.0841                 0.1548

                      4                      5                      6
                      A                      A                      A
 Frequencies --     93.9144               128.0297               174.5401
 Red. masses --      2.6122                 2.0287                 1.4632
 Frc consts  --      0.0136                 0.0196                 0.0263
 IR Inten    --      0.0967                 0.4081                 1.5012

                      7                      8                      9
                      A                      A                      A
 Frequencies --    219.9333               231.9550               252.9658
 Red. masses --      1.8935                 2.0902                 1.7451
 Frc consts  --      0.0540                 0.0663                 0.0658
 IR Inten    --      0.2639                 1.3464                 0.5253

                     10                     11                     12
                      A                      A                      A
 Frequencies --    288.6460               309.9277               332.1763
 Red. masses --      1.8480                 3.5878                 2.5777
 Frc consts  --      0.0907                 0.2030                 0.1676
 IR Inten    --      1.7591                 0.1970                 3.7012

                     13                     14                     15
                      A                      A                      A
 Frequencies --    411.9404               448.6100               520.2104
 Red. masses --      2.3343                 3.4617                 2.9777
 Frc consts  --      0.2334                 0.4105                 0.4748
 IR Inten    --      1.0628                 0.3100                 1.0414

                     16                     17                     18
                      A                      A                      A
 Frequencies --    560.1293               662.7026               776.9878
 Red. masses --      2.5639                 3.5388                 1.3219
 Frc consts  --      0.4739                 0.9157                 0.4702
 IR Inten    --      8.3057                17.3172                 6.3728

                     19                     20                     21
                      A                      A                      A
 Frequencies --    801.1360               867.8789               899.0624
 Red. masses --      1.3936                 2.2986                 1.9553
 Frc consts  --      0.5270                 1.0201                 0.9312
 IR Inten    --      3.3296                 1.6017                 2.4132

                     22                     23                     24
                      A                      A                      A
 Frequencies --    931.9733               944.1214               957.9831
 Red. masses --      1.3053                 1.7909                 1.9270
 Frc consts  --      0.6680                 0.9405                 1.0419
 IR Inten    --      3.4323                10.2638                13.0421

                     25                     26                     27
                      A                      A                      A
 Frequencies --    960.7846               988.2255              1043.5261
 Red. masses --      1.3607                 1.2147                 1.1011
 Frc consts  --      0.7401                 0.6990                 0.7065
 IR Inten    --      0.2381                 0.3458                49.6259

                     28                     29                     30
                      A                      A                      A
 Frequencies --   1071.1326              1073.5749              1114.4072
 Red. masses --      2.3426                 1.5390                 2.3915
 Frc consts  --      1.5835                 1.0451                 1.7499
 IR Inten    --      0.6051                 0.1749                14.7247

                     31                     32                     33
                      A                      A                      A
 Frequencies --   1126.3131              1149.5796              1177.2374
 Red. masses --      1.9196                 3.2214                 1.8907
 Frc consts  --      1.4348                 2.5082                 1.5438
 IR Inten    --      5.2461                47.8237                 1.2718

                     34                     35                     36
                      A                      A                      A
 Frequencies --   1210.5859              1266.2446              1276.9875
 Red. masses --      2.2587                 1.2418                 1.1830
 Frc consts  --      1.9503                 1.1731                 1.1366
 IR Inten    --     14.8974                 3.3016                 2.1577

                     37                     38                     39
                      A                      A                      A
 Frequencies --   1313.2359              1340.7762              1349.5842
 Red. masses --      1.2016                 1.5801                 1.3241
 Frc consts  --      1.2209                 1.6736                 1.4209
 IR Inten    --      0.3482                 5.4242                 0.7541

                     40                     41                     42
                      A                      A                      A
 Frequencies --   1357.1089              1387.1310              1393.7366
 Red. masses --      1.3130                 1.2987                 1.3630
 Frc consts  --      1.4247                 1.4723                 1.5599
 IR Inten    --      2.7213                29.5737                 2.1022

                     43                     44                     45
                      A                      A                      A
 Frequencies --   1439.8480              1441.0013              1451.5375
 Red. masses --      1.2444                 1.2643                 1.2650
 Frc consts  --      1.5199                 1.5467                 1.5704
 IR Inten    --      9.2724                 2.2512                 1.3941

                     46                     47                     48
                      A                      A                      A
 Frequencies --   1506.1600              1510.0264              1517.6290
 Red. masses --      1.0452                 1.0796                 1.0653
 Frc consts  --      1.3970                 1.4503                 1.4457
 IR Inten    --      6.6145                 4.0977                13.6332

                     49                     50                     51
                      A                      A                      A
 Frequencies --   1526.5143              1537.5640              1541.5035
 Red. masses --      1.0501                 1.0605                 1.0842
 Frc consts  --      1.4418                 1.4772                 1.5179
 IR Inten    --      7.2701                 3.4189                19.6568

                     52                     53                     54
                      A                      A                      A
 Frequencies --   1673.4401              1708.3658              1730.7344
 Red. masses --      6.1434                 6.1324                 5.7259
 Frc consts  --     10.1363                10.5448                10.1055
 IR Inten    --      0.3277               206.5309                 5.7946

                     55                     56                     57
                      A                      A                      A
 Frequencies --   3001.8949              3030.9391              3043.6313
 Red. masses --      1.0650                 1.0379                 1.0632
 Frc consts  --      5.6544                 5.6175                 5.8028
 IR Inten    --     43.9531                42.7748                31.1777

                     58                     59                     60
                      A                      A                      A
 Frequencies --   3045.6405              3062.7390              3072.8264
 Red. masses --      1.0400                 1.0919                 1.0867
 Frc consts  --      5.6836                 6.0348                 6.0457
 IR Inten    --     19.7534                69.5263                37.0967

                     61                     62                     63
                      A                      A                      A
 Frequencies --   3075.7239              3085.5461              3110.6400
 Red. masses --      1.0996                 1.1003                 1.1009
 Frc consts  --      6.1287                 6.1717                 6.2760
 IR Inten    --     21.1102                14.1054                59.7184

                     64                     65                     66
                      A                      A                      A
 Frequencies --   3120.5358              3127.1979              3140.6645
 Red. masses --      1.0985                 1.1019                 1.0884
 Frc consts  --      6.3026                 6.3490                 6.3251
 IR Inten    --      8.8059                39.3205                 2.6203

                     67                     68                     69
                      A                      A                      A
 Frequencies --   3146.4468              3154.8464              3199.0722
 Red. masses --      1.0920                 1.0867                 1.0879
 Frc consts  --      6.3698                 6.3727                 6.5598
 IR Inten    --      5.2117                50.6957                13.6660

 - Thermochemistry -
 -------------------
 Temperature   298.150 Kelvin.  Pressure   1.00000 Atm.
 Atom     1 has atomic number  6 and mass  12.00000

 Molecular mass:   137.12045 amu.
 Principal axes and moments of inertia in atomic units:
                           1         2         3
     Eigenvalues --   569.276804351.633484661.79721
           X            0.99998   0.00628   0.00031
           Y           -0.00628   0.99979   0.01961
           Z           -0.00019  -0.01961   0.99981
 This molecule is an asymmetric top.
 Rotational symmetry number  1.
 Warning -- assumption of classical behavior for rotation
           may cause significant error
 Rotational temperatures (Kelvin)      0.15215     0.01990     0.01858
 Rotational constants (GHZ):           3.17023     0.41473     0.38713
 Zero-point vibrational energy     583728.2 (Joules/Mol)
                                  139.51439 (Kcal/Mol)
 Warning -- explicit consideration of  16 degrees of freedom as
           vibrations may cause significant error
 Vibrational temperatures:     33.96    98.19   118.31   135.12   184.21
          (Kelvin)            251.12   316.43   333.73   363.96   415.30
                              445.92   477.93   592.69   645.45   748.47
                              805.90   953.48  1117.91  1152.66  1248.68
                             1293.55  1340.90  1358.38  1378.32  1382.35
                             1421.84  1501.40  1541.12  1544.63  1603.38
                             1620.51  1653.99  1693.78  1741.76  1821.84
                             1837.30  1889.45  1929.08  1941.75  1952.58
                             1995.77  2005.28  2071.62  2073.28  2088.44
                             2167.03  2172.59  2183.53  2196.31  2212.21
                             2217.88  2407.71  2457.96  2490.14  4319.06
                             4360.85  4379.11  4382.00  4406.60  4421.11
                             4425.28  4439.41  4475.52  4489.75  4499.34
                             4518.72  4527.04  4539.12  4602.75

 Zero-point correction=                           0.222330 (Hartree/Particle)
 Thermal correction to Energy=                    0.234299
 Thermal correction to Enthalpy=                  0.235243
 Thermal correction to Gibbs Free Energy=         0.183133
 Sum of electronic and zero-point Energies=           -406.514713
 Sum of electronic and thermal Energies=              -406.502744
 Sum of electronic and thermal Enthalpies=            -406.501800
 Sum of electronic and thermal Free Energies=         -406.553911

                     E (Thermal)             CV                S
                      KCal/Mol        Cal/Mol-Kelvin    Cal/Mol-Kelvin
 Total                  147.025             42.494            109.676
 Electronic               0.000              0.000              0.000
 Translational            0.889              2.981             40.659
 Rotational               0.889              2.981             30.824
 Vibrational            145.247             36.533             38.192
 Vibration     1          0.593              1.985              6.306
 Vibration     2          0.598              1.969              4.203
 Vibration     3          0.600              1.961              3.837
 Vibration     4          0.603              1.954              3.577
 Vibration     5          0.611              1.925              2.975
 Vibration     6          0.627              1.874              2.386
 Vibration     7          0.647              1.811              1.960
 Vibration     8          0.653              1.792              1.864
 Vibration     9          0.664              1.758              1.710
 Vibration    10          0.685              1.695              1.482
 Vibration    11          0.699              1.655              1.363
 Vibration    12          0.714              1.611              1.249
 Vibration    13          0.776              1.444              0.920
 Vibration    14          0.808              1.364              0.800
 Vibration    15          0.875              1.205              0.609
 Vibration    16          0.916              1.118              0.524

 Optimization completed.
    -- Stationary point found.

 1\1\GINC-NODE206\Freq\RB3LYP\6-31G(d)\C9H15N1\VSC10255\08-Dec-2020\0\\
 #N Geom=AllCheck Guess=TCheck SCRF=Check GenChk RB3LYP/6-31G(d) Freq\\
 CID_147904723_JID_700_neutraal\\0,1\C,0.8036128952,-0.072525586,-0.039
 771681\C,1.0375649788,-0.7789586737,1.2965363825\C,2.0070716212,-0.019
 5371801,2.2169154654\N,1.4044412865,1.2239920607,2.6656716377\C,1.8351
 392989,2.3592059136,2.2567098767\C,2.9243529219,2.6866844308,1.3423760
 06\C,3.2192119603,3.9678668575,1.0296102421\C,4.2718321919,4.376097825
 7,0.1256410791\C,4.5472208857,5.6584167227,-0.1731434957\C,5.628034953

 Normal termination of Gaussian 16 at Tue Dec  8 12:29:18 2020.

 ----------------------------------------------------------------------
 # B3LYP/6-311++G(d,p) empiricaldispersion=gd3bj scf=xqc pop=npa geom=c
 heck
 ----------------------------------------------------------------------

 --------------------------------------
 CID_147904723_JID_700_Energie_neutraal
 --------------------------------------
 Structure from the checkpoint file:  "JID_700.chk"
 Charge =  0 Multiplicity = 1

 SCF Done:  E(RB3LYP) =  -406.850560139     A.U. after   14 cycles
 Normal termination of Gaussian 16 at Tue Dec  8 12:32:29 2020.

 ----------------------------------------------------------------------
 # B3LYP/6-311++G(d,p) empiricaldispersion=gd3bj scf=xqc pop=npa geom=c
 heck
 ----------------------------------------------------------------------

 ------------------------------------
 CID_147904723_JID_700_Energie_kation
 ------------------------------------
 Structure from the checkpoint file:  "JID_700.chk"
 Charge =  1 Multiplicity = 2

 SCF Done:  E(UB3LYP) =  -406.555363461     A.U. after   22 cycles
 Normal termination of Gaussian 16 at Tue Dec  8 12:39:52 2020.
 Gaussian 16:  ES64L-G16RevA.03 25-Dec-2016

 -----------------------------------
 CID_147904723_JID_700_Energie_anion
 -----------------------------------
 Structure from the checkpoint file:  "JID_700.chk"
 Charge = -1 Multiplicity = 2

                         Standard orientation:
 ---------------------------------------------------------------------
 Center     Atomic      Atomic             Coordinates (Angstroms)
 Number     Number       Type             X           Y           Z
 ---------------------------------------------------------------------
      1          6           0        2.843222    1.680494   -0.667035
      2          6           0        3.658820    0.703170    0.180985
      3          6           0        2.793657   -0.370934    0.860363
      4          7           0        2.235550   -1.270558   -0.134677
      5          6           0        0.982903   -1.272643   -0.403620
      6          6           0       -0.107079   -0.475726    0.150003
      7          6           0       -1.378914   -0.627709   -0.280727
      8          6           0       -2.511684    0.128424    0.206014
      9          6           0       -3.770311   -0.038115   -0.238483
     10          6           0       -4.961637    0.727700    0.244520
     11          1           0        2.308132    1.154930   -1.464563
     12          1           0        3.487853    2.433768   -1.133182
     13          1           0        2.099387    2.208308   -0.056899
     14          1           0        4.406585    0.200425   -0.443973
     15          1           0        4.204432    1.249033    0.961732
     16          1           0        3.433607   -0.976850    1.514422
     17          1           0        2.047563    0.119492    1.505164
     18          1           0        0.668162   -1.981987   -1.179040
     19          1           0        0.107377    0.264721    0.915298
     20          1           0       -1.583238   -1.370438   -1.053874
     21          1           0       -2.313341    0.872439    0.978321
     22          1           0       -3.953985   -0.785870   -1.011391
     23          1           0       -5.444570    1.269866   -0.579913
     24          1           0       -5.722656    0.054230    0.661811
     25          1           0       -4.688026    1.453879    1.016704
 ---------------------------------------------------------------------

 SCF Done:  E(UB3LYP) =  -406.856187936     A.U. after   25 cycles

 The electronic state is 2-A.
 Alpha  occ. eigenvalues --  -14.11462 -10.04593 -10.04221 -10.03950 -10.03662
 Alpha  occ. eigenvalues --  -10.02967 -10.01129 -10.00553  -9.99863  -9.99219
 Alpha  occ. eigenvalues --   -0.74752  -0.65917  -0.64534  -0.61341  -0.56006
 Alpha  occ. eigenvalues --   -0.53691  -0.46911  -0.44165  -0.40323  -0.38208
 Alpha  occ. eigenvalues --   -0.34408  -0.32285  -0.30978  -0.30565  -0.28951
 Alpha  occ. eigenvalues --   -0.28139  -0.27430  -0.24926  -0.23151  -0.23020
 Alpha  occ. eigenvalues --   -0.22211  -0.21028  -0.20064  -0.19779  -0.18345
 Alpha  occ. eigenvalues --   -0.14325  -0.08087  -0.07108   0.05263
 Alpha virt. eigenvalues --    0.08413   0.08523   0.10219   0.10593   0.11195
 Alpha virt. eigenvalues --    0.11615   0.11705   0.12637   0.13299   0.13829
 Alpha virt. eigenvalues --    0.14293   0.15355   0.15553   0.16388   0.16598

  Beta  occ. eigenvalues --  -14.11010 -10.04611 -10.04260 -10.03921 -10.03663
  Beta  occ. eigenvalues --  -10.02873 -10.01183 -10.00065  -9.99513  -9.99068
  Beta  occ. eigenvalues --   -0.74085  -0.65353  -0.64369  -0.60795  -0.55821
  Beta  occ. eigenvalues --   -0.53510  -0.46665  -0.43400  -0.39975  -0.37891
  Beta  occ. eigenvalues --   -0.34256  -0.32104  -0.30826  -0.30315  -0.28506
  Beta  occ. eigenvalues --   -0.27973  -0.27356  -0.24811  -0.22910  -0.22647
  Beta  occ. eigenvalues --   -0.22084  -0.20890  -0.19958  -0.19581  -0.16854
  Beta  occ. eigenvalues --   -0.12688  -0.07575  -0.04756
  Beta virt. eigenvalues --    0.08339   0.08467   0.10094   0.10509   0.11145
  Beta virt. eigenvalues --    0.11448   0.11591   0.12226   0.12613   0.13232
  Beta virt. eigenvalues --    0.13763   0.14265   0.15362   0.15489   0.16384

 Mulliken charges and spin densities:
               1          2
     1  C   -0.532974   0.037040
     2  C    0.075191  -0.200155
     3  C   -0.261152  -0.067474
     4  N   -0.058801   0.220324
     5  C   -0.565707   0.040271
     6  C    0.262874   0.155964
     7  C   -0.143019   0.232749
     8  C   -0.187155  -0.045173
     9  C    0.074245   0.347198
    10  C   -0.715421  -0.024565
    11  H    0.164473   0.001827
    12  H    0.094272   0.011222
    13  H    0.119579  -0.002951
    14  H    0.118641  -0.002893
    15  H   -0.080185   0.170905
    16  H    0.062500   0.079802
    17  H   -0.002895   0.059428
    18  H    0.123103  -0.005154
    19  H    0.017274  -0.018304
    20  H   -0.003685  -0.018130
    21  H    0.033012   0.004042
    22  H    0.102351  -0.023284
    23  H    0.090803   0.025326
    24  H    0.094833   0.020469
    25  H    0.117844   0.001515
 Sum of Mulliken charges =  -1.00000   1.00000

 Dipole moment (field-independent basis, Debye):
    X=             -0.4602    Y=              2.5212    Z=              0.0981  Tot=              2.5647
 Quadrupole moment (field-independent basis, Debye-Ang):
   XX=           -115.9214   YY=            -78.6234   ZZ=            -73.3080
   XY=              5.3720   XZ=             -0.5654   YZ=              1.4980

 Summary of Natural Population Analysis:

                                       Natural Population
                Natural  -----------------------------------------------
    Atom  No    Charge         Core      Valence    Rydberg      Total
 -----------------------------------------------------------------------
      C    1   -0.28886      0.99967     2.28381    0.00539     3.28886
      C    2   -0.19038      0.99964     2.18059    0.01015     3.19038
      C    3   -0.10524      0.99962     2.08955    0.01607     3.10524
      N    4   -0.19847      0.99968     2.68595    0.01283     3.69847
      C    5    0.05899      0.99961     1.92632    0.01508     2.94101
      C    6   -0.12111      0.99951     2.11344    0.00817     3.12111
      C    7   -0.02123      0.99954     2.01209    0.00960     3.02123
      C    8   -0.13512      0.99951     2.12602    0.00958     3.13512
      C    9    0.00518      0.99956     1.98594    0.00932     2.99482
      C   10   -0.30113      0.99967     2.29710    0.00437     3.30113
      H   11    0.10612      0.00000     0.39270    0.00118     0.39388
      H   12    0.08817      0.00000     0.41095    0.00088     0.41183
      H   13    0.09364      0.00000     0.40495    0.00141     0.40636
      H   14    0.09249      0.00000     0.40567    0.00184     0.40751
      H   15    0.08586      0.00000     0.41230    0.00185     0.41414
      H   16    0.08885      0.00000     0.40942    0.00173     0.41115
      H   17    0.07488      0.00000     0.42242    0.00270     0.42512
      H   18    0.06831      0.00000     0.42966    0.00203     0.43169
      H   19    0.08307      0.00000     0.41523    0.00170     0.41693
      H   20    0.07756      0.00000     0.42034    0.00210     0.42244
      H   21    0.08174      0.00000     0.41658    0.00168     0.41826
      H   22    0.07409      0.00000     0.42426    0.00165     0.42591
      H   23    0.09500      0.00000     0.40374    0.00125     0.40500
      H   24    0.09485      0.00000     0.40390    0.00126     0.40515
      H   25    0.09274      0.00000     0.40623    0.00103     0.40726
 =======================================================================
   * Total *   -0.00000      9.99601    27.87916    0.12483    38.00000

 Normal termination of Gaussian 16 at Tue Dec  8 12:49:57 2020.
