 Gaussian 16, Revision A.03,

 -----------------------------------------------------------
 # opt freq B3LYP/6-31G(d) empiricaldispersion=gd3bj scf=xqc
 -----------------------------------------------------------

 ------------------------------
 CID_66254467_JID_9732_neutraal
 ------------------------------
 Symbolic Z-matrix:
 Charge =  0 Multiplicity = 1

 SCF Done:  E(RB3LYP) =  -1277.86385369     A.U. after   15 cycles
 SCF Done:  E(RB3LYP) =  -1277.87507860     A.U. after   13 cycles
 SCF Done:  E(RB3LYP) =  -1277.87590966     A.U. after   12 cycles
 SCF Done:  E(RB3LYP) =  -1277.87632625     A.U. after   13 cycles
 SCF Done:  E(RB3LYP) =  -1277.87855984     A.U. after   12 cycles
 SCF Done:  E(RB3LYP) =  -1277.87882653     A.U. after   12 cycles
 SCF Done:  E(RB3LYP) =  -1277.87924447     A.U. after   12 cycles
 SCF Done:  E(RB3LYP) =  -1277.87939288     A.U. after   11 cycles
 SCF Done:  E(RB3LYP) =  -1277.87943410     A.U. after   10 cycles
 SCF Done:  E(RB3LYP) =  -1277.87945824     A.U. after   11 cycles
 SCF Done:  E(RB3LYP) =  -1277.88114847     A.U. after    8 cycles
 SCF Done:  E(RB3LYP) =  -1277.88114844     A.U. after    8 cycles
 SCF Done:  E(RB3LYP) =  -1277.88114881     A.U. after    8 cycles
 SCF Done:  E(RB3LYP) =  -1277.88114886     A.U. after    7 cycles
 Optimization completed.
    -- Stationary point found.
 Normal termination of Gaussian 16 at Sat Dec 12 10:29:32 2020.

 --------------------------------------------------------------------
 #N Geom=AllCheck Guess=TCheck SCRF=Check GenChk RB3LYP/6-31G(d) Freq
 --------------------------------------------------------------------

 Structure from the checkpoint file:  "JID_9732.chk"
 ------------------------------
 CID_66254467_JID_9732_neutraal
 ------------------------------
 Charge =  0 Multiplicity = 1

 SCF Done:  E(RB3LYP) =  -1277.88114886     A.U. after    1 cycles

  Exact polarizability: 205.192   1.947 141.501  -5.465  -1.341 142.727
 Approx polarizability: 268.197   5.556 210.445 -16.519   8.859 232.825

                      1                      2                      3
                      A                      A                      A
 Frequencies --     17.1024                31.9186                37.8818
 Red. masses --      5.2520                 5.0995                 4.1578
 Frc consts  --      0.0009                 0.0031                 0.0035
 IR Inten    --      0.5586                 1.8427                 2.9356

                      4                      5                      6
                      A                      A                      A
 Frequencies --     47.2943                50.9284                62.3841
 Red. masses --      4.9368                 4.6890                 4.2086
 Frc consts  --      0.0065                 0.0072                 0.0097
 IR Inten    --      4.3420                 0.6809                 1.4757

                      7                      8                      9
                      A                      A                      A
 Frequencies --     94.1439               116.1231               133.7318
 Red. masses --      3.9716                 3.7030                 2.9242
 Frc consts  --      0.0207                 0.0294                 0.0308
 IR Inten    --      1.6364                 1.8415                 0.8733

                     10                     11                     12
                      A                      A                      A
 Frequencies --    149.8719               175.5499               195.1911
 Red. masses --      2.3900                 4.9670                 3.7757
 Frc consts  --      0.0316                 0.0902                 0.0848
 IR Inten    --      0.6274                 1.0653                 1.9975

                     13                     14                     15
                      A                      A                      A
 Frequencies --    229.3712               246.0684               262.4366
 Red. masses --      7.9818                 1.5183                 4.4522
 Frc consts  --      0.2474                 0.0542                 0.1807
 IR Inten    --      1.4550                 1.5312                13.3755

                     16                     17                     18
                      A                      A                      A
 Frequencies --    301.6208               313.7708               337.5663
 Red. masses --      1.7936                 2.3467                 2.7527
 Frc consts  --      0.0961                 0.1361                 0.1848
 IR Inten    --      1.4146                 3.2849                 3.0630

                     19                     20                     21
                      A                      A                      A
 Frequencies --    367.3133               383.3638               402.8445
 Red. masses --      3.8043                 3.8140                 5.3892
 Frc consts  --      0.3024                 0.3303                 0.5153
 IR Inten    --      3.4199                 4.7582                23.5754

                     22                     23                     24
                      A                      A                      A
 Frequencies --    408.2985               430.3948               454.2955
 Red. masses --      5.6172                 2.8770                 3.7645
 Frc consts  --      0.5517                 0.3140                 0.4578
 IR Inten    --     17.6479                 2.2540                 3.3156

                     25                     26                     27
                      A                      A                      A
 Frequencies --    497.5360               506.1282               593.7854
 Red. masses --      3.6842                 2.8322                 9.6190
 Frc consts  --      0.5373                 0.4275                 1.9982
 IR Inten    --      4.5534                 1.9958                26.7214

                     28                     29                     30
                      A                      A                      A
 Frequencies --    600.6204               630.4123               659.5534
 Red. masses --      3.2393                 3.6347                 2.4528
 Frc consts  --      0.6885                 0.8511                 0.6286
 IR Inten    --     31.5787                 2.2303                 7.7940

                     31                     32                     33
                      A                      A                      A
 Frequencies --    677.1711               709.2229               727.5060
 Red. masses --      2.3298                 4.3297                 3.2717
 Frc consts  --      0.6294                 1.2831                 1.0202
 IR Inten    --     62.6169                 6.5679                34.2795

                     34                     35                     36
                      A                      A                      A
 Frequencies --    749.0552               758.8121               780.5585
 Red. masses --      2.5537                 2.2595                 1.3801
 Frc consts  --      0.8442                 0.7665                 0.4954
 IR Inten    --     44.0585                32.8195                 2.3589

                     37                     38                     39
                      A                      A                      A
 Frequencies --    805.8008               816.9276               868.5974
 Red. masses --      2.2397                 1.3703                 3.2350
 Frc consts  --      0.8568                 0.5388                 1.4380
 IR Inten    --      0.9233                54.6077                15.7877

                     40                     41                     42
                      A                      A                      A
 Frequencies --    899.4016               916.1533               929.5420
 Red. masses --      2.3004                 2.0447                 1.3557
 Frc consts  --      1.0964                 1.0111                 0.6902
 IR Inten    --      5.7279                 8.4425                 4.2375

                     43                     44                     45
                      A                      A                      A
 Frequencies --    933.8278               945.1125               958.5218
 Red. masses --      2.1672                 2.6831                 2.3193
 Frc consts  --      1.1135                 1.4121                 1.2555
 IR Inten    --      8.3919                17.0921                22.1950

                     46                     47                     48
                      A                      A                      A
 Frequencies --    965.3755              1003.1204              1010.2956
 Red. masses --      1.8440                 1.9334                 2.4758
 Frc consts  --      1.0125                 1.1463                 1.4889
 IR Inten    --      8.6661                 8.9872                 9.1399

                     49                     50                     51
                      A                      A                      A
 Frequencies --   1036.9760              1066.8294              1072.2685
 Red. masses --      2.0001                 2.0107                 2.3269
 Frc consts  --      1.2672                 1.3483                 1.5763
 IR Inten    --      3.6815                 8.8935                28.4348

                     52                     53                     54
                      A                      A                      A
 Frequencies --   1083.5509              1094.2061              1103.5250
 Red. masses --      2.5510                 2.3815                 3.0300
 Frc consts  --      1.7646                 1.6799                 2.1740
 IR Inten    --      7.4742                46.7523                99.2653

                     55                     56                     57
                      A                      A                      A
 Frequencies --   1107.8637              1122.3110              1146.8320
 Red. masses --      2.0030                 2.8150                 1.7141
 Frc consts  --      1.4484                 2.0891                 1.3283
 IR Inten    --     57.5617                13.6733                82.4848

                     58                     59                     60
                      A                      A                      A
 Frequencies --   1168.4613              1182.6592              1190.5897
 Red. masses --      1.8368                 3.4574                 2.0515
 Frc consts  --      1.4776                 2.8492                 1.7134
 IR Inten    --      2.5325                21.8756                 4.2297

                     61                     62                     63
                      A                      A                      A
 Frequencies --   1201.5936              1224.2347              1242.6950
 Red. masses --      1.9124                 1.1643                 1.6313
 Frc consts  --      1.6269                 1.0281                 1.4843
 IR Inten    --     56.5506                35.0109                19.1607

                     64                     65                     66
                      A                      A                      A
 Frequencies --   1276.7393              1282.7306              1292.8571
 Red. masses --      1.2866                 1.2218                 1.2306
 Frc consts  --      1.2357                 1.1845                 1.2119
 IR Inten    --     18.8901                 3.1552                15.9996

                     67                     68                     69
                      A                      A                      A
 Frequencies --   1316.7916              1324.4238              1332.5044
 Red. masses --      7.2518                 1.1669                 1.4699
 Frc consts  --      7.4085                 1.2060                 1.5377
 IR Inten    --    154.6758                 5.5378                38.4772

                     70                     71                     72
                      A                      A                      A
 Frequencies --   1341.2588              1343.7890              1357.4359
 Red. masses --      1.2272                 1.3062                 1.4120
 Frc consts  --      1.3007                 1.3897                 1.5330
 IR Inten    --      9.1831                12.7993                 2.9301

                     73                     74                     75
                      A                      A                      A
 Frequencies --   1369.2265              1380.2648              1386.8685
 Red. masses --      1.2864                 2.5724                 1.2562
 Frc consts  --      1.4210                 2.8874                 1.4236
 IR Inten    --      3.4110               216.1636                 3.7994

                     76                     77                     78
                      A                      A                      A
 Frequencies --   1396.3709              1400.9221              1410.5989
 Red. masses --      1.3627                 1.5885                 1.4571
 Frc consts  --      1.5654                 1.8368                 1.7083
 IR Inten    --     13.9330                98.6864                 8.1462

                     79                     80                     81
                      A                      A                      A
 Frequencies --   1433.2938              1448.6563              1475.9825
 Red. masses --      1.4458                 1.2740                 1.0976
 Frc consts  --      1.7500                 1.5752                 1.4089
 IR Inten    --     14.4143                 4.1474                 6.7096

                     82                     83                     84
                      A                      A                      A
 Frequencies --   1509.7766              1518.1332              1521.9446
 Red. masses --      1.0912                 1.1500                 1.5023
 Frc consts  --      1.4655                 1.5616                 2.0503
 IR Inten    --      1.2188                22.2697                60.1941

                     85                     86                     87
                      A                      A                      A
 Frequencies --   1532.0663              1535.1844              1545.4587
 Red. masses --      1.0832                 1.0929                 1.0925
 Frc consts  --      1.4981                 1.5176                 1.5374
 IR Inten    --     19.6768                 1.7263                11.6614

                     88                     89                     90
                      A                      A                      A
 Frequencies --   1547.7648              1552.1210              1678.7570
 Red. masses --      1.0736                 1.1020                 6.4154
 Frc consts  --      1.5153                 1.5641                10.6525
 IR Inten    --     10.5826                 6.5890                 5.5683

                     91                     92                     93
                      A                      A                      A
 Frequencies --   1777.1665              2917.9327              2927.9967
 Red. masses --      7.7808                 1.0749                 1.0798
 Frc consts  --     14.4787                 5.3922                 5.4541
 IR Inten    --    365.9170                35.0490               122.2765

                     94                     95                     96
                      A                      A                      A
 Frequencies --   3020.1273              3039.9540              3045.3790
 Red. masses --      1.0687                 1.0701                 1.0447
 Frc consts  --      5.7434                 5.8263                 5.7087
 IR Inten    --     53.9459                62.0411                15.5785

                     97                     98                     99
                      A                      A                      A
 Frequencies --   3047.6248              3063.6729              3084.6378
 Red. masses --      1.0570                 1.0826                 1.1024
 Frc consts  --      5.7842                 5.9872                 6.1800
 IR Inten    --     19.1333                51.2999                 6.7202

                    100                    101                    102
                      A                      A                      A
 Frequencies --   3113.0560              3116.3870              3118.8688
 Red. masses --      1.1031                 1.0592                 1.0884
 Frc consts  --      6.2988                 6.0608                 6.2380
 IR Inten    --     53.8511                 1.0854                 7.5665

                    103                    104                    105
                      A                      A                      A
 Frequencies --   3119.2836              3126.7379              3136.3657
 Red. masses --      1.1008                 1.0940                 1.0971
 Frc consts  --      6.3105                 6.3017                 6.3583
 IR Inten    --     43.0974                21.1543                21.1813

                    106                    107                    108
                      A                      A                      A
 Frequencies --   3142.9799              3190.1804              3206.8171
 Red. masses --      1.0872                 1.1093                 1.0906
 Frc consts  --      6.3278                 6.6518                 6.6082
 IR Inten    --     54.2219                 0.7757                 3.9339

                    109                    110                    111
                      A                      A                      A
 Frequencies --   3262.5028              3495.8758              3557.2503
 Red. masses --      1.1005                 1.0738                 1.0760
 Frc consts  --      6.9013                 7.7319                 8.0221
 IR Inten    --      1.9442                 1.4499                32.6142

 - Thermochemistry -
 -------------------
 Temperature   298.150 Kelvin.  Pressure   1.00000 Atm.
 Atom     1 has atomic number  6 and mass  12.00000

 Molecular mass:   288.11438 amu.
 Principal axes and moments of inertia in atomic units:
                           1         2         3
     Eigenvalues --  2805.48791********************
           X            0.99986  -0.01521   0.00739
           Y            0.01570   0.99731  -0.07164
           Z           -0.00628   0.07175   0.99740
 This molecule is an asymmetric top.
 Rotational symmetry number  1.
 Warning -- assumption of classical behavior for rotation
           may cause significant error
 Rotational temperatures (Kelvin)      0.03087     0.00760     0.00729
 Rotational constants (GHZ):           0.64329     0.15830     0.15183
 Zero-point vibrational energy     862865.3 (Joules/Mol)
                                  206.22976 (Kcal/Mol)
 Warning -- explicit consideration of  28 degrees of freedom as
           vibrations may cause significant error
 Vibrational temperatures:     24.61    45.92    54.50    68.05    73.27
          (Kelvin)             89.76   135.45   167.08   192.41   215.63
                              252.58   280.84   330.01   354.04   377.59
                              433.96   451.45   485.68   528.48   551.57
                              579.60   587.45   619.24   653.63   715.84
                              728.21   854.32   864.16   907.02   948.95
                              974.30  1020.41  1046.72  1077.72  1091.76
                             1123.05  1159.37  1175.38  1249.72  1294.04
                             1318.14  1337.40  1343.57  1359.81  1379.10
                             1388.96  1443.27  1453.59  1491.98  1534.93
                             1542.76  1558.99  1574.32  1587.73  1593.97
                             1614.76  1650.04  1681.16  1701.58  1712.99
                             1728.83  1761.40  1787.96  1836.94  1845.56
                             1860.13  1894.57  1905.55  1917.18  1929.77
                             1933.41  1953.05  1970.01  1985.89  1995.39
                             2009.07  2015.61  2029.54  2062.19  2084.29
                             2123.61  2172.23  2184.26  2189.74  2204.30
                             2208.79  2223.57  2226.89  2233.16  2415.36
                             2556.95  4198.25  4212.73  4345.29  4373.82
                             4381.62  4384.85  4407.94  4438.11  4478.99
                             4483.79  4487.36  4487.95  4498.68  4512.53
                             4522.05  4589.96  4613.89  4694.01  5029.79
                             5118.09

 Zero-point correction=                           0.328648 (Hartree/Particle)
 Thermal correction to Energy=                    0.347818
 Thermal correction to Enthalpy=                  0.348762
 Thermal correction to Gibbs Free Energy=         0.278192
 Sum of electronic and zero-point Energies=          -1277.552501
 Sum of electronic and thermal Energies=             -1277.533331
 Sum of electronic and thermal Enthalpies=           -1277.532387
 Sum of electronic and thermal Free Energies=        -1277.602957

                     E (Thermal)             CV                S
                      KCal/Mol        Cal/Mol-Kelvin    Cal/Mol-Kelvin
 Total                  218.259             71.585            148.528
 Electronic               0.000              0.000              0.000
 Translational            0.889              2.981             42.872
 Rotational               0.889              2.981             34.296
 Vibrational            216.482             65.624             71.359
 Vibration     1          0.593              1.986              6.945
 Vibration     2          0.594              1.983              5.706
 Vibration     3          0.594              1.982              5.367
 Vibration     4          0.595              1.979              4.927
 Vibration     5          0.595              1.977              4.781
 Vibration     6          0.597              1.972              4.380
 Vibration     7          0.603              1.953              3.572
 Vibration     8          0.608              1.936              3.164
 Vibration     9          0.613              1.920              2.892
 Vibration    10          0.618              1.903              2.674
 Vibration    11          0.628              1.873              2.375
 Vibration    12          0.636              1.847              2.178
 Vibration    13          0.652              1.796              1.884
 Vibration    14          0.661              1.769              1.759
 Vibration    15          0.670              1.742              1.646
 Vibration    16          0.694              1.671              1.408
 Vibration    17          0.702              1.647              1.342
 Vibration    18          0.718              1.600              1.224
 Vibration    19          0.740              1.539              1.091
 Vibration    20          0.753              1.506              1.026
 Vibration    21          0.768              1.464              0.952
 Vibration    22          0.773              1.452              0.933
 Vibration    23          0.792              1.404              0.857
 Vibration    24          0.813              1.351              0.783
 Vibration    25          0.853              1.255              0.664
 Vibration    26          0.861              1.236              0.643
 Vibration    27          0.951              1.045              0.460
 Vibration    28          0.959              1.030              0.449

                           ! Non-Optimized Parameters !
 Normal termination of Gaussian 16 at Sat Dec 12 10:50:04 2020.

 ----------------------------------------------------------------------
 # B3LYP/6-311++G(d,p) empiricaldispersion=gd3bj scf=xqc pop=npa geom=c
 heck
 ----------------------------------------------------------------------

 --------------------------------------
 CID_66254467_JID_9732_Energie_neutraal
 --------------------------------------
 Structure from the checkpoint file:  "JID_9732.chk"
 Charge =  0 Multiplicity = 1

 SCF Done:  E(RB3LYP) =  -1278.16676964     A.U. after   16 cycles
 Normal termination of Gaussian 16 at Sat Dec 12 11:00:23 2020.

 ----------------------------------------------------------------------
 # B3LYP/6-311++G(d,p) empiricaldispersion=gd3bj scf=xqc pop=npa geom=c
 heck
 ----------------------------------------------------------------------

 ------------------------------------
 CID_66254467_JID_9732_Energie_kation
 ------------------------------------
 Structure from the checkpoint file:  "JID_9732.chk"
 Charge =  1 Multiplicity = 2

 SCF Done:  E(UB3LYP) =  -1277.84317322     A.U. after   33 cycles
 SCF Done:  E(UB3LYP) =  -1277.84317324     a.u. after    2 cycles
 Normal termination of Gaussian 16 at Sat Dec 12 11:56:02 2020.
 Gaussian 16:  ES64L-G16RevA.03 25-Dec-2016

 ----------------------------------------------------------------------
 # B3LYP/6-311++G(d,p) empiricaldispersion=gd3bj scf=xqc pop=npa geom=c
 heck
 ----------------------------------------------------------------------

 -----------------------------------
 CID_66254467_JID_9732_Energie_anion
 -----------------------------------
 Structure from the checkpoint file:  "JID_9732.chk"
 Charge = -1 Multiplicity = 2

                         Standard orientation:
 ---------------------------------------------------------------------
 Center     Atomic      Atomic             Coordinates (Angstroms)
 Number     Number       Type             X           Y           Z
 ---------------------------------------------------------------------
      1          6           0       -5.327613    2.200471    0.104564
      2          6           0       -5.339935    1.020134   -0.872384
      3          6           0       -3.950616    0.457535   -1.176791
      4          7           0       -3.327833   -0.116204    0.016230
      5          6           0       -1.982893   -0.611607   -0.216898
      6          6           0       -1.935892   -1.935439   -1.002532
      7          8           0       -0.730455   -2.570027   -0.580717
      8          6           0       -0.679752   -2.389969    0.835794
      9          6           0       -1.292132   -0.997761    1.122584
     10          6           0       -0.381788    0.110705    1.635284
     11          8           0       -0.757277    0.841443    2.543696
     12          7           0        0.853828    0.300922    1.060429
     13          6           0        1.416118   -0.255666   -0.164644
     14          6           0        2.812768   -0.865788    0.060991
     15         16           0        3.982334    0.500495   -0.261296
     16          8           0        5.163332    0.040050   -1.001436
     17          8           0        4.137783    1.298410    0.967518
     18          6           0        2.824673    1.339058   -1.340341
     19          6           0        1.592349    0.862176   -1.188993
     20          1           0       -4.983081    1.904000    1.101995
     21          1           0       -6.332501    2.618516    0.225080
     22          1           0       -4.672346    3.004292   -0.253405
     23          1           0       -5.964631    0.212053   -0.472942
     24          1           0       -5.793553    1.337459   -1.819777
     25          1           0       -4.041468   -0.339191   -1.925820
     26          1           0       -3.322952    1.249300   -1.634003
     27          1           0       -3.278074    0.596346    0.742594
     28          1           0       -1.361056    0.129838   -0.754459
     29          1           0       -2.817037   -2.540404   -0.739153
     30          1           0       -1.883399   -1.818879   -2.087073
     31          1           0        0.359763   -2.500256    1.154417
     32          1           0       -1.276810   -3.167123    1.331539
     33          1           0       -2.068104   -1.084998    1.885315
     34          1           0        1.363029    1.081908    1.464420
     35          1           0        0.745475   -1.021519   -0.554052
     36          1           0        3.032519   -1.649307   -0.667371
     37          1           0        2.966351   -1.226499    1.078197
     38          1           0        3.170253    2.164060   -1.950968
     39          1           0        0.719525    1.267361   -1.692717
 ---------------------------------------------------------------------

 SCF Done:  E(UB3LYP) =  -1278.17118803     A.U. after   33 cycles
 SCF Done:  E(UB3LYP) =  -1278.17118803     a.u. after    1 cycles

 The electronic state is 2-A.
 Alpha  occ. eigenvalues --  -88.92862 -19.05506 -19.00297 -18.99976 -18.99024
 Alpha  occ. eigenvalues --  -14.23770 -14.22021 -10.17606 -10.14509 -10.13881
 Alpha  occ. eigenvalues --  -10.13085 -10.12766 -10.11058 -10.10857 -10.10238
 Alpha  occ. eigenvalues --  -10.08474 -10.07821 -10.06527 -10.06065  -7.99323
 Alpha  occ. eigenvalues --   -5.95589  -5.95495  -5.95412  -0.99330  -0.97322
 Alpha  occ. eigenvalues --   -0.94306  -0.89072  -0.83566  -0.83201  -0.73437
 Alpha  occ. eigenvalues --   -0.71335  -0.68386  -0.65596  -0.64318  -0.60271
 Alpha  occ. eigenvalues --   -0.59253  -0.55424  -0.52002  -0.50612  -0.50240
 Alpha  occ. eigenvalues --   -0.48706  -0.46292  -0.43276  -0.42738  -0.41488
 Alpha  occ. eigenvalues --   -0.40493  -0.39651  -0.38336  -0.37833  -0.36624
 Alpha  occ. eigenvalues --   -0.35625  -0.34716  -0.34189  -0.34125  -0.33475
 Alpha  occ. eigenvalues --   -0.32917  -0.32847  -0.31961  -0.31552  -0.30075
 Alpha  occ. eigenvalues --   -0.29369  -0.28629  -0.28147  -0.26929  -0.26167
 Alpha  occ. eigenvalues --   -0.25737  -0.25056  -0.24330  -0.22672  -0.21890
 Alpha  occ. eigenvalues --   -0.20438  -0.19380  -0.17972  -0.17590  -0.16045
 Alpha  occ. eigenvalues --   -0.15628  -0.15185   0.03828
 Alpha virt. eigenvalues --    0.05202   0.06376   0.06904   0.07506   0.08497
 Alpha virt. eigenvalues --    0.08830   0.09196   0.09695   0.10266   0.10495
 Alpha virt. eigenvalues --    0.10631   0.10869   0.11794   0.12117   0.12559

  Beta  occ. eigenvalues --  -88.92860 -19.05506 -19.00256 -18.99918 -18.98968
  Beta  occ. eigenvalues --  -14.23735 -14.22013 -10.17537 -10.14492 -10.13876
  Beta  occ. eigenvalues --  -10.13104 -10.12758 -10.11047 -10.10854 -10.10241
  Beta  occ. eigenvalues --  -10.08454 -10.07800 -10.06221 -10.05671  -7.99320
  Beta  occ. eigenvalues --   -5.95583  -5.95481  -5.95419  -0.99225  -0.97319
  Beta  occ. eigenvalues --   -0.94194  -0.88957  -0.83545  -0.83094  -0.73127
  Beta  occ. eigenvalues --   -0.71292  -0.68352  -0.65573  -0.63887  -0.59961
  Beta  occ. eigenvalues --   -0.59206  -0.55357  -0.51948  -0.50513  -0.50032
  Beta  occ. eigenvalues --   -0.48622  -0.45760  -0.43233  -0.42698  -0.41364
  Beta  occ. eigenvalues --   -0.40453  -0.39558  -0.38307  -0.37775  -0.36503
  Beta  occ. eigenvalues --   -0.35577  -0.34583  -0.34060  -0.33995  -0.33415
  Beta  occ. eigenvalues --   -0.32816  -0.32797  -0.31879  -0.31419  -0.29971
  Beta  occ. eigenvalues --   -0.29304  -0.28521  -0.27978  -0.26840  -0.26143
  Beta  occ. eigenvalues --   -0.25707  -0.25030  -0.24275  -0.22155  -0.21692
  Beta  occ. eigenvalues --   -0.20175  -0.19337  -0.17800  -0.16882  -0.15842
  Beta  occ. eigenvalues --   -0.15404  -0.14358
  Beta virt. eigenvalues --    0.05785   0.06509   0.07076   0.07559   0.08657
  Beta virt. eigenvalues --    0.08724   0.09200   0.09327   0.09711   0.10322
  Beta virt. eigenvalues --    0.10632   0.10818   0.11416   0.11862   0.12158

 Mulliken charges and spin densities:
               1          2
     1  C    0.066593  -0.562568
     2  C    0.017071  -0.334327
     3  C    0.117291  -0.277231
     4  N    0.133225   0.024943
     5  C   -0.645246   0.000041
     6  C   -0.274494  -0.145455
     7  O   -0.031592   0.008811
     8  C   -0.512325  -0.098817
     9  C    0.387308   0.079393
    10  C   -0.384612   0.171804
    11  O   -0.305896   0.006497
    12  N    0.017203  -0.020471
    13  C    0.050133  -0.037513
    14  C   -0.972136  -0.071920
    15  S    0.442962   0.064212
    16  O   -0.145096   0.002754
    17  O   -0.219336  -0.012839
    18  C   -0.950752   0.258018
    19  C    0.051812   0.341370
    20  H    0.012817   0.123722
    21  H   -0.248153   0.401550
    22  H    0.015930   0.120503
    23  H    0.065426   0.081801
    24  H   -0.296289   0.442628
    25  H   -0.128615   0.271503
    26  H    0.045939   0.072570
    27  H    0.353881  -0.127191
    28  H    0.349203  -0.121067
    29  H    0.109297   0.067502
    30  H    0.145726   0.049293
    31  H    0.165155   0.043806
    32  H    0.038642   0.108125
    33  H    0.258486   0.031266
    34  H    0.298880   0.008376
    35  H    0.266633  -0.023610
    36  H    0.238969   0.007369
    37  H    0.216872  -0.002938
    38  H    0.207317  -0.015365
    39  H    0.041772   0.063452
 Sum of Mulliken charges =  -1.00000   1.00000

 Dipole moment (field-independent basis, Debye):
    X=             -1.5351    Y=             -4.8036    Z=             -0.3464  Tot=              5.0548
 Quadrupole moment (field-independent basis, Debye-Ang):
   XX=           -243.7313   YY=           -149.1810   ZZ=           -154.4587
   XY=              4.1384   XZ=             -2.6436   YZ=             -7.4931

 Summary of Natural Population Analysis:

                                       Natural Population
                Natural  -----------------------------------------------
    Atom  No    Charge         Core      Valence    Rydberg      Total
 -----------------------------------------------------------------------
      C    1   -0.29068      0.99967     2.28499    0.00602     3.29068
      C    2   -0.19449      0.99964     2.18588    0.00896     3.19449
      C    3   -0.08511      0.99963     2.07441    0.01107     3.08511
      N    4   -0.34067      0.99972     2.83047    0.01049     3.84067
      C    5   -0.01540      0.99958     2.00446    0.01136     3.01540
      C    6   -0.01667      0.99957     2.00387    0.01323     3.01667
      O    7   -0.29863      0.99990     3.29089    0.00784     4.29863
      C    8   -0.01483      0.99959     2.00160    0.01364     3.01483
      C    9   -0.16570      0.99954     2.15560    0.01056     3.16570
      C   10    0.35266      0.99963     1.62446    0.02324     2.64734
      O   11   -0.32071      0.99988     3.31477    0.00606     4.32071
      N   12   -0.31840      0.99966     2.80790    0.01084     3.81840
      C   13   -0.05188      0.99956     2.03652    0.01579     3.05188
      C   14   -0.28800      0.99958     2.27905    0.00937     3.28800
      S   15    1.01315      4.99927     1.89118    0.09640     6.98685
      O   16   -0.46767      0.99991     3.46216    0.00560     4.46767
      O   17   -0.47056      0.99991     3.46482    0.00583     4.47056
      C   18   -0.16768      0.99941     2.15773    0.01054     3.16768
      C   19   -0.02077      0.99951     2.01149    0.00976     3.02077
      H   20    0.09587      0.00000     0.40322    0.00091     0.40413
      H   21    0.10125      0.00000     0.39784    0.00091     0.39875
      H   22    0.09818      0.00000     0.40092    0.00089     0.40182
      H   23    0.09696      0.00000     0.40182    0.00123     0.40304
      H   24    0.09870      0.00000     0.39986    0.00144     0.40130
      H   25    0.09135      0.00000     0.40730    0.00136     0.40865
      H   26    0.07930      0.00000     0.41938    0.00132     0.42070
      H   27    0.17871      0.00000     0.31747    0.00383     0.32129
      H   28    0.08759      0.00000     0.40952    0.00289     0.41241
      H   29    0.08378      0.00000     0.41477    0.00145     0.41622
      H   30    0.09410      0.00000     0.40486    0.00105     0.40590
      H   31    0.09569      0.00000     0.40319    0.00112     0.40431
      H   32    0.08572      0.00000     0.41322    0.00105     0.41428
      H   33    0.11898      0.00000     0.37934    0.00168     0.38102
      H   34    0.20161      0.00000     0.29570    0.00270     0.29839
      H   35    0.11997      0.00000     0.37651    0.00352     0.38003
      H   36    0.11569      0.00000     0.38333    0.00097     0.38431
      H   37    0.11439      0.00000     0.38447    0.00114     0.38561
      H   38    0.10692      0.00000     0.39203    0.00104     0.39308
      H   39    0.09728      0.00000     0.40144    0.00127     0.40272
 =======================================================================
   * Total *   -0.00000     22.99314    53.68847    0.31840    77.00000

 Normal termination of Gaussian 16 at Sat Dec 12 12:25:58 2020.
