 Gaussian 16, Revision A.03,

 -----------------------------------------------------------
 # opt freq B3LYP/6-31G(d) empiricaldispersion=gd3bj scf=xqc
 -----------------------------------------------------------

 ------------------------------
 CID_151417358_JID_982_neutraal
 ------------------------------
 Symbolic Z-matrix:
 Charge =  0 Multiplicity = 1

 SCF Done:  E(RB3LYP) =  -473.489359027     A.U. after   17 cycles
 SCF Done:  E(RB3LYP) =  -473.495231069     A.U. after   14 cycles
 SCF Done:  E(RB3LYP) =  -473.494639356     A.U. after   14 cycles
 SCF Done:  E(RB3LYP) =  -473.497905955     A.U. after   14 cycles
 SCF Done:  E(RB3LYP) =  -473.498415118     A.U. after   14 cycles
 SCF Done:  E(RB3LYP) =  -473.498773063     A.U. after   14 cycles
 SCF Done:  E(RB3LYP) =  -473.498897386     A.U. after   12 cycles
 SCF Done:  E(RB3LYP) =  -473.498917858     A.U. after   12 cycles
 SCF Done:  E(RB3LYP) =  -473.498935648     A.U. after   11 cycles
 SCF Done:  E(RB3LYP) =  -473.498941333     A.U. after    9 cycles
 SCF Done:  E(RB3LYP) =  -473.498990671     A.U. after   12 cycles
 SCF Done:  E(RB3LYP) =  -473.498991584     A.U. after   11 cycles
 SCF Done:  E(RB3LYP) =  -473.498991443     A.U. after   10 cycles
 SCF Done:  E(RB3LYP) =  -473.498991808     A.U. after   10 cycles
 SCF Done:  E(RB3LYP) =  -473.498991820     A.U. after    7 cycles
 Optimization completed.
    -- Stationary point found.
 Normal termination of Gaussian 16 at Tue Dec  8 13:32:21 2020.

 --------------------------------------------------------------------
 #N Geom=AllCheck Guess=TCheck SCRF=Check GenChk RB3LYP/6-31G(d) Freq
 --------------------------------------------------------------------

 Structure from the checkpoint file:  "JID_982.chk"
 ------------------------------
 CID_151417358_JID_982_neutraal
 ------------------------------
 Charge =  0 Multiplicity = 1

 SCF Done:  E(RB3LYP) =  -473.498991820     A.U. after    1 cycles

  Exact polarizability: 143.450   2.100  81.110  -5.412  -0.391  50.739
 Approx polarizability: 222.764  10.815 132.094 -14.774  -1.755  74.017

                      1                      2                      3
                      A                      A                      A
 Frequencies --     33.4737                51.6407                73.4359
 Red. masses --      1.9050                 2.9822                 3.1959
 Frc consts  --      0.0013                 0.0047                 0.0102
 IR Inten    --      0.8046                 0.0262                 0.0614

                      4                      5                      6
                      A                      A                      A
 Frequencies --     98.1550               125.0527               176.7200
 Red. masses --      4.0313                 3.2001                 3.7022
 Frc consts  --      0.0229                 0.0295                 0.0681
 IR Inten    --      0.0675                 0.0298                 0.7194

                      7                      8                      9
                      A                      A                      A
 Frequencies --    217.7408               247.3714               294.9492
 Red. masses --      1.5384                 2.2567                 3.2428
 Frc consts  --      0.0430                 0.0814                 0.1662
 IR Inten    --      0.5552                 0.3360                 0.5540

                     10                     11                     12
                      A                      A                      A
 Frequencies --    323.9303               382.7056               499.5237
 Red. masses --      3.1717                 3.0238                 5.9789
 Frc consts  --      0.1961                 0.2609                 0.8790
 IR Inten    --      2.0204                 2.9926                 0.4341

                     13                     14                     15
                      A                      A                      A
 Frequencies --    531.0846               586.0329               593.7746
 Red. masses --      3.7949                13.1121                 2.8112
 Frc consts  --      0.6306                 2.6532                 0.5840
 IR Inten    --      2.1746                 8.1275                 2.7764

                     16                     17                     18
                      A                      A                      A
 Frequencies --    710.2693               721.6269               809.9778
 Red. masses --      4.4400                 5.3245                 1.3413
 Frc consts  --      1.3197                 1.6336                 0.5185
 IR Inten    --     19.1224                56.3485                 0.1797

                     19                     20                     21
                      A                      A                      A
 Frequencies --    820.8986               886.0638               911.1982
 Red. masses --      2.6253                 6.2161                 1.4648
 Frc consts  --      1.0423                 2.8754                 0.7166
 IR Inten    --     14.2920                12.3617                24.0060

                     22                     23                     24
                      A                      A                      A
 Frequencies --    973.1918              1028.7804              1039.6906
 Red. masses --      2.0128                 1.9313                 1.3516
 Frc consts  --      1.1232                 1.2043                 0.8608
 IR Inten    --      9.5763                 0.8841                 2.4996

                     25                     26                     27
                      A                      A                      A
 Frequencies --   1106.5627              1126.1059              1189.7011
 Red. masses --      1.7864                 1.6156                 3.0754
 Frc consts  --      1.2888                 1.2071                 2.5646
 IR Inten    --     33.3255                36.0091                52.5519

                     28                     29                     30
                      A                      A                      A
 Frequencies --   1260.4941              1292.0146              1304.0292
 Red. masses --      3.5064                 1.4064                 3.8823
 Frc consts  --      3.2824                 1.3832                 3.8896
 IR Inten    --     38.0534                73.9075               624.8114

                     31                     32                     33
                      A                      A                      A
 Frequencies --   1365.8556              1398.2631              1437.1720
 Red. masses --      1.5709                 1.3646                 1.2421
 Frc consts  --      1.7267                 1.5719                 1.5115
 IR Inten    --      2.5846                 4.2944                 2.4784

                     34                     35                     36
                      A                      A                      A
 Frequencies --   1440.0232              1504.3359              1510.4463
 Red. masses --      1.2310                 1.0707                 1.0573
 Frc consts  --      1.5040                 1.4276                 1.4213
 IR Inten    --      9.4535                19.6700                 1.4310

                     37                     38                     39
                      A                      A                      A
 Frequencies --   1522.6205              1530.9178              1539.0893
 Red. masses --      1.0680                 1.0431                 1.0724
 Frc consts  --      1.4588                 1.4404                 1.4966
 IR Inten    --      9.4272                 9.9952                 2.8553

                     40                     41                     42
                      A                      A                      A
 Frequencies --   1695.9842              1768.3491              2295.9125
 Red. masses --      7.3361                11.1971                13.9822
 Frc consts  --     12.4325                20.6297                43.4247
 IR Inten    --     70.0372               328.1899               572.8976

                     43                     44                     45
                      A                      A                      A
 Frequencies --   3032.1516              3056.5689              3059.1337
 Red. masses --      1.0662                 1.0360                 1.0401
 Frc consts  --      5.7753                 5.7024                 5.7349
 IR Inten    --     22.3919                16.1376                23.5952

                     46                     47                     48
                      A                      A                      A
 Frequencies --   3093.1450              3114.6652              3128.8289
 Red. masses --      1.0967                 1.0987                 1.1028
 Frc consts  --      6.1823                 6.2800                 6.3605
 IR Inten    --      9.4942                20.3750                32.9806

                     49                     50                     51
                      A                      A                      A
 Frequencies --   3130.2264              3165.9584              3196.3634
 Red. masses --      1.1032                 1.0982                 1.0888
 Frc consts  --      6.3690                 6.4852                 6.5539
 IR Inten    --     36.3817                 7.2686                 6.6203

 - Thermochemistry -
 -------------------
 Temperature   298.150 Kelvin.  Pressure   1.00000 Atm.
 Atom     1 has atomic number  6 and mass  12.00000

 Molecular mass:   139.07456 amu.
 Principal axes and moments of inertia in atomic units:
                           1         2         3
     Eigenvalues --   565.119872848.241583246.57010
           X            0.99996   0.00619   0.00680
           Y           -0.00614   0.99995  -0.00798
           Z           -0.00685   0.00793   0.99995
 This molecule is an asymmetric top.
 Rotational symmetry number  1.
 Warning -- assumption of classical behavior for rotation
           may cause significant error
 Rotational temperatures (Kelvin)      0.15327     0.03041     0.02668
 Rotational constants (GHZ):           3.19355     0.63363     0.55589
 Zero-point vibrational energy     397173.4 (Joules/Mol)
                                   94.92672 (Kcal/Mol)
 Warning -- explicit consideration of  15 degrees of freedom as
           vibrations may cause significant error
 Vibrational temperatures:     48.16    74.30   105.66   141.22   179.92
          (Kelvin)            254.26   313.28   355.91   424.37   466.06
                              550.63   718.70   764.11   843.17   854.31
                             1021.92  1038.26  1165.38  1181.09  1274.85
                             1311.01  1400.21  1480.19  1495.88  1592.10
                             1620.22  1711.71  1813.57  1858.92  1876.21
                             1965.16  2011.79  2067.77  2071.87  2164.40
                             2173.20  2190.71  2202.65  2214.41  2440.14
                             2544.26  3303.31  4362.59  4397.72  4401.41
                             4450.35  4481.31  4501.69  4503.70  4555.11
                             4598.85

 Zero-point correction=                           0.151275 (Hartree/Particle)
 Thermal correction to Energy=                    0.162276
 Thermal correction to Enthalpy=                  0.163220
 Thermal correction to Gibbs Free Energy=         0.113046
 Sum of electronic and zero-point Energies=           -473.347716
 Sum of electronic and thermal Energies=              -473.336716
 Sum of electronic and thermal Enthalpies=            -473.335772
 Sum of electronic and thermal Free Energies=         -473.385946

                     E (Thermal)             CV                S
                      KCal/Mol        Cal/Mol-Kelvin    Cal/Mol-Kelvin
 Total                  101.830             37.559            105.600
 Electronic               0.000              0.000              0.000
 Translational            0.889              2.981             40.701
 Rotational               0.889              2.981             30.037
 Vibrational            100.052             31.598             34.863
 Vibration     1          0.594              1.983              5.612
 Vibration     2          0.596              1.977              4.754
 Vibration     3          0.599              1.967              4.059
 Vibration     4          0.604              1.950              3.491
 Vibration     5          0.610              1.928              3.021
 Vibration     6          0.628              1.871              2.363
 Vibration     7          0.646              1.814              1.978
 Vibration     8          0.661              1.767              1.749
 Vibration     9          0.689              1.683              1.445
 Vibration    10          0.708              1.628              1.290
 Vibration    11          0.752              1.507              1.028
 Vibration    12          0.855              1.251              0.659
 Vibration    13          0.886              1.181              0.585
 Vibration    14          0.943              1.062              0.474
 Vibration    15          0.951              1.045              0.460

 Optimization completed.
    -- Stationary point found.
 Normal termination of Gaussian 16 at Tue Dec  8 13:37:54 2020.

 ----------------------------------------------------------------------
 # B3LYP/6-311++G(d,p) empiricaldispersion=gd3bj scf=xqc pop=npa geom=c
 heck
 ----------------------------------------------------------------------

 --------------------------------------
 CID_151417358_JID_982_Energie_neutraal
 --------------------------------------
 Structure from the checkpoint file:  "JID_982.chk"
 Charge =  0 Multiplicity = 1

 SCF Done:  E(RB3LYP) =  -473.634816711     A.U. after   16 cycles
 Normal termination of Gaussian 16 at Tue Dec  8 13:41:53 2020.

 ----------------------------------------------------------------------
 # B3LYP/6-311++G(d,p) empiricaldispersion=gd3bj scf=xqc pop=npa geom=c
 heck
 ----------------------------------------------------------------------

 ------------------------------------
 CID_151417358_JID_982_Energie_kation
 ------------------------------------
 Structure from the checkpoint file:  "JID_982.chk"
 Charge =  1 Multiplicity = 2

 SCF Done:  E(UB3LYP) =  -473.286903023     A.U. after   33 cycles
 SCF Done:  E(UB3LYP) =  -473.286903023     a.u. after    1 cycles
 Normal termination of Gaussian 16 at Tue Dec  8 13:50:31 2020.
 Gaussian 16:  ES64L-G16RevA.03 25-Dec-2016

 ----------------------------------------------------------------------
 # B3LYP/6-311++G(d,p) empiricaldispersion=gd3bj scf=xqc pop=npa geom=c
 heck
 ----------------------------------------------------------------------

 -----------------------------------
 CID_151417358_JID_982_Energie_anion
 -----------------------------------
 Structure from the checkpoint file:  "JID_982.chk"
 Charge = -1 Multiplicity = 2

                         Standard orientation:
 ---------------------------------------------------------------------
 Center     Atomic      Atomic             Coordinates (Angstroms)
 Number     Number       Type             X           Y           Z
 ---------------------------------------------------------------------
      1          6           0       -3.623525   -0.127974   -0.815238
      2          6           0       -2.817904    0.364957    0.400110
      3          6           0       -1.365982   -0.047720    0.332148
      4          6           0       -0.428033    0.912787    0.187195
      5          6           0        1.028125    0.811344    0.049685
      6          8           0        1.760693    1.781989   -0.011470
      7          7           0        1.536728   -0.535816   -0.029842
      8          7           0        2.774208   -0.603155   -0.149221
      9          7           0        3.889580   -0.770613   -0.261318
     10          6           0       -1.115347   -1.533932    0.405863
     11          1           0       -3.218070    0.290488   -1.742510
     12          1           0       -4.670768    0.179813   -0.729907
     13          1           0       -3.600773   -1.219599   -0.898674
     14          1           0       -2.896730    1.454701    0.473499
     15          1           0       -3.261648   -0.053451    1.314807
     16          1           0       -0.746253    1.951156    0.160563
     17          1           0       -1.985552   -2.045709    0.828923
     18          1           0       -0.938504   -1.949341   -0.593550
     19          1           0       -0.234859   -1.773660    1.002702
 ---------------------------------------------------------------------

 SCF Done:  E(UB3LYP) =  -473.650621259     A.U. after   28 cycles

 The electronic state is 2-A.
 Alpha  occ. eigenvalues --  -18.92130 -14.32501 -14.23208 -14.20877 -10.09757
 Alpha  occ. eigenvalues --  -10.04599 -10.04497 -10.02952 -10.02495 -10.00980
 Alpha  occ. eigenvalues --   -0.99519  -0.88059  -0.81543  -0.68447  -0.61632
 Alpha  occ. eigenvalues --   -0.56928  -0.53040  -0.48579  -0.41135  -0.36957
 Alpha  occ. eigenvalues --   -0.36194  -0.34973  -0.32521  -0.31815  -0.29669
 Alpha  occ. eigenvalues --   -0.28872  -0.27533  -0.26577  -0.24912  -0.24415
 Alpha  occ. eigenvalues --   -0.23693  -0.22260  -0.20226  -0.17422  -0.12657
 Alpha  occ. eigenvalues --   -0.11125  -0.10071   0.04332
 Alpha virt. eigenvalues --    0.07666   0.09717   0.10103   0.11062   0.11339
 Alpha virt. eigenvalues --    0.12859   0.13390   0.13592   0.14107   0.14401
 Alpha virt. eigenvalues --    0.15384   0.16490   0.17945   0.18485   0.19167

  Beta  occ. eigenvalues --  -18.91648 -14.32255 -14.22866 -14.21051 -10.09442
  Beta  occ. eigenvalues --  -10.04545 -10.04524 -10.02986 -10.02006 -10.01037
  Beta  occ. eigenvalues --   -0.99069  -0.87371  -0.81218  -0.67951  -0.61365
  Beta  occ. eigenvalues --   -0.56603  -0.52672  -0.48446  -0.40594  -0.35978
  Beta  occ. eigenvalues --   -0.35722  -0.34739  -0.32226  -0.31240  -0.29337
  Beta  occ. eigenvalues --   -0.28425  -0.27131  -0.26335  -0.24758  -0.23634
  Beta  occ. eigenvalues --   -0.22338  -0.22154  -0.20007  -0.17311  -0.11597
  Beta  occ. eigenvalues --   -0.09811  -0.09388
  Beta virt. eigenvalues --    0.07646   0.09757   0.09992   0.10902   0.11334
  Beta virt. eigenvalues --    0.11649   0.12926   0.13294   0.13599   0.14318
  Beta virt. eigenvalues --    0.15443   0.15953   0.16478   0.17978   0.18447

 Mulliken charges and spin densities:
               1          2
     1  C   -0.072529  -0.512095
     2  C   -0.801474   0.296629
     3  C    1.013155   0.264413
     4  C   -0.349779  -0.234485
     5  C   -0.326425   0.202597
     6  O   -0.424071   0.161197
     7  N   -0.595267  -0.075262
     8  N    1.023374   0.051237
     9  N   -0.410907   0.199380
    10  C   -0.644056  -0.043633
    11  H    0.107130   0.021142
    12  H   -0.209603   0.327981
    13  H    0.101031   0.028400
    14  H    0.082656   0.065044
    15  H   -0.015358   0.144081
    16  H    0.148116  -0.004094
    17  H    0.050762   0.066880
    18  H    0.182250   0.003002
    19  H    0.140995   0.037585
 Sum of Mulliken charges =  -1.00000   1.00000

 Dipole moment (field-independent basis, Debye):
    X=             -3.1155    Y=             -2.4274    Z=             -0.0675  Tot=              3.9500
 Quadrupole moment (field-independent basis, Debye-Ang):
   XX=           -113.9940   YY=            -75.9926   ZZ=            -68.0057
   XY=             -4.2151   XZ=              1.4365   YZ=              0.0520

 Summary of Natural Population Analysis:

                                       Natural Population
                Natural  -----------------------------------------------
    Atom  No    Charge         Core      Valence    Rydberg      Total
 -----------------------------------------------------------------------
      C    1   -0.27971      0.99966     2.27452    0.00552     3.27971
      C    2   -0.20323      0.99961     2.19373    0.00990     3.20323
      C    3    0.10962      0.99952     1.88052    0.01034     2.89038
      C    4   -0.17584      0.99943     2.16742    0.00899     3.17584
      C    5    0.34867      0.99964     1.62863    0.02306     2.65133
      O    6   -0.27276      0.99988     3.26594    0.00695     4.27276
      N    7   -0.24645      0.99968     2.73262    0.01415     3.74645
      N    8    0.15473      0.99971     2.32841    0.01715     3.34527
      N    9   -0.00493      0.99981     2.49207    0.01305     3.50493
      C   10   -0.31072      0.99963     2.30593    0.00517     3.31072
      H   11    0.09572      0.00000     0.40343    0.00085     0.40428
      H   12    0.09288      0.00000     0.40552    0.00161     0.40712
      H   13    0.09373      0.00000     0.40546    0.00081     0.40627
      H   14    0.09480      0.00000     0.40410    0.00110     0.40520
      H   15    0.09541      0.00000     0.40311    0.00148     0.40459
      H   16    0.09518      0.00000     0.40354    0.00127     0.40482
      H   17    0.09041      0.00000     0.40869    0.00090     0.40959
      H   18    0.10725      0.00000     0.39167    0.00107     0.39275
      H   19    0.11524      0.00000     0.38350    0.00127     0.38476
 =======================================================================
   * Total *   -0.00000      9.99657    26.87880    0.12463    37.00000

 Normal termination of Gaussian 16 at Tue Dec  8 13:55:18 2020.
