 Gaussian 16, Revision A.03,

 -----------------------------------------------------------
 # opt freq B3LYP/6-31G(d) empiricaldispersion=gd3bj scf=xqc
 -----------------------------------------------------------

 ------------------------------
 CID_80505352_JID_5518_neutraal
 ------------------------------
 Symbolic Z-matrix:
 Charge =  0 Multiplicity = 1

 SCF Done:  E(RB3LYP) =  -994.306396176     A.U. after   16 cycles
 SCF Done:  E(RB3LYP) =  -994.311475736     A.U. after   13 cycles
 SCF Done:  E(RB3LYP) =  -994.312339490     A.U. after   13 cycles
 SCF Done:  E(RB3LYP) =  -994.312692017     A.U. after   13 cycles
 SCF Done:  E(RB3LYP) =  -994.313257962     A.U. after   13 cycles
 SCF Done:  E(RB3LYP) =  -994.313249147     A.U. after   15 cycles
 SCF Done:  E(RB3LYP) =  -994.314186315     A.U. after   12 cycles
 SCF Done:  E(RB3LYP) =  -994.314654202     A.U. after   12 cycles
 SCF Done:  E(RB3LYP) =  -994.314726643     A.U. after   12 cycles
 SCF Done:  E(RB3LYP) =  -994.314760134     A.U. after   10 cycles
 SCF Done:  E(RB3LYP) =  -994.314797112     A.U. after   11 cycles
 SCF Done:  E(RB3LYP) =  -994.314799672     A.U. after    9 cycles
 SCF Done:  E(RB3LYP) =  -994.314801991     A.U. after    8 cycles
 SCF Done:  E(RB3LYP) =  -994.314802950     A.U. after    8 cycles
 SCF Done:  E(RB3LYP) =  -994.314803100     A.U. after    7 cycles
 Optimization completed.
    -- Stationary point found.
 Normal termination of Gaussian 16 at Thu Dec 10 16:31:30 2020.

 --------------------------------------------------------------------
 #N Geom=AllCheck Guess=TCheck SCRF=Check GenChk RB3LYP/6-31G(d) Freq
 --------------------------------------------------------------------

 Structure from the checkpoint file:  "JID_5518.chk"
 ------------------------------
 CID_80505352_JID_5518_neutraal
 ------------------------------
 Charge =  0 Multiplicity = 1

 SCF Done:  E(RB3LYP) =  -994.314803100     A.U. after    1 cycles

  Exact polarizability: 198.773  15.719 132.379 -13.155   7.893 125.812
 Approx polarizability: 237.853  27.280 221.033 -24.238  31.492 213.460

                      1                      2                      3
                      A                      A                      A
 Frequencies --     19.9355                34.6065                43.2094
 Red. masses --      4.2396                 4.2655                 3.6786
 Frc consts  --      0.0010                 0.0030                 0.0040
 IR Inten    --      0.0319                 1.6052                 1.3985

                      4                      5                      6
                      A                      A                      A
 Frequencies --     55.3925                64.2599                85.3698
 Red. masses --      3.8644                 3.6984                 3.1964
 Frc consts  --      0.0070                 0.0090                 0.0137
 IR Inten    --      1.2577                 0.8252                 0.6666

                      7                      8                      9
                      A                      A                      A
 Frequencies --    110.8602               136.8220               149.3612
 Red. masses --      3.3350                 1.3857                 1.7078
 Frc consts  --      0.0241                 0.0153                 0.0224
 IR Inten    --      1.4872                 0.4817                 1.7441

                     10                     11                     12
                      A                      A                      A
 Frequencies --    185.5938               203.3145               252.6048
 Red. masses --      2.9056                 1.8488                 1.6133
 Frc consts  --      0.0590                 0.0450                 0.0607
 IR Inten    --      1.8269                 2.4008                 1.5262

                     13                     14                     15
                      A                      A                      A
 Frequencies --    266.5484               302.1352               318.1424
 Red. masses --      2.8804                 2.0298                 2.1160
 Frc consts  --      0.1206                 0.1092                 0.1262
 IR Inten    --      1.4517                 3.9459                 5.3071

                     16                     17                     18
                      A                      A                      A
 Frequencies --    339.0960               359.2513               372.6340
 Red. masses --      3.1266                 2.7206                 2.2650
 Frc consts  --      0.2118                 0.2069                 0.1853
 IR Inten    --      0.5881                 0.3227                11.6524

                     19                     20                     21
                      A                      A                      A
 Frequencies --    399.9312               444.2406               449.9865
 Red. masses --      1.8724                 1.8814                 1.8794
 Frc consts  --      0.1764                 0.2188                 0.2242
 IR Inten    --      3.9436                78.0532                21.4221

                     22                     23                     24
                      A                      A                      A
 Frequencies --    516.1680               540.5095               562.2207
 Red. masses --      2.2345                 4.5672                 4.8187
 Frc consts  --      0.3508                 0.7862                 0.8974
 IR Inten    --      7.3177                10.1997                 1.3256

                     25                     26                     27
                      A                      A                      A
 Frequencies --    581.1301               619.1328               623.7778
 Red. masses --      3.7059                 5.7136                 8.2642
 Frc consts  --      0.7374                 1.2904                 1.8946
 IR Inten    --      3.5303                18.2069                 9.8455

                     28                     29                     30
                      A                      A                      A
 Frequencies --    707.5427               729.6887               751.6291
 Red. masses --      1.2931                 1.6550                 2.9836
 Frc consts  --      0.3814                 0.5192                 0.9931
 IR Inten    --     24.1279                 0.3842                 4.5016

                     31                     32                     33
                      A                      A                      A
 Frequencies --    775.7080               802.9026               816.6898
 Red. masses --      2.7420                 2.3883                 2.6044
 Frc consts  --      0.9721                 0.9071                 1.0234
 IR Inten    --      8.0632                 2.2964                 0.8290

                     34                     35                     36
                      A                      A                      A
 Frequencies --    858.9448               881.4731               920.8682
 Red. masses --      1.6902                 2.0682                 1.6705
 Frc consts  --      0.7347                 0.9468                 0.8346
 IR Inten    --      6.7861                 0.6660                 2.7743

                     37                     38                     39
                      A                      A                      A
 Frequencies --    957.7613               983.2023              1000.1454
 Red. masses --      1.9751                 1.6473                 1.7847
 Frc consts  --      1.0675                 0.9382                 1.0518
 IR Inten    --      1.1753                 2.4420                 7.7115

                     40                     41                     42
                      A                      A                      A
 Frequencies --   1011.8055              1032.3107              1063.8689
 Red. masses --      1.6845                 1.9833                 1.5293
 Frc consts  --      1.0161                 1.2452                 1.0198
 IR Inten    --      5.2058                 1.2994                 3.2439

                     43                     44                     45
                      A                      A                      A
 Frequencies --   1070.0616              1077.2520              1085.6554
 Red. masses --      1.3981                 1.5439                 2.4282
 Frc consts  --      0.9432                 1.0556                 1.6862
 IR Inten    --      0.9383                 1.5734                 3.2744

                     46                     47                     48
                      A                      A                      A
 Frequencies --   1119.3137              1134.0077              1148.9559
 Red. masses --      2.3629                 2.9852                 2.0698
 Frc consts  --      1.7442                 2.2618                 1.6099
 IR Inten    --      0.8828                31.2610                 1.2896

                     49                     50                     51
                      A                      A                      A
 Frequencies --   1163.5978              1190.1974              1213.5435
 Red. masses --      2.6059                 3.5609                 1.4765
 Frc consts  --      2.0788                 2.9720                 1.2811
 IR Inten    --      8.9534                39.2883                 4.4485

                     52                     53                     54
                      A                      A                      A
 Frequencies --   1214.7555              1247.1394              1269.3593
 Red. masses --      1.4753                 2.2747                 1.3531
 Frc consts  --      1.2826                 2.0845                 1.2846
 IR Inten    --      8.5497                48.7979                 5.0394

                     55                     56                     57
                      A                      A                      A
 Frequencies --   1294.5654              1318.4492              1335.0950
 Red. masses --      1.3511                 1.2157                 1.1535
 Frc consts  --      1.3340                 1.2451                 1.2114
 IR Inten    --     29.3109                26.1677                 7.8056

                     58                     59                     60
                      A                      A                      A
 Frequencies --   1354.1412              1377.7975              1386.5323
 Red. masses --      1.0940                 1.3750                 1.5172
 Frc consts  --      1.1819                 1.5379                 1.7185
 IR Inten    --      7.4628                27.8831                 1.3977

                     61                     62                     63
                      A                      A                      A
 Frequencies --   1396.4897              1408.9130              1417.4118
 Red. masses --      1.3429                 1.4503                 1.3487
 Frc consts  --      1.5430                 1.6961                 1.5965
 IR Inten    --     10.2119                 2.7351                 7.2428

                     64                     65                     66
                      A                      A                      A
 Frequencies --   1426.4327              1428.9989              1435.4903
 Red. masses --      1.4359                 1.3935                 1.2699
 Frc consts  --      1.7214                 1.6765                 1.5418
 IR Inten    --      1.1811                 8.9493                 0.4812

                     67                     68                     69
                      A                      A                      A
 Frequencies --   1443.8818              1500.9035              1505.5399
 Red. masses --      1.2723                 1.1186                 1.0452
 Frc consts  --      1.5628                 1.4847                 1.3958
 IR Inten    --      5.5286                27.2721                 9.2969

                     70                     71                     72
                      A                      A                      A
 Frequencies --   1506.8969              1508.1746              1517.1746
 Red. masses --      1.1533                 1.1026                 1.0820
 Frc consts  --      1.5430                 1.4777                 1.4675
 IR Inten    --      9.0049                16.2248                 8.1198

                     73                     74                     75
                      A                      A                      A
 Frequencies --   1520.3426              1525.7585              1529.4561
 Red. masses --      1.0959                 1.0806                 1.2584
 Frc consts  --      1.4924                 1.4822                 1.7344
 IR Inten    --      4.8381                 7.0428                 7.4883

                     76                     77                     78
                      A                      A                      A
 Frequencies --   1534.1520              1535.4473              1538.2823
 Red. masses --      1.1390                 1.1415                 1.0689
 Frc consts  --      1.5795                 1.5856                 1.4902
 IR Inten    --     24.8676                17.0592                 1.7697

                     79                     80                     81
                      A                      A                      A
 Frequencies --   1545.3621              1577.6790              1596.6741
 Red. masses --      1.0874                 4.9249                 5.5950
 Frc consts  --      1.5301                 7.2225                 8.4039
 IR Inten    --      1.3906               226.5309               216.9748

                     82                     83                     84
                      A                      A                      A
 Frequencies --   3019.5610              3029.0408              3035.1447
 Red. masses --      1.0681                 1.0636                 1.0635
 Frc consts  --      5.7379                 5.7494                 5.7721
 IR Inten    --     33.9002                20.0226                39.3496

                     85                     86                     87
                      A                      A                      A
 Frequencies --   3038.9943              3043.8235              3047.1558
 Red. masses --      1.0645                 1.0459                 1.0550
 Frc consts  --      5.7925                 5.7092                 5.7713
 IR Inten    --     10.6688                24.4683                10.4908

                     88                     89                     90
                      A                      A                      A
 Frequencies --   3053.9408              3054.4292              3058.2537
 Red. masses --      1.0680                 1.0372                 1.0974
 Frc consts  --      5.8685                 5.7011                 6.0473
 IR Inten    --     13.0918                23.8876                 5.5743

                     91                     92                     93
                      A                      A                      A
 Frequencies --   3062.9896              3071.4942              3079.4603
 Red. masses --      1.0946                 1.0976                 1.0988
 Frc consts  --      6.0508                 6.1006                 6.1393
 IR Inten    --     26.6676                68.6110               145.5115

                     94                     95                     96
                      A                      A                      A
 Frequencies --   3082.3253              3082.5082              3109.0908
 Red. masses --      1.0722                 1.0903                 1.1019
 Frc consts  --      6.0017                 6.1037                 6.2759
 IR Inten    --     47.6213                33.1652                12.5676

                     97                     98                     99
                      A                      A                      A
 Frequencies --   3109.7387              3111.1937              3116.0383
 Red. masses --      1.1016                 1.0954                 1.1019
 Frc consts  --      6.2768                 6.2473                 6.3038
 IR Inten    --     46.5836                32.5057                49.6963

                    100                    101                    102
                      A                      A                      A
 Frequencies --   3135.7483              3156.2444              3618.7905
 Red. masses --      1.1044                 1.1006                 1.0765
 Frc consts  --      6.3984                 6.4599                 8.3057
 IR Inten    --     15.6387                 4.1083                26.8304

 - Thermochemistry -
 -------------------
 Temperature   298.150 Kelvin.  Pressure   1.00000 Atm.
 Atom     1 has atomic number  6 and mass  12.00000

 Molecular mass:   227.14562 amu.
 Principal axes and moments of inertia in atomic units:
                           1         2         3
     Eigenvalues --  1219.15123********************
           X            1.00000  -0.00129  -0.00260
           Y            0.00103   0.99521  -0.09773
           Z            0.00271   0.09772   0.99521
 This molecule is an asymmetric top.
 Rotational symmetry number  1.
 Warning -- assumption of classical behavior for rotation
           may cause significant error
 Rotational temperatures (Kelvin)      0.07104     0.00813     0.00799
 Rotational constants (GHZ):           1.48033     0.16930     0.16654
 Zero-point vibrational energy     836468.6 (Joules/Mol)
                                  199.92078 (Kcal/Mol)
 Warning -- explicit consideration of  26 degrees of freedom as
           vibrations may cause significant error
 Vibrational temperatures:     28.68    49.79    62.17    79.70    92.46
          (Kelvin)            122.83   159.50   196.86   214.90   267.03
                              292.52   363.44   383.50   434.71   457.74
                              487.88   516.88   536.14   575.41   639.16
                              647.43   742.65   777.67   808.91   836.12
                              890.79   897.48  1018.00  1049.86  1081.43
                             1116.07  1155.20  1175.03  1235.83  1268.24
                             1324.92  1378.00  1414.61  1438.99  1455.76
                             1485.26  1530.67  1539.58  1549.93  1562.02
                             1610.44  1631.58  1653.09  1674.16  1712.43
                             1746.02  1747.76  1794.36  1826.32  1862.59
                             1896.95  1920.90  1948.31  1982.34  1994.91
                             2009.24  2027.11  2039.34  2052.32  2056.01
                             2065.35  2077.42  2159.47  2166.14  2168.09
                             2169.93  2182.88  2187.43  2195.23  2200.55
                             2207.30  2209.17  2213.25  2223.43  2269.93
                             2297.26  4344.47  4358.11  4366.90  4372.43
                             4379.38  4384.18  4393.94  4394.64  4400.14
                             4406.96  4419.20  4430.66  4434.78  4435.04
                             4473.29  4474.22  4476.31  4483.28  4511.64
                             4541.13  5206.63

 Zero-point correction=                           0.318594 (Hartree/Particle)
 Thermal correction to Energy=                    0.335658
 Thermal correction to Enthalpy=                  0.336602
 Thermal correction to Gibbs Free Energy=         0.271455
 Sum of electronic and zero-point Energies=           -993.996209
 Sum of electronic and thermal Energies=              -993.979145
 Sum of electronic and thermal Enthalpies=            -993.978201
 Sum of electronic and thermal Free Energies=         -994.043348

                     E (Thermal)             CV                S
                      KCal/Mol        Cal/Mol-Kelvin    Cal/Mol-Kelvin
 Total                  210.628             62.782            137.113
 Electronic               0.000              0.000              0.000
 Translational            0.889              2.981             42.164
 Rotational               0.889              2.981             33.310
 Vibrational            208.851             56.820             61.640
 Vibration     1          0.593              1.986              6.641
 Vibration     2          0.594              1.983              5.546
 Vibration     3          0.595              1.980              5.106
 Vibration     4          0.596              1.975              4.615
 Vibration     5          0.597              1.971              4.322
 Vibration     6          0.601              1.959              3.763
 Vibration     7          0.607              1.940              3.254
 Vibration     8          0.614              1.917              2.848
 Vibration     9          0.618              1.903              2.680
 Vibration    10          0.632              1.860              2.271
 Vibration    11          0.639              1.835              2.103
 Vibration    12          0.664              1.758              1.712
 Vibration    13          0.672              1.734              1.618
 Vibration    14          0.694              1.670              1.405
 Vibration    15          0.705              1.639              1.320
 Vibration    16          0.719              1.597              1.216
 Vibration    17          0.734              1.556              1.125
 Vibration    18          0.744              1.528              1.069
 Vibration    19          0.766              1.470              0.963
 Vibration    20          0.804              1.374              0.813
 Vibration    21          0.809              1.361              0.796
 Vibration    22          0.871              1.214              0.619
 Vibration    23          0.896              1.160              0.564
 Vibration    24          0.918              1.113              0.519
 Vibration    25          0.938              1.072              0.483
 Vibration    26          0.979              0.991              0.418

                           ! Non-Optimized Parameters !
 Normal termination of Gaussian 16 at Thu Dec 10 16:41:26 2020.

 ----------------------------------------------------------------------
 # B3LYP/6-311++G(d,p) empiricaldispersion=gd3bj scf=xqc pop=npa geom=c
 heck
 ----------------------------------------------------------------------

 --------------------------------------
 CID_80505352_JID_5518_Energie_neutraal
 --------------------------------------
 Structure from the checkpoint file:  "JID_5518.chk"
 Charge =  0 Multiplicity = 1

 SCF Done:  E(RB3LYP) =  -994.506439880     A.U. after   16 cycles
 Normal termination of Gaussian 16 at Thu Dec 10 16:46:49 2020.

 ----------------------------------------------------------------------
 # B3LYP/6-311++G(d,p) empiricaldispersion=gd3bj scf=xqc pop=npa geom=c
 heck
 ----------------------------------------------------------------------

 ------------------------------------
 CID_80505352_JID_5518_Energie_kation
 ------------------------------------
 Structure from the checkpoint file:  "JID_5518.chk"
 Charge =  1 Multiplicity = 2

 SCF Done:  E(UB3LYP) =  -994.211879168     A.U. after   23 cycles
 Normal termination of Gaussian 16 at Thu Dec 10 16:59:13 2020.
 Gaussian 16:  ES64L-G16RevA.03 25-Dec-2016

 ----------------------------------------------------------------------
 # B3LYP/6-311++G(d,p) empiricaldispersion=gd3bj scf=xqc pop=npa geom=c
 heck
 ----------------------------------------------------------------------

 -----------------------------------
 CID_80505352_JID_5518_Energie_anion
 -----------------------------------
 Structure from the checkpoint file:  "JID_5518.chk"
 Charge = -1 Multiplicity = 2

                         Standard orientation:
 ---------------------------------------------------------------------
 Center     Atomic      Atomic             Coordinates (Angstroms)
 Number     Number       Type             X           Y           Z
 ---------------------------------------------------------------------
      1          6           0        5.953873   -1.305236   -0.072957
      2          6           0        5.007273   -0.743914    0.992177
      3          6           0        4.376676    0.605767    0.616881
      4          6           0        3.537561    0.598425   -0.671061
      5          6           0        2.383831   -0.416644   -0.685102
      6          6           0        1.376543   -0.272587    0.467220
      7          6           0        0.709282    1.104492    0.587149
      8          6           0       -0.027518    1.562268   -0.679242
      9          7           0       -1.016991    0.605563   -1.183248
     10          6           0       -2.148255    0.359662   -0.460294
     11          7           0       -2.552131    1.094497    0.544031
     12          7           0       -3.756284    0.676303    1.053258
     13          6           0       -4.256628   -0.362017    0.464964
     14         16           0       -3.247542   -0.964848   -0.868389
     15          6           0       -5.547460   -1.008709    0.846652
     16          1           0        5.425374   -1.536992   -1.004438
     17          1           0        6.433685   -2.228078    0.271298
     18          1           0        6.746514   -0.585756   -0.313222
     19          1           0        4.217822   -1.477810    1.201495
     20          1           0        5.557703   -0.619266    1.933761
     21          1           0        3.757019    0.951853    1.454362
     22          1           0        5.175948    1.351459    0.504677
     23          1           0        3.139148    1.608899   -0.831001
     24          1           0        4.188638    0.397619   -1.531239
     25          1           0        1.861716   -0.330729   -1.649181
     26          1           0        2.791973   -1.435193   -0.665431
     27          1           0        0.597326   -1.038179    0.352872
     28          1           0        1.873765   -0.501228    1.417629
     29          1           0       -0.008353    1.087676    1.413427
     30          1           0        1.456133    1.870189    0.833295
     31          1           0       -0.554561    2.498871   -0.481340
     32          1           0        0.673015    1.742514   -1.500464
     33          1           0       -0.648541   -0.178559   -1.702892
     34          1           0       -6.265453   -0.994943    0.018713
     35          1           0       -5.401759   -2.052869    1.146393
     36          1           0       -5.969678   -0.455501    1.688888
 ---------------------------------------------------------------------

 SCF Done:  E(UB3LYP) =  -994.497099855     A.U. after   33 cycles
 SCF Done:  E(UB3LYP) =  -994.497099855     a.u. after    1 cycles

 The electronic state is 2-A.
 Alpha  occ. eigenvalues --  -88.77939 -14.23705 -14.23680 -14.21980 -10.16520
 Alpha  occ. eigenvalues --  -10.13586 -10.10523 -10.10155 -10.06735 -10.06552
 Alpha  occ. eigenvalues --  -10.06543 -10.06315 -10.06191 -10.05942 -10.05888
 Alpha  occ. eigenvalues --   -7.86542  -5.82808  -5.82518  -5.82112  -0.92507
 Alpha  occ. eigenvalues --   -0.84596  -0.73037  -0.71647  -0.69798  -0.67739
 Alpha  occ. eigenvalues --   -0.64023  -0.63527  -0.60193  -0.56593  -0.52890
 Alpha  occ. eigenvalues --   -0.50988  -0.48385  -0.45067  -0.43559  -0.42506
 Alpha  occ. eigenvalues --   -0.38636  -0.37920  -0.36788  -0.36334  -0.35489
 Alpha  occ. eigenvalues --   -0.34895  -0.34062  -0.32418  -0.31290  -0.30822
 Alpha  occ. eigenvalues --   -0.30564  -0.30240  -0.29597  -0.27982  -0.27295
 Alpha  occ. eigenvalues --   -0.26301  -0.24744  -0.24266  -0.23622  -0.22111
 Alpha  occ. eigenvalues --   -0.21593  -0.20996  -0.20862  -0.19990  -0.18496
 Alpha  occ. eigenvalues --   -0.16299  -0.12249   0.04289
 Alpha virt. eigenvalues --    0.06006   0.06318   0.07076   0.07543   0.07961
 Alpha virt. eigenvalues --    0.08561   0.09389   0.09755   0.10179   0.10367
 Alpha virt. eigenvalues --    0.10832   0.10879   0.11188   0.11867   0.12324

  Beta  occ. eigenvalues --  -88.77925 -14.23658 -14.23646 -14.21973 -10.16453
  Beta  occ. eigenvalues --  -10.13502 -10.10513 -10.10156 -10.06720 -10.06550
  Beta  occ. eigenvalues --  -10.06532 -10.06303 -10.06177 -10.05909 -10.05849
  Beta  occ. eigenvalues --   -7.86528  -5.82762  -5.82514  -5.82101  -0.92444
  Beta  occ. eigenvalues --   -0.84494  -0.72951  -0.71603  -0.69714  -0.67675
  Beta  occ. eigenvalues --   -0.63972  -0.63490  -0.60140  -0.56536  -0.52823
  Beta  occ. eigenvalues --   -0.50848  -0.48314  -0.44960  -0.43471  -0.42352
  Beta  occ. eigenvalues --   -0.38580  -0.37880  -0.36727  -0.36255  -0.35411
  Beta  occ. eigenvalues --   -0.34852  -0.34011  -0.32356  -0.31178  -0.30750
  Beta  occ. eigenvalues --   -0.30475  -0.30194  -0.29522  -0.27940  -0.27261
  Beta  occ. eigenvalues --   -0.26262  -0.24698  -0.24232  -0.23595  -0.22023
  Beta  occ. eigenvalues --   -0.21561  -0.20956  -0.20801  -0.19920  -0.18414
  Beta  occ. eigenvalues --   -0.16165  -0.12149
  Beta virt. eigenvalues --    0.06058   0.06544   0.07298   0.07825   0.07889
  Beta virt. eigenvalues --    0.08246   0.08920   0.09638   0.10024   0.10349
  Beta virt. eigenvalues --    0.10485   0.10930   0.11238   0.11469   0.11977

 Mulliken charges and spin densities:
               1          2
     1  C    0.984325  -1.621609
     2  C   -0.769443   0.567489
     3  C    0.014929  -0.234529
     4  C    0.314197  -0.562630
     5  C    0.709486  -0.940997
     6  C   -0.471571   0.030669
     7  C   -0.501559   0.565249
     8  C    0.523499  -1.135442
     9  N    0.047800   0.088038
    10  C    0.279219  -0.417175
    11  N   -0.284139   0.025708
    12  N    0.141165  -0.017379
    13  C   -0.155363   0.065294
    14  S   -0.142799   0.100274
    15  C   -0.569782  -0.016799
    16  H   -0.122824   0.266633
    17  H   -0.291400   0.424772
    18  H   -0.123531   0.255807
    19  H    0.181111  -0.056787
    20  H   -0.196174   0.339912
    21  H    0.036708   0.093951
    22  H   -0.158042   0.310728
    23  H    0.037485   0.093753
    24  H   -0.144292   0.316139
    25  H   -0.226042   0.370295
    26  H   -0.417621   0.592517
    27  H    0.063170   0.106398
    28  H   -0.104215   0.257112
    29  H    0.160250  -0.001787
    30  H    0.094224   0.050527
    31  H    0.249242  -0.050356
    32  H   -0.185945   0.391309
    33  H   -0.386265   0.703613
    34  H    0.108134   0.040992
    35  H    0.151052  -0.000761
    36  H    0.155009  -0.000931
 Sum of Mulliken charges =  -1.00000   1.00000

 Dipole moment (field-independent basis, Debye):
    X=             -7.1921    Y=              1.0886    Z=              2.6402  Tot=              7.7383
 Quadrupole moment (field-independent basis, Debye-Ang):
   XX=           -203.4907   YY=           -132.1601   ZZ=           -138.3853
   XY=             17.7722   XZ=              4.1822   YZ=             -6.7579

 Summary of Natural Population Analysis:

                                       Natural Population
                Natural  -----------------------------------------------
    Atom  No    Charge         Core      Valence    Rydberg      Total
 -----------------------------------------------------------------------
      C    1   -0.28567      0.99967     2.28157    0.00443     3.28567
      C    2   -0.19257      0.99964     2.18461    0.00833     3.19257
      C    3   -0.19063      0.99963     2.18243    0.00857     3.19063
      C    4   -0.19306      0.99962     2.18452    0.00891     3.19306
      C    5   -0.19510      0.99963     2.18503    0.01044     3.19510
      C    6   -0.19510      0.99962     2.18627    0.00921     3.19510
      C    7   -0.20076      0.99962     2.19463    0.00652     3.20076
      C    8   -0.08842      0.99961     2.07662    0.01218     3.08842
      N    9   -0.31582      0.99965     2.80261    0.01356     3.81582
      C   10    0.14157      0.99961     1.83669    0.02213     2.85843
      N   11   -0.19817      0.99962     2.68362    0.01493     3.69817
      N   12   -0.14665      0.99961     2.63359    0.01345     3.64665
      C   13    0.03216      0.99964     1.95258    0.01562     2.96784
      S   14    0.15229      4.99944     2.83031    0.01796     7.84771
      C   15   -0.30562      0.99961     2.30104    0.00497     3.30562
      H   16    0.09832      0.00000     0.40044    0.00124     0.40168
      H   17    0.09807      0.00000     0.40079    0.00115     0.40193
      H   18    0.09479      0.00000     0.40385    0.00136     0.40521
      H   19    0.09394      0.00000     0.40482    0.00124     0.40606
      H   20    0.09394      0.00000     0.40505    0.00101     0.40606
      H   21    0.09406      0.00000     0.40483    0.00111     0.40594
      H   22    0.09496      0.00000     0.40403    0.00101     0.40504
      H   23    0.09408      0.00000     0.40475    0.00117     0.40592
      H   24    0.09893      0.00000     0.39990    0.00118     0.40107
      H   25    0.09913      0.00000     0.39818    0.00268     0.40087
      H   26    0.09904      0.00000     0.39966    0.00131     0.40096
      H   27    0.10011      0.00000     0.39872    0.00117     0.39989
      H   28    0.09601      0.00000     0.40285    0.00113     0.40399
      H   29    0.10696      0.00000     0.39165    0.00140     0.39304
      H   30    0.09580      0.00000     0.40321    0.00098     0.40420
      H   31    0.10286      0.00000     0.39583    0.00132     0.39714
      H   32    0.09834      0.00000     0.40064    0.00101     0.40166
      H   33    0.20191      0.00000     0.29091    0.00719     0.29809
      H   34    0.10423      0.00000     0.39475    0.00102     0.39577
      H   35    0.10398      0.00000     0.39505    0.00097     0.39602
      H   36    0.11212      0.00000     0.38663    0.00125     0.38788
 =======================================================================
   * Total *    0.00000     18.99423    42.80267    0.20310    62.00000

 Normal termination of Gaussian 16 at Thu Dec 10 17:24:41 2020.
