 Gaussian 16, Revision A.03,

 -----------------------------------------------------------
 # opt freq B3LYP/6-31G(d) empiricaldispersion=gd3bj scf=xqc
 -----------------------------------------------------------

 ------------------------------
 CID_70573914_JID_3650_neutraal
 ------------------------------
 Symbolic Z-matrix:
 Charge =  0 Multiplicity = 1

 SCF Done:  E(RB3LYP) =  -668.358072517     A.U. after   15 cycles
 SCF Done:  E(RB3LYP) =  -668.363106875     A.U. after   12 cycles
 SCF Done:  E(RB3LYP) =  -668.364963160     A.U. after   13 cycles
 SCF Done:  E(RB3LYP) =  -668.368362543     A.U. after   15 cycles
 SCF Done:  E(RB3LYP) =  -668.370214665     A.U. after   13 cycles
 SCF Done:  E(RB3LYP) =  -668.371549456     A.U. after   12 cycles
 SCF Done:  E(RB3LYP) =  -668.371760549     A.U. after   12 cycles
 SCF Done:  E(RB3LYP) =  -668.371736107     A.U. after   12 cycles
 SCF Done:  E(RB3LYP) =  -668.372044646     A.U. after   12 cycles
 SCF Done:  E(RB3LYP) =  -668.372073527     A.U. after   10 cycles
 SCF Done:  E(RB3LYP) =  -668.372102234     A.U. after   10 cycles
 SCF Done:  E(RB3LYP) =  -668.372108982     A.U. after   10 cycles
 SCF Done:  E(RB3LYP) =  -668.372109708     A.U. after    8 cycles
 SCF Done:  E(RB3LYP) =  -668.372109782     A.U. after    7 cycles
 SCF Done:  E(RB3LYP) =  -668.372109793     A.U. after    6 cycles
 Optimization completed.
    -- Stationary point found.
 Normal termination of Gaussian 16 at Mon Dec 14 13:09:36 2020.

 --------------------------------------------------------------------
 #N Geom=AllCheck Guess=TCheck SCRF=Check GenChk RB3LYP/6-31G(d) Freq
 --------------------------------------------------------------------

 Structure from the checkpoint file:  "JID_3650.chk"
 ------------------------------
 CID_70573914_JID_3650_neutraal
 ------------------------------
 Charge =  0 Multiplicity = 1

 SCF Done:  E(RB3LYP) =  -668.372109793     A.U. after    1 cycles

  Exact polarizability: 116.412   5.078  89.649   0.417   0.659  88.755
 Approx polarizability: 142.967  12.390 133.929   3.027   3.824 138.173

                      1                      2                      3
                      A                      A                      A
 Frequencies --     42.0579                53.6890                76.6608
 Red. masses --      4.4509                 4.0357                 5.4966
 Frc consts  --      0.0046                 0.0069                 0.0190
 IR Inten    --      0.9849                 1.1203                 0.6470

                      4                      5                      6
                      A                      A                      A
 Frequencies --     91.0689               115.4833               129.3700
 Red. masses --      4.6181                 5.4594                 1.2381
 Frc consts  --      0.0226                 0.0429                 0.0122
 IR Inten    --      2.3282                 1.5958                 0.6808

                      7                      8                      9
                      A                      A                      A
 Frequencies --    154.1721               168.9579               229.8930
 Red. masses --      2.9655                 2.7928                 1.3958
 Frc consts  --      0.0415                 0.0470                 0.0435
 IR Inten    --      1.5751                 1.1295                 3.6590

                     10                     11                     12
                      A                      A                      A
 Frequencies --    257.6310               273.7448               294.5788
 Red. masses --      3.1386                 2.2410                 2.0971
 Frc consts  --      0.1227                 0.0989                 0.1072
 IR Inten    --      1.0640                 0.4934                 2.0789

                     13                     14                     15
                      A                      A                      A
 Frequencies --    338.1611               352.8867               410.7542
 Red. masses --      4.4063                 3.3108                 6.9064
 Frc consts  --      0.2969                 0.2429                 0.6865
 IR Inten    --      2.3551                 7.8851                14.5147

                     16                     17                     18
                      A                      A                      A
 Frequencies --    437.7453               462.5244               521.2587
 Red. masses --      4.2955                 3.0802                 6.1968
 Frc consts  --      0.4850                 0.3882                 0.9920
 IR Inten    --     11.3945                 6.6677                21.2027

                     19                     20                     21
                      A                      A                      A
 Frequencies --    584.9277               599.7874               643.2957
 Red. masses --      2.7725                 1.4332                 3.7224
 Frc consts  --      0.5589                 0.3038                 0.9076
 IR Inten    --     59.5164                64.1741                 7.9945

                     22                     23                     24
                      A                      A                      A
 Frequencies --    744.1283               759.5797               777.2824
 Red. masses --      3.3067                 5.2075                 8.8267
 Frc consts  --      1.0788                 1.7702                 3.1420
 IR Inten    --     12.9436                34.1130                29.9997

                     25                     26                     27
                      A                      A                      A
 Frequencies --    787.2131               806.4672               866.5587
 Red. masses --      1.1160                 1.2897                 2.4543
 Frc consts  --      0.4075                 0.4942                 1.0859
 IR Inten    --      0.5183                 1.5055                 0.5951

                     28                     29                     30
                      A                      A                      A
 Frequencies --    894.2131               943.5655               958.6977
 Red. masses --      2.3705                 6.8678                 2.8708
 Frc consts  --      1.1168                 3.6025                 1.5546
 IR Inten    --      4.9359                 4.2188                18.5011

                     31                     32                     33
                      A                      A                      A
 Frequencies --    983.5947              1022.2180              1072.7619
 Red. masses --      1.2826                 2.2255                 1.4995
 Frc consts  --      0.7311                 1.3701                 1.0167
 IR Inten    --      2.8018                15.8577                85.4429

                     34                     35                     36
                      A                      A                      A
 Frequencies --   1085.5030              1098.9508              1134.8756
 Red. masses --      2.6320                 1.3564                 2.0376
 Frc consts  --      1.8272                 0.9652                 1.5462
 IR Inten    --     12.4093                 4.2796                91.8832

                     37                     38                     39
                      A                      A                      A
 Frequencies --   1140.6445              1164.4714              1200.4648
 Red. masses --      2.0078                 1.4469                 2.0022
 Frc consts  --      1.5391                 1.1560                 1.7000
 IR Inten    --    200.9553                49.5285                84.2765

                     40                     41                     42
                      A                      A                      A
 Frequencies --   1209.5497              1210.2294              1229.9995
 Red. masses --      1.3807                 2.0219                 3.6529
 Frc consts  --      1.1902                 1.7448                 3.2561
 IR Inten    --      7.7372                63.1789               174.2703

                     43                     44                     45
                      A                      A                      A
 Frequencies --   1274.7234              1345.8484              1350.5667
 Red. masses --      2.1953                 1.1145                 3.5991
 Frc consts  --      2.1017                 1.1894                 3.8679
 IR Inten    --     20.8957                 7.3572               146.9756

                     46                     47                     48
                      A                      A                      A
 Frequencies --   1390.2898              1416.5737              1429.1427
 Red. masses --      2.6322                 1.7880                 2.0963
 Frc consts  --      2.9976                 2.1139                 2.5227
 IR Inten    --    211.8636                17.5278                86.8454

                     49                     50                     51
                      A                      A                      A
 Frequencies --   1446.1463              1481.0236              1485.3957
 Red. masses --      1.4228                 1.1089                 1.2446
 Frc consts  --      1.7532                 1.4330                 1.6180
 IR Inten    --     14.9912                 4.1348                37.6322

                     52                     53                     54
                      A                      A                      A
 Frequencies --   1514.7835              1517.9135              1519.3816
 Red. masses --      1.0581                 1.0700                 1.0963
 Frc consts  --      1.4305                 1.4525                 1.4911
 IR Inten    --     18.6098                10.9381                 7.6572

                     55                     56                     57
                      A                      A                      A
 Frequencies --   1522.4297              1539.4010              1550.3256
 Red. masses --      1.2979                 1.0572                 1.0858
 Frc consts  --      1.7724                 1.4761                 1.5376
 IR Inten    --      5.2936                 6.4764                47.6628

                     58                     59                     60
                      A                      A                      A
 Frequencies --   1802.0514              1836.9211              3059.7079
 Red. masses --     11.2993                 9.9984                 1.0364
 Frc consts  --     21.6190                19.8775                 5.7166
 IR Inten    --    293.6717               265.8982                19.4217

                     61                     62                     63
                      A                      A                      A
 Frequencies --   3065.4093              3094.6360              3124.5823
 Red. masses --      1.0384                 1.0595                 1.1018
 Frc consts  --      5.7491                 5.9780                 6.3379
 IR Inten    --     34.1733                28.9372                27.0726

                     64                     65                     66
                      A                      A                      A
 Frequencies --   3133.5679              3140.9717              3159.6686
 Red. masses --      1.1012                 1.1034                 1.1073
 Frc consts  --      6.3711                 6.4136                 6.5131
 IR Inten    --     19.5187                 8.1861                28.5128

                     67                     68                     69
                      A                      A                      A
 Frequencies --   3166.0095              3182.8036              3185.7656
 Red. masses --      1.0541                 1.1014                 1.0552
 Frc consts  --      6.2255                 6.5736                 6.3097
 IR Inten    --      6.5795                11.9171                 2.9780

                     70                     71                     72
                      A                      A                      A
 Frequencies --   3253.6693              3275.7104              3697.2517
 Red. masses --      1.1197                 1.1184                 1.0643
 Frc consts  --      6.9840                 7.0706                 8.5717
 IR Inten    --      2.1334                 3.1972                62.0600

 - Thermochemistry -
 -------------------
 Temperature   298.150 Kelvin.  Pressure   1.00000 Atm.
 Atom     1 has atomic number  6 and mass  12.00000

 Molecular mass:   187.08446 amu.
 Principal axes and moments of inertia in atomic units:
                           1         2         3
     Eigenvalues --  1198.685933709.542143806.36422
           X            0.99993   0.00785  -0.00841
           Y           -0.00749   0.99911   0.04152
           Z            0.00873  -0.04146   0.99910
 This molecule is an asymmetric top.
 Rotational symmetry number  1.
 Warning -- assumption of classical behavior for rotation
           may cause significant error
 Rotational temperatures (Kelvin)      0.07226     0.02335     0.02276
 Rotational constants (GHZ):           1.50560     0.48651     0.47414
 Zero-point vibrational energy     563993.1 (Joules/Mol)
                                  134.79759 (Kcal/Mol)
 Warning -- explicit consideration of  20 degrees of freedom as
           vibrations may cause significant error
 Vibrational temperatures:     60.51    77.25   110.30   131.03   166.15
          (Kelvin)            186.13   221.82   243.09   330.76   370.67
                              393.86   423.83   486.54   507.73   590.98
                              629.82   665.47   749.97   841.58   862.96
                              925.56  1070.63  1092.87  1118.34  1132.62
                             1160.33  1246.78  1286.57  1357.58  1379.35
                             1415.17  1470.74  1543.47  1561.80  1581.15
                             1632.83  1641.13  1675.41  1727.20  1740.27
                             1741.25  1769.69  1834.04  1936.38  1943.16
                             2000.32  2038.13  2056.22  2080.68  2130.86
                             2137.15  2179.44  2183.94  2186.05  2190.44
                             2214.85  2230.57  2592.75  2642.92  4402.24
                             4410.44  4452.49  4495.58  4508.51  4519.16
                             4546.06  4555.18  4579.34  4583.61  4681.30
                             4713.02  5319.52

 Zero-point correction=                           0.214814 (Hartree/Particle)
 Thermal correction to Energy=                    0.228609
 Thermal correction to Enthalpy=                  0.229553
 Thermal correction to Gibbs Free Energy=         0.173760
 Sum of electronic and zero-point Energies=           -668.157296
 Sum of electronic and thermal Energies=              -668.143501
 Sum of electronic and thermal Enthalpies=            -668.142557
 Sum of electronic and thermal Free Energies=         -668.198350

                     E (Thermal)             CV                S
                      KCal/Mol        Cal/Mol-Kelvin    Cal/Mol-Kelvin
 Total                  143.454             49.963            117.426
 Electronic               0.000              0.000              0.000
 Translational            0.889              2.981             41.585
 Rotational               0.889              2.981             31.204
 Vibrational            141.677             44.002             44.636
 Vibration     1          0.595              1.980              5.160
 Vibration     2          0.596              1.976              4.677
 Vibration     3          0.599              1.965              3.975
 Vibration     4          0.602              1.956              3.637
 Vibration     5          0.608              1.937              3.175
 Vibration     6          0.612              1.924              2.955
 Vibration     7          0.620              1.898              2.620
 Vibration     8          0.625              1.881              2.447
 Vibration     9          0.652              1.795              1.880
 Vibration    10          0.667              1.750              1.678
 Vibration    11          0.676              1.722              1.572
 Vibration    12          0.689              1.684              1.448
 Vibration    13          0.718              1.599              1.221
 Vibration    14          0.729              1.569              1.153
 Vibration    15          0.775              1.447              0.924
 Vibration    16          0.798              1.388              0.834
 Vibration    17          0.820              1.333              0.759
 Vibration    18          0.876              1.203              0.607
 Vibration    19          0.942              1.064              0.476
 Vibration    20          0.958              1.032              0.450

 Optimization completed.
    -- Stationary point found.
 Normal termination of Gaussian 16 at Mon Dec 14 13:15:32 2020.

 ----------------------------------------------------------------------
 # B3LYP/6-311++G(d,p) empiricaldispersion=gd3bj scf=xqc pop=npa geom=c
 heck
 ----------------------------------------------------------------------

 --------------------------------------
 CID_70573914_JID_3650_Energie_neutraal
 --------------------------------------
 Structure from the checkpoint file:  "JID_3650.chk"
 Charge =  0 Multiplicity = 1

 SCF Done:  E(RB3LYP) =  -668.576533214     A.U. after   14 cycles
 Normal termination of Gaussian 16 at Mon Dec 14 13:17:31 2020.

 ----------------------------------------------------------------------
 # B3LYP/6-311++G(d,p) empiricaldispersion=gd3bj scf=xqc pop=npa geom=c
 heck
 ----------------------------------------------------------------------

 ------------------------------------
 CID_70573914_JID_3650_Energie_kation
 ------------------------------------
 Structure from the checkpoint file:  "JID_3650.chk"
 Charge =  1 Multiplicity = 2

 SCF Done:  E(UB3LYP) =  -668.248347208     A.U. after   24 cycles
 Normal termination of Gaussian 16 at Mon Dec 14 13:22:00 2020.
 Gaussian 16:  ES64L-G16RevA.03 25-Dec-2016

 ----------------------------------------------------------------------
 # B3LYP/6-311++G(d,p) empiricaldispersion=gd3bj scf=xqc pop=npa geom=c
 heck
 ----------------------------------------------------------------------

 -----------------------------------
 CID_70573914_JID_3650_Energie_anion
 -----------------------------------
 Structure from the checkpoint file:  "JID_3650.chk"
 Charge = -1 Multiplicity = 2

                         Standard orientation:
 ---------------------------------------------------------------------
 Center     Atomic      Atomic             Coordinates (Angstroms)
 Number     Number       Type             X           Y           Z
 ---------------------------------------------------------------------
      1          6           0        4.001034   -0.625616   -0.528347
      2          6           0        3.253637    0.663755   -0.229422
      3          8           0        2.077743    0.417184    0.570674
      4          6           0        0.984321    0.004742   -0.116467
      5          8           0        0.946469   -0.139544   -1.325404
      6          7           0       -0.065551   -0.264756    0.738682
      7          6           0       -0.054258    0.225387    2.117546
      8          6           0       -1.343722   -0.442813    0.116961
      9          6           0       -1.565992   -1.692861   -0.710073
     10          6           0       -2.218968   -1.583412    0.626703
     11          6           0       -1.996777    0.833141   -0.307235
     12          8           0       -1.530628    1.937432   -0.127498
     13          8           0       -3.196112    0.636815   -0.913897
     14          1           0        4.259619   -1.148038    0.398655
     15          1           0        4.927654   -0.404401   -1.070279
     16          1           0        3.386427   -1.282845   -1.148935
     17          1           0        3.852704    1.344559    0.380159
     18          1           0        2.952660    1.168837   -1.149943
     19          1           0       -0.243655    1.303714    2.160851
     20          1           0       -0.837437   -0.297526    2.671905
     21          1           0        0.910075    0.008940    2.575307
     22          1           0       -2.173847   -1.585417   -1.600798
     23          1           0       -0.695653   -2.329489   -0.814422
     24          1           0       -1.804876   -2.157983    1.449361
     25          1           0       -3.286925   -1.401457    0.674510
     26          1           0       -3.523322    1.525365   -1.146143
 ---------------------------------------------------------------------

 SCF Done:  E(UB3LYP) =  -668.561304463     A.U. after   33 cycles
 SCF Done:  E(UB3LYP) =  -668.561304463     a.u. after    1 cycles

 The electronic state is 2-A.
 Alpha  occ. eigenvalues --  -19.07075 -19.06421 -19.01687 -18.99624 -14.24940
 Alpha  occ. eigenvalues --  -10.21812 -10.21046 -10.13867 -10.13111 -10.09796
 Alpha  occ. eigenvalues --  -10.09270 -10.09023 -10.06931  -1.01393  -1.00955
 Alpha  occ. eigenvalues --   -0.92467  -0.91760  -0.85891  -0.76786  -0.67378
 Alpha  occ. eigenvalues --   -0.61255  -0.59505  -0.56409  -0.52320  -0.50522
 Alpha  occ. eigenvalues --   -0.45372  -0.43837  -0.41925  -0.40297  -0.39107
 Alpha  occ. eigenvalues --   -0.38217  -0.36858  -0.35918  -0.35181  -0.34061
 Alpha  occ. eigenvalues --   -0.33379  -0.31255  -0.30639  -0.30088  -0.29114
 Alpha  occ. eigenvalues --   -0.28455  -0.27942  -0.24842  -0.24236  -0.23114
 Alpha  occ. eigenvalues --   -0.21039  -0.20455  -0.18949  -0.18411  -0.15692
 Alpha  occ. eigenvalues --    0.04441
 Alpha virt. eigenvalues --    0.05954   0.06847   0.08060   0.08674   0.09047
 Alpha virt. eigenvalues --    0.09242   0.09825   0.10510   0.11316   0.11879
 Alpha virt. eigenvalues --    0.12505   0.12890   0.13460   0.13752   0.14457

  Beta  occ. eigenvalues --  -19.07018 -19.06419 -19.01672 -18.99615 -14.24941
  Beta  occ. eigenvalues --  -10.21802 -10.21044 -10.13860 -10.13097 -10.09768
  Beta  occ. eigenvalues --  -10.09237 -10.09013 -10.06901  -1.01345  -1.00924
  Beta  occ. eigenvalues --   -0.92415  -0.91744  -0.85881  -0.76768  -0.67346
  Beta  occ. eigenvalues --   -0.61211  -0.59453  -0.56348  -0.52261  -0.50456
  Beta  occ. eigenvalues --   -0.45326  -0.43802  -0.41877  -0.40257  -0.39074
  Beta  occ. eigenvalues --   -0.38180  -0.36827  -0.35890  -0.35153  -0.34031
  Beta  occ. eigenvalues --   -0.33349  -0.31209  -0.30607  -0.30056  -0.29071
  Beta  occ. eigenvalues --   -0.28427  -0.27914  -0.24819  -0.24210  -0.23068
  Beta  occ. eigenvalues --   -0.21018  -0.20436  -0.18905  -0.18389  -0.15676
  Beta virt. eigenvalues --    0.06664   0.07364   0.08086   0.08402   0.08854
  Beta virt. eigenvalues --    0.09440   0.09759   0.10235   0.10940   0.11683
  Beta virt. eigenvalues --    0.12033   0.13025   0.13175   0.13526   0.13863

 Mulliken charges and spin densities:
               1          2
     1  C    0.484356  -0.828635
     2  C   -0.123244   0.008789
     3  O   -0.082951   0.046944
     4  C   -0.253032   0.016315
     5  O   -0.263396   0.003683
     6  N   -0.034741   0.113318
     7  C    0.631034  -0.955794
     8  C   -2.379638   1.756387
     9  C    0.707531  -0.825821
    10  C    1.807470  -1.949606
    11  C    0.811614  -0.626173
    12  O   -0.280827   0.003385
    13  O   -0.200289   0.058167
    14  H   -0.085351   0.221515
    15  H   -0.376198   0.517456
    16  H   -0.009967   0.177840
    17  H   -0.317580   0.486675
    18  H    0.234153  -0.060638
    19  H    0.135718   0.048477
    20  H   -0.482884   0.619556
    21  H   -0.151279   0.345433
    22  H    0.046207   0.147022
    23  H    0.124355   0.056702
    24  H   -0.188898   0.359900
    25  H   -0.269940   0.472447
    26  H   -0.482222   0.786655
 Sum of Mulliken charges =  -1.00000   1.00000

 Dipole moment (field-independent basis, Debye):
    X=              1.3529    Y=             -0.9612    Z=             -0.5557  Tot=              1.7501
 Quadrupole moment (field-independent basis, Debye-Ang):
   XX=           -158.3801   YY=           -110.0122   ZZ=           -114.2194
   XY=              5.6246   XZ=             -3.8179   YZ=              5.6133

 Summary of Natural Population Analysis:

                                       Natural Population
                Natural  -----------------------------------------------
    Atom  No    Charge         Core      Valence    Rydberg      Total
 -----------------------------------------------------------------------
      C    1   -0.30044      0.99966     2.29604    0.00474     3.30044
      C    2   -0.01369      0.99958     2.00207    0.01204     3.01369
      O    3   -0.28725      0.99986     3.27891    0.00848     4.28725
      C    4    0.47554      0.99966     1.49894    0.02586     2.52446
      O    5   -0.33027      0.99987     3.32564    0.00475     4.33027
      N    6   -0.26429      0.99961     2.75195    0.01273     3.76429
      C    7   -0.17664      0.99963     2.16888    0.00814     3.17664
      C    8    0.00893      0.99948     1.97440    0.01718     2.99107
      C    9   -0.17316      0.99959     2.16515    0.00842     3.17316
      C   10   -0.18419      0.99960     2.17503    0.00956     3.18419
      C   11    0.40686      0.99961     1.56889    0.02464     2.59314
      O   12   -0.30523      0.99987     3.29954    0.00582     4.30523
      O   13   -0.34752      0.99988     3.34062    0.00702     4.34752
      H   14    0.10090      0.00000     0.39781    0.00129     0.39910
      H   15    0.10141      0.00000     0.39728    0.00130     0.39859
      H   16    0.10609      0.00000     0.39287    0.00104     0.39391
      H   17    0.08971      0.00000     0.40902    0.00127     0.41029
      H   18    0.09509      0.00000     0.40379    0.00112     0.40491
      H   19    0.09894      0.00000     0.39994    0.00111     0.40106
      H   20    0.09765      0.00000     0.40092    0.00143     0.40235
      H   21    0.10737      0.00000     0.39112    0.00151     0.39263
      H   22    0.11250      0.00000     0.38635    0.00116     0.38750
      H   23    0.11182      0.00000     0.38706    0.00112     0.38818
      H   24    0.10980      0.00000     0.38860    0.00161     0.39020
      H   25    0.11375      0.00000     0.38448    0.00177     0.38625
      H   26    0.24634      0.00000     0.23634    0.01732     0.25366
 =======================================================================
   * Total *   -0.00000     12.99590    36.82168    0.18243    50.00000

 Normal termination of Gaussian 16 at Mon Dec 14 13:28:14 2020.
