 Gaussian 16, Revision A.03,

 -----------------------------------------------------------
 # opt freq B3LYP/6-31G(d) empiricaldispersion=gd3bj scf=xqc
 -----------------------------------------------------------

 -------------------------------
 CID_150285272_JID_3684_neutraal
 -------------------------------
 Symbolic Z-matrix:
 Charge =  0 Multiplicity = 1

 SCF Done:  E(RB3LYP) =  -608.928543900     A.U. after   15 cycles
 SCF Done:  E(RB3LYP) =  -608.931511175     A.U. after   12 cycles
 SCF Done:  E(RB3LYP) =  -608.931894849     A.U. after   13 cycles
 SCF Done:  E(RB3LYP) =  -608.931704169     A.U. after   12 cycles
 SCF Done:  E(RB3LYP) =  -608.932302310     A.U. after   12 cycles
 SCF Done:  E(RB3LYP) =  -608.932619897     A.U. after   13 cycles
 SCF Done:  E(RB3LYP) =  -608.932753969     A.U. after   13 cycles
 SCF Done:  E(RB3LYP) =  -608.932985740     A.U. after   14 cycles
 SCF Done:  E(RB3LYP) =  -608.933017407     A.U. after   14 cycles
 SCF Done:  E(RB3LYP) =  -608.932616305     A.U. after   15 cycles
 SCF Done:  E(RB3LYP) =  -608.934232699     A.U. after   11 cycles
 SCF Done:  E(RB3LYP) =  -608.934263361     A.U. after   10 cycles
 SCF Done:  E(RB3LYP) =  -608.934268769     A.U. after    9 cycles
 SCF Done:  E(RB3LYP) =  -608.934269925     A.U. after    8 cycles
 SCF Done:  E(RB3LYP) =  -608.934270360     A.U. after    8 cycles
 SCF Done:  E(RB3LYP) =  -608.934270471     A.U. after    8 cycles
 Optimization completed.
    -- Stationary point found.
 Normal termination of Gaussian 16 at Sun Dec 13 12:32:42 2020.

 --------------------------------------------------------------------
 #N Geom=AllCheck Guess=TCheck SCRF=Check GenChk RB3LYP/6-31G(d) Freq
 --------------------------------------------------------------------

 Structure from the checkpoint file:  "JID_3684.chk"
 -------------------------------
 CID_150285272_JID_3684_neutraal
 -------------------------------
 Charge =  0 Multiplicity = 1

 SCF Done:  E(RB3LYP) =  -608.934270471     A.U. after    1 cycles

  Exact polarizability: 117.797  -9.321 130.610  12.179  -4.832  68.838
 Approx polarizability: 175.445 -11.842 230.633  25.434 -12.472 102.694

                      1                      2                      3
                      A                      A                      A
 Frequencies --     47.2118                85.4346               106.8270
 Red. masses --      4.6434                 5.4081                 4.1764
 Frc consts  --      0.0061                 0.0233                 0.0281
 IR Inten    --      2.8873                 1.3641                11.6475

                      4                      5                      6
                      A                      A                      A
 Frequencies --    134.6442               140.9938               228.8581
 Red. masses --      6.0712                 7.8691                 5.0928
 Frc consts  --      0.0648                 0.0922                 0.1572
 IR Inten    --      1.0497                 4.3550                 5.9738

                      7                      8                      9
                      A                      A                      A
 Frequencies --    240.6255               257.3620               280.7307
 Red. masses --      2.1011                 1.5236                 3.8941
 Frc consts  --      0.0717                 0.0595                 0.1808
 IR Inten    --      2.6188                 0.4044                 9.9228

                     10                     11                     12
                      A                      A                      A
 Frequencies --    294.5314               338.8383               378.7767
 Red. masses --      1.1060                 4.8777                 3.9856
 Frc consts  --      0.0565                 0.3300                 0.3369
 IR Inten    --     68.6185                 5.7344                12.8564

                     13                     14                     15
                      A                      A                      A
 Frequencies --    399.4241               459.4183               498.4373
 Red. masses --      4.1487                 4.4760                 5.0705
 Frc consts  --      0.3900                 0.5566                 0.7422
 IR Inten    --      2.0493                 2.6337                 1.9564

                     16                     17                     18
                      A                      A                      A
 Frequencies --    530.1244               558.2765               578.8503
 Red. masses --      2.9635                 1.5907                 3.3912
 Frc consts  --      0.4907                 0.2921                 0.6695
 IR Inten    --     37.3330               127.4602                42.2751

                     19                     20                     21
                      A                      A                      A
 Frequencies --    599.2618               615.4562               684.2437
 Red. masses --      3.7229                 8.2939                 5.2842
 Frc consts  --      0.7877                 1.8510                 1.4576
 IR Inten    --     23.1007                 1.5380                 7.9277

                     22                     23                     24
                      A                      A                      A
 Frequencies --    782.3539               801.2947               819.8385
 Red. masses --      6.4184                 1.7188                 3.2125
 Frc consts  --      2.3146                 0.6502                 1.2722
 IR Inten    --      9.2259                41.9419                 5.0791

                     25                     26                     27
                      A                      A                      A
 Frequencies --    854.4646               878.2700               947.6680
 Red. masses --      3.4338                 2.7307                 1.8584
 Frc consts  --      1.4771                 1.2410                 0.9833
 IR Inten    --      3.3274                16.3162                 3.1160

                     28                     29                     30
                      A                      A                      A
 Frequencies --    962.4367               997.4167              1045.8109
 Red. masses --      1.4519                 1.3644                 3.8996
 Frc consts  --      0.7924                 0.7997                 2.5129
 IR Inten    --      1.0390                 0.6795                61.9009

                     31                     32                     33
                      A                      A                      A
 Frequencies --   1060.1743              1090.4199              1108.7001
 Red. masses --      1.9734                 2.5033                 2.0752
 Frc consts  --      1.3068                 1.7537                 1.5029
 IR Inten    --     44.7999                 1.8941                10.2705

                     34                     35                     36
                      A                      A                      A
 Frequencies --   1132.1545              1175.7174              1202.4165
 Red. masses --      2.5076                 2.0792                 1.7052
 Frc consts  --      1.8937                 1.6934                 1.4525
 IR Inten    --      6.5316                15.8865                10.3134

                     37                     38                     39
                      A                      A                      A
 Frequencies --   1218.3621              1277.5609              1305.5980
 Red. masses --      1.4514                 2.1635                 1.4145
 Frc consts  --      1.2694                 2.0805                 1.4206
 IR Inten    --     44.3383                 9.3214                19.5178

                     40                     41                     42
                      A                      A                      A
 Frequencies --   1315.0010              1327.3364              1336.2036
 Red. masses --      2.4619                 1.3457                 2.0324
 Frc consts  --      2.5082                 1.3969                 2.1380
 IR Inten    --      1.7651                31.2530                 7.3371

                     43                     44                     45
                      A                      A                      A
 Frequencies --   1379.7658              1429.8779              1448.2578
 Red. masses --      1.2615                 1.2466                 1.7800
 Frc consts  --      1.4150                 1.5017                 2.1996
 IR Inten    --     59.4979                 6.8438                32.0731

                     46                     47                     48
                      A                      A                      A
 Frequencies --   1463.3488              1486.6868              1505.6932
 Red. masses --      1.6134                 1.9322                 2.3546
 Frc consts  --      2.0356                 2.5161                 3.1451
 IR Inten    --     33.6238                 7.2860                 4.3669

                     49                     50                     51
                      A                      A                      A
 Frequencies --   1517.2815              1534.2920              1620.0248
 Red. masses --      1.0582                 1.0497                 5.4718
 Frc consts  --      1.4353                 1.4558                 8.4610
 IR Inten    --      8.0670                 1.9515                21.5390

                     52                     53                     54
                      A                      A                      A
 Frequencies --   1644.4590              2353.0163              2944.1319
 Red. masses --      5.9774                12.6907                 1.0831
 Frc consts  --      9.5238                41.3985                 5.5313
 IR Inten    --      3.0901                 7.5776                88.8494

                     55                     56                     57
                      A                      A                      A
 Frequencies --   3065.6311              3070.5069              3144.6574
 Red. masses --      1.0807                 1.0395                 1.1029
 Frc consts  --      5.9839                 5.7741                 6.4260
 IR Inten    --     14.5962                 9.7685                24.0719

                     58                     59                     60
                      A                      A                      A
 Frequencies --   3146.9559              3187.4454              3216.7814
 Red. masses --      1.1033                 1.0896                 1.0932
 Frc consts  --      6.4373                 6.5224                 6.6651
 IR Inten    --     11.5314                15.2704                15.1847

                     61                     62                     63
                      A                      A                      A
 Frequencies --   3252.8645              3692.1651              3745.1763
 Red. masses --      1.0930                 1.0647                 1.0664
 Frc consts  --      6.8143                 8.5511                 8.8131
 IR Inten    --      2.7980                28.8605                28.3688

 - Thermochemistry -
 -------------------
 Temperature   298.150 Kelvin.  Pressure   1.00000 Atm.
 Atom     1 has atomic number  6 and mass  12.00000

 Molecular mass:   178.07423 amu.
 Principal axes and moments of inertia in atomic units:
                           1         2         3
     Eigenvalues --  1744.946622440.518813264.64635
           X            0.99731  -0.07325   0.00165
           Y            0.07321   0.99715   0.01810
           Z           -0.00297  -0.01794   0.99983
 This molecule is an asymmetric top.
 Rotational symmetry number  1.
 Warning -- assumption of classical behavior for rotation
           may cause significant error
 Rotational temperatures (Kelvin)      0.04964     0.03549     0.02653
 Rotational constants (GHZ):           1.03427     0.73949     0.55281
 Zero-point vibrational energy     478186.5 (Joules/Mol)
                                  114.28932 (Kcal/Mol)
 Warning -- explicit consideration of  20 degrees of freedom as
           vibrations may cause significant error
 Vibrational temperatures:     67.93   122.92   153.70   193.72   202.86
          (Kelvin)            329.28   346.21   370.29   403.91   423.77
                              487.51   544.98   574.68   661.00   717.14
                              762.73   803.24   832.84   862.20   885.50
                              984.47  1125.63  1152.88  1179.56  1229.38
                             1263.63  1363.48  1384.73  1435.06  1504.69
                             1525.35  1568.87  1595.17  1628.92  1691.60
                             1730.01  1752.95  1838.13  1878.46  1891.99
                             1909.74  1922.50  1985.18  2057.28  2083.72
                             2105.43  2139.01  2166.36  2183.03  2207.50
                             2330.85  2366.01  3385.47  4235.95  4410.76
                             4417.77  4524.46  4527.77  4586.02  4628.23
                             4680.15  5312.20  5388.47

 Zero-point correction=                           0.182132 (Hartree/Particle)
 Thermal correction to Energy=                    0.194239
 Thermal correction to Enthalpy=                  0.195183
 Thermal correction to Gibbs Free Energy=         0.143915
 Sum of electronic and zero-point Energies=           -608.752139
 Sum of electronic and thermal Energies=              -608.740032
 Sum of electronic and thermal Enthalpies=            -608.739088
 Sum of electronic and thermal Free Energies=         -608.790355

                     E (Thermal)             CV                S
                      KCal/Mol        Cal/Mol-Kelvin    Cal/Mol-Kelvin
 Total                  121.887             45.687            107.902
 Electronic               0.000              0.000              0.000
 Translational            0.889              2.981             41.438
 Rotational               0.889              2.981             31.009
 Vibrational            120.109             39.725             35.455
 Vibration     1          0.595              1.979              4.931
 Vibration     2          0.601              1.959              3.762
 Vibration     3          0.606              1.944              3.326
 Vibration     4          0.613              1.919              2.879
 Vibration     5          0.615              1.912              2.790
 Vibration     6          0.652              1.797              1.888
 Vibration     7          0.658              1.778              1.798
 Vibration     8          0.667              1.750              1.680
 Vibration     9          0.680              1.709              1.529
 Vibration    10          0.689              1.684              1.448
 Vibration    11          0.719              1.598              1.218
 Vibration    12          0.749              1.515              1.044
 Vibration    13          0.765              1.471              0.965
 Vibration    14          0.817              1.340              0.768
 Vibration    15          0.854              1.253              0.662
 Vibration    16          0.885              1.183              0.587
 Vibration    17          0.914              1.122              0.527
 Vibration    18          0.935              1.077              0.487
 Vibration    19          0.957              1.033              0.451
 Vibration    20          0.975              0.999              0.424

 Optimization completed.
    -- Stationary point found.
 Normal termination of Gaussian 16 at Sun Dec 13 12:38:31 2020.

 ----------------------------------------------------------------------
 # B3LYP/6-311++G(d,p) empiricaldispersion=gd3bj scf=xqc pop=npa geom=c
 heck
 ----------------------------------------------------------------------

 ---------------------------------------
 CID_150285272_JID_3684_Energie_neutraal
 ---------------------------------------
 Structure from the checkpoint file:  "JID_3684.chk"
 Charge =  0 Multiplicity = 1

 SCF Done:  E(RB3LYP) =  -609.118661106     A.U. after   16 cycles
 Normal termination of Gaussian 16 at Sun Dec 13 12:41:03 2020.

 ----------------------------------------------------------------------
 # B3LYP/6-311++G(d,p) empiricaldispersion=gd3bj scf=xqc pop=npa geom=c
 heck
 ----------------------------------------------------------------------

 -------------------------------------
 CID_150285272_JID_3684_Energie_kation
 -------------------------------------
 Structure from the checkpoint file:  "JID_3684.chk"
 Charge =  1 Multiplicity = 2

 SCF Done:  E(UB3LYP) =  -608.773726129     A.U. after   28 cycles
 Normal termination of Gaussian 16 at Sun Dec 13 12:47:24 2020.
 Gaussian 16:  ES64L-G16RevA.03 25-Dec-2016

 ----------------------------------------------------------------------
 # B3LYP/6-311++G(d,p) empiricaldispersion=gd3bj scf=xqc pop=npa geom=c
 heck
 ----------------------------------------------------------------------

 ------------------------------------
 CID_150285272_JID_3684_Energie_anion
 ------------------------------------
 Structure from the checkpoint file:  "JID_3684.chk"
 Charge = -1 Multiplicity = 2

                         Standard orientation:
 ---------------------------------------------------------------------
 Center     Atomic      Atomic             Coordinates (Angstroms)
 Number     Number       Type             X           Y           Z
 ---------------------------------------------------------------------
      1          6           0       -1.668138    1.013188    1.586625
      2          6           0       -2.130871    0.181092    0.403348
      3          6           0       -1.133012    0.144182   -0.782307
      4          6           0        0.250104   -0.293961   -0.373714
      5          6           0        1.279810    0.632415   -0.131862
      6          7           0        2.520344    0.307788    0.269951
      7          6           0        2.782082   -0.986247    0.449500
      8          6           0        1.838976   -1.995908    0.238204
      9          6           0        0.560826   -1.642560   -0.177826
     10          6           0        1.030254    2.043156   -0.312655
     11          7           0        0.780333    3.167984   -0.466039
     12          8           0       -1.620168   -0.808370   -1.743058
     13          8           0       -2.374158   -1.141320    0.853796
     14          1           0       -0.772221    0.572732    2.034019
     15          1           0       -2.452424    1.036506    2.348350
     16          1           0       -1.442408    2.039616    1.281656
     17          1           0       -3.062123    0.619685   -0.001747
     18          1           0       -1.079210    1.144074   -1.228810
     19          1           0        3.791846   -1.227428    0.773702
     20          1           0        2.105800   -3.035694    0.398025
     21          1           0       -0.195073   -2.396356   -0.356466
     22          1           0       -2.369035   -0.398193   -2.203831
     23          1           0       -2.535464   -1.659963    0.045942
 ---------------------------------------------------------------------

 SCF Done:  E(UB3LYP) =  -609.131926477     A.U. after   29 cycles

 The electronic state is 2-A.
 Alpha  occ. eigenvalues --  -19.02394 -19.01140 -14.15639 -14.15079 -10.11453
 Alpha  occ. eigenvalues --  -10.11261 -10.06785 -10.06578 -10.05059 -10.04930
 Alpha  occ. eigenvalues --  -10.04898 -10.03956 -10.02580  -0.93482  -0.90584
 Alpha  occ. eigenvalues --   -0.80422  -0.75137  -0.68412  -0.65232  -0.63300
 Alpha  occ. eigenvalues --   -0.57124  -0.51651  -0.49974  -0.46383  -0.42570
 Alpha  occ. eigenvalues --   -0.40658  -0.39376  -0.37300  -0.34240  -0.33568
 Alpha  occ. eigenvalues --   -0.31494  -0.29566  -0.27800  -0.27400  -0.27023
 Alpha  occ. eigenvalues --   -0.26488  -0.25468  -0.23344  -0.22910  -0.21585
 Alpha  occ. eigenvalues --   -0.20606  -0.19471  -0.18356  -0.16226  -0.14993
 Alpha  occ. eigenvalues --   -0.12328  -0.12021   0.04369
 Alpha virt. eigenvalues --    0.06359   0.09130   0.09384   0.10335   0.10799
 Alpha virt. eigenvalues --    0.11660   0.11861   0.12926   0.14366   0.14629
 Alpha virt. eigenvalues --    0.15153   0.15781   0.16858   0.17451   0.17618

  Beta  occ. eigenvalues --  -19.02354 -19.01136 -14.15288 -14.14756 -10.11446
  Beta  occ. eigenvalues --  -10.11260 -10.06679 -10.06438 -10.05065 -10.04898
  Beta  occ. eigenvalues --  -10.04888 -10.03872 -10.02239  -0.93429  -0.90539
  Beta  occ. eigenvalues --   -0.79807  -0.74659  -0.68153  -0.64886  -0.62881
  Beta  occ. eigenvalues --   -0.56946  -0.50913  -0.49912  -0.46253  -0.42488
  Beta  occ. eigenvalues --   -0.40387  -0.39301  -0.37202  -0.34015  -0.33352
  Beta  occ. eigenvalues --   -0.31420  -0.29478  -0.27779  -0.27033  -0.26446
  Beta  occ. eigenvalues --   -0.25894  -0.25269  -0.23275  -0.22698  -0.21150
  Beta  occ. eigenvalues --   -0.19403  -0.19270  -0.18191  -0.16136  -0.13454
  Beta  occ. eigenvalues --   -0.11656  -0.10637
  Beta virt. eigenvalues --    0.07071   0.09100   0.09362   0.10334   0.10443
  Beta virt. eigenvalues --    0.10986   0.11698   0.11872   0.13040   0.14324
  Beta virt. eigenvalues --    0.14584   0.15114   0.15804   0.17073   0.17511

 Mulliken charges and spin densities:
               1          2
     1  C   -0.690371  -0.006451
     2  C    0.192928  -0.107627
     3  C    0.160414  -0.216552
     4  C    1.159560   0.102749
     5  C   -0.616991   0.223675
     6  N    0.004898   0.164504
     7  C    0.158946  -0.058513
     8  C   -0.626604   0.314772
     9  C   -0.000545   0.018729
    10  C   -1.208325  -0.097039
    11  N   -0.353172   0.174407
    12  O   -0.227032   0.012651
    13  O   -0.217771   0.001039
    14  H    0.180629   0.002410
    15  H    0.138535   0.003912
    16  H    0.154329  -0.009215
    17  H    0.020341   0.131958
    18  H    0.236149   0.002952
    19  H    0.142148   0.005028
    20  H    0.111525  -0.019477
    21  H    0.125586   0.001567
    22  H   -0.086544   0.346235
    23  H    0.241365   0.008285
 Sum of Mulliken charges =  -1.00000   1.00000

 Dipole moment (field-independent basis, Debye):
    X=             -3.3048    Y=             -3.6521    Z=              1.1308  Tot=              5.0535
 Quadrupole moment (field-independent basis, Debye-Ang):
   XX=           -103.0717   YY=           -109.6591   ZZ=            -92.9945
   XY=             -9.7906   XZ=             -0.0722   YZ=              2.2930

 Summary of Natural Population Analysis:

                                       Natural Population
                Natural  -----------------------------------------------
    Atom  No    Charge         Core      Valence    Rydberg      Total
 -----------------------------------------------------------------------
      C    1   -0.29767      0.99964     2.29308    0.00495     3.29767
      C    2    0.05989      0.99957     1.92441    0.01613     2.94011
      C    3    0.04357      0.99948     1.94242    0.01453     2.95643
      C    4   -0.01958      0.99947     2.00709    0.01302     3.01958
      C    5    0.08306      0.99938     1.90329    0.01428     2.91694
      N    6   -0.17668      0.99968     2.66529    0.01171     3.67668
      C    7   -0.00153      0.99960     1.98794    0.01399     3.00153
      C    8   -0.06278      0.99957     2.05481    0.00840     3.06278
      C    9   -0.06853      0.99952     2.06065    0.00836     3.06853
      C   10    0.14251      0.99964     1.83865    0.01920     2.85749
      N   11   -0.16212      0.99979     2.65132    0.01101     3.66212
      O   12   -0.37734      0.99990     3.37010    0.00735     4.37734
      O   13   -0.37476      0.99989     3.36816    0.00671     4.37476
      H   14    0.10985      0.00000     0.38937    0.00078     0.39015
      H   15    0.09639      0.00000     0.40278    0.00083     0.40361
      H   16    0.10930      0.00000     0.38996    0.00075     0.39070
      H   17    0.06877      0.00000     0.42973    0.00150     0.43123
      H   18    0.09526      0.00000     0.40245    0.00229     0.40474
      H   19    0.08030      0.00000     0.41841    0.00129     0.41970
      H   20    0.08922      0.00000     0.40969    0.00108     0.41078
      H   21    0.09907      0.00000     0.39964    0.00128     0.40093
      H   22    0.23086      0.00000     0.26373    0.00541     0.26914
      H   23    0.23293      0.00000     0.26412    0.00295     0.26707
 =======================================================================
   * Total *    0.00000     12.99512    33.83709    0.16779    47.00000

 Normal termination of Gaussian 16 at Sun Dec 13 12:53:54 2020.
