 Gaussian 16, Revision A.03,

 -----------------------------------------------------------
 # opt freq B3LYP/6-31G(d) empiricaldispersion=gd3bj scf=xqc
 -----------------------------------------------------------

 ----------------------------
 CID_741328_JID_7062_neutraal
 ----------------------------
 Symbolic Z-matrix:
 Charge =  0 Multiplicity = 1

 SCF Done:  E(RB3LYP) =  -1120.00405205     A.U. after   15 cycles
 SCF Done:  E(RB3LYP) =  -1120.01026806     A.U. after   13 cycles
 SCF Done:  E(RB3LYP) =  -1120.01360792     A.U. after   13 cycles
 SCF Done:  E(RB3LYP) =  -1119.92613522     A.U. after   15 cycles
 SCF Done:  E(RB3LYP) =  -1120.00524036     A.U. after   14 cycles
 SCF Done:  E(RB3LYP) =  -1120.01414786     A.U. after   11 cycles
 SCF Done:  E(RB3LYP) =  -1119.99043408     A.U. after   16 cycles
 SCF Done:  E(RB3LYP) =  -1120.01449835     A.U. after   13 cycles
 SCF Done:  E(RB3LYP) =  -1120.01580727     A.U. after   13 cycles
 SCF Done:  E(RB3LYP) =  -1120.01591394     A.U. after   13 cycles
 SCF Done:  E(RB3LYP) =  -1120.01969633     A.U. after   10 cycles
 SCF Done:  E(RB3LYP) =  -1120.01970528     A.U. after   11 cycles
 SCF Done:  E(RB3LYP) =  -1120.01970677     A.U. after    9 cycles
 SCF Done:  E(RB3LYP) =  -1120.01970699     A.U. after    7 cycles
 SCF Done:  E(RB3LYP) =  -1120.01970704     A.U. after    7 cycles
 Optimization completed.
    -- Stationary point found.
 Normal termination of Gaussian 16 at Fri Dec 11 12:04:51 2020.

 --------------------------------------------------------------------
 #N Geom=AllCheck Guess=TCheck SCRF=Check GenChk RB3LYP/6-31G(d) Freq
 --------------------------------------------------------------------

 Structure from the checkpoint file:  "JID_7062.chk"
 ----------------------------
 CID_741328_JID_7062_neutraal
 ----------------------------
 Charge =  0 Multiplicity = 1

 SCF Done:  E(RB3LYP) =  -1120.01970704     A.U. after    1 cycles

  Exact polarizability: 190.037 -14.077 155.202  18.453  13.361 117.715
 Approx polarizability: 265.621 -30.802 266.062  43.179  37.155 207.973

                      1                      2                      3
                      A                      A                      A
 Frequencies --     25.0604                37.5557                53.9054
 Red. masses --      5.6097                 4.6205                 4.4244
 Frc consts  --      0.0021                 0.0038                 0.0076
 IR Inten    --      1.4615                 1.3485                 0.3520

                      4                      5                      6
                      A                      A                      A
 Frequencies --     76.0465                78.9683               108.9658
 Red. masses --      4.3052                 5.1733                 5.1455
 Frc consts  --      0.0147                 0.0190                 0.0360
 IR Inten    --      7.2190                 4.0636                 3.0404

                      7                      8                      9
                      A                      A                      A
 Frequencies --    127.4374               181.1682               195.2458
 Red. masses --      3.3306                 1.9641                 1.3446
 Frc consts  --      0.0319                 0.0380                 0.0302
 IR Inten    --      0.1293                11.6697                 6.3411

                     10                     11                     12
                      A                      A                      A
 Frequencies --    206.1400               244.5662               247.9462
 Red. masses --      1.7652                 5.4093                 3.6413
 Frc consts  --      0.0442                 0.1906                 0.1319
 IR Inten    --     19.0455                 4.0619                11.0395

                     13                     14                     15
                      A                      A                      A
 Frequencies --    265.2679               322.0842               324.5342
 Red. masses --      2.0640                 5.4778                 3.2816
 Frc consts  --      0.0856                 0.3348                 0.2036
 IR Inten    --      0.7296                 2.6624                 0.6126

                     16                     17                     18
                      A                      A                      A
 Frequencies --    371.6983               409.0065               429.0989
 Red. masses --      2.7674                 4.9104                 3.1813
 Frc consts  --      0.2253                 0.4840                 0.3451
 IR Inten    --      1.0848                 4.5095                 0.2846

                     19                     20                     21
                      A                      A                      A
 Frequencies --    434.9933               465.4986               519.8713
 Red. masses --      6.5755                 4.1949                 7.1450
 Frc consts  --      0.7331                 0.5356                 1.1377
 IR Inten    --      8.4925                 5.0220                 6.1212

                     22                     23                     24
                      A                      A                      A
 Frequencies --    547.8274               553.9821               648.7807
 Red. masses --      3.0005                 3.6662                 4.6714
 Frc consts  --      0.5306                 0.6629                 1.1585
 IR Inten    --      2.7576                12.5536                28.9788

                     25                     26                     27
                      A                      A                      A
 Frequencies --    654.9635               656.8836               702.2443
 Red. masses --      6.0267                 4.4219                10.3016
 Frc consts  --      1.5232                 1.1242                 2.9932
 IR Inten    --      4.8409                 5.7964                 1.0980

                     28                     29                     30
                      A                      A                      A
 Frequencies --    711.7943               738.0628               749.3691
 Red. masses --      8.2085                 3.9182                 4.1261
 Frc consts  --      2.4503                 1.2575                 1.3652
 IR Inten    --      1.3825                 5.1382                 6.4527

                     31                     32                     33
                      A                      A                      A
 Frequencies --    827.5294               830.4998               839.5729
 Red. masses --      1.1892                 1.3366                 1.3591
 Frc consts  --      0.4798                 0.5432                 0.5644
 IR Inten    --      1.1421                10.0941                10.1905

                     34                     35                     36
                      A                      A                      A
 Frequencies --    849.3488               860.1898               914.1191
 Red. masses --      3.7891                 1.6310                 1.7377
 Frc consts  --      1.6105                 0.7110                 0.8555
 IR Inten    --      4.2649                33.8620                 5.5114

                     37                     38                     39
                      A                      A                      A
 Frequencies --    921.8615               944.7037               953.9496
 Red. masses --      2.3717                 1.3035                 6.8784
 Frc consts  --      1.1875                 0.6854                 3.6880
 IR Inten    --      6.8501                 0.5391                 8.1559

                     40                     41                     42
                      A                      A                      A
 Frequencies --    979.4472              1012.9841              1034.0768
 Red. masses --      1.3119                 1.6713                 2.7726
 Frc consts  --      0.7415                 1.0104                 1.7468
 IR Inten    --      0.7301                74.2844                 0.4428

                     43                     44                     45
                      A                      A                      A
 Frequencies --   1046.0923              1073.8815              1129.3510
 Red. masses --      3.6448                 4.1267                 1.9896
 Frc consts  --      2.3500                 2.8039                 1.4951
 IR Inten    --     19.6161                52.4960                36.8553

                     46                     47                     48
                      A                      A                      A
 Frequencies --   1140.7843              1169.1195              1180.8883
 Red. masses --      1.3409                 3.2981                 1.1269
 Frc consts  --      1.0282                 2.6560                 0.9259
 IR Inten    --      9.2923                17.2814                 0.7961

                     49                     50                     51
                      A                      A                      A
 Frequencies --   1204.8849              1213.5216              1223.0850
 Red. masses --      1.6273                 1.1724                 1.9656
 Frc consts  --      1.3919                 1.0172                 1.7324
 IR Inten    --      6.6467                43.4165                13.5577

                     52                     53                     54
                      A                      A                      A
 Frequencies --   1246.0007              1280.7648              1292.9065
 Red. masses --      2.3626                 1.4988                 2.6544
 Frc consts  --      2.1611                 1.4486                 2.6143
 IR Inten    --      3.2504                73.3023               245.8697

                     55                     56                     57
                      A                      A                      A
 Frequencies --   1315.1034              1331.2587              1351.4660
 Red. masses --      4.9847                 1.4763                 1.3646
 Frc consts  --      5.0794                 1.5416                 1.4685
 IR Inten    --      2.6967                29.8887                32.2778

                     58                     59                     60
                      A                      A                      A
 Frequencies --   1372.4690              1381.9607              1421.0357
 Red. masses --      2.9506                 1.3383                 6.5795
 Frc consts  --      3.2747                 1.5059                 7.8280
 IR Inten    --     55.9190                 4.2544                 0.8425

                     61                     62                     63
                      A                      A                      A
 Frequencies --   1422.2934              1444.5575              1470.8080
 Red. masses --      1.3068                 1.2943                 4.8729
 Frc consts  --      1.5575                 1.5914                 6.2109
 IR Inten    --      0.0327                23.5667                 4.8245

                     64                     65                     66
                      A                      A                      A
 Frequencies --   1472.7679              1503.5233              1516.7428
 Red. masses --      3.6246                 1.1282                 1.0435
 Frc consts  --      4.6322                 1.5027                 1.4144
 IR Inten    --      5.3724                 4.6457                 5.2167

                     67                     68                     69
                      A                      A                      A
 Frequencies --   1528.5676              1531.6130              1546.9038
 Red. masses --      4.6980                 1.0514                 1.1167
 Frc consts  --      6.4675                 1.4531                 1.5743
 IR Inten    --     27.5920                 2.0025                 8.4616

                     70                     71                     72
                      A                      A                      A
 Frequencies --   1565.2764              1629.3834              1673.5985
 Red. masses --      2.4320                 6.3541                 5.7951
 Frc consts  --      3.5108                 9.9391                 9.5634
 IR Inten    --    132.4792                11.7099                90.1480

                     73                     74                     75
                      A                      A                      A
 Frequencies --   1726.3660              3049.8297              3063.1232
 Red. masses --      1.0974                 1.0681                 1.0361
 Frc consts  --      1.9270                 5.8533                 5.7275
 IR Inten    --     12.6117                37.3121                14.6923

                     76                     77                     78
                      A                      A                      A
 Frequencies --   3091.7004              3117.5056              3133.1417
 Red. masses --      1.0593                 1.0984                 1.1010
 Frc consts  --      5.9657                 6.2893                 6.3678
 IR Inten    --     15.4406                10.1625                30.4568

                     79                     80                     81
                      A                      A                      A
 Frequencies --   3146.7775              3152.0141              3183.1688
 Red. masses --      1.1036                 1.1080                 1.0895
 Frc consts  --      6.4384                 6.4858                 6.5042
 IR Inten    --     40.2150                 2.2998                10.3967

                     82                     83                     84
                      A                      A                      A
 Frequencies --   3201.1617              3223.2821              3232.3753
 Red. masses --      1.0893                 1.0937                 1.0910
 Frc consts  --      6.5769                 6.6949                 6.7163
 IR Inten    --      3.5496                 2.6619                11.9013

                     85                     86                     87
                      A                      A                      A
 Frequencies --   3295.1110              3459.9235              3549.5009
 Red. masses --      1.0992                 1.0483                 1.0946
 Frc consts  --      7.0317                 7.3940                 8.1251
 IR Inten    --      0.0464                19.7408                24.0995

 - Thermochemistry -
 -------------------
 Temperature   298.150 Kelvin.  Pressure   1.00000 Atm.
 Atom     1 has atomic number  6 and mass  12.00000

 Molecular mass:   250.08883 amu.
 Principal axes and moments of inertia in atomic units:
                           1         2         3
     Eigenvalues --  2155.681046894.939177821.89814
           X            0.99998  -0.00043   0.00571
           Y            0.00050   0.99994  -0.01135
           Z           -0.00570   0.01135   0.99992
 This molecule is an asymmetric top.
 Rotational symmetry number  1.
 Warning -- assumption of classical behavior for rotation
           may cause significant error
 Rotational temperatures (Kelvin)      0.04018     0.01256     0.01107
 Rotational constants (GHZ):           0.83720     0.26175     0.23073
 Zero-point vibrational energy     654135.1 (Joules/Mol)
                                  156.34203 (Kcal/Mol)
 Warning -- explicit consideration of  23 degrees of freedom as
           vibrations may cause significant error
 Vibrational temperatures:     36.06    54.03    77.56   109.41   113.62
          (Kelvin)            156.78   183.35   260.66   280.92   296.59
                              351.88   356.74   381.66   463.41   466.93
                              534.79   588.47   617.38   625.86   669.75
                              747.98   788.20   797.06   933.45   942.35
                              945.11  1010.37  1024.11  1061.91  1078.18
                             1190.63  1194.90  1207.96  1222.02  1237.62
                             1315.21  1326.35  1359.22  1372.52  1409.21
                             1457.46  1487.81  1505.09  1545.08  1624.88
                             1641.33  1682.10  1699.03  1733.56  1745.99
                             1759.75  1792.72  1842.73  1860.20  1892.14
                             1915.38  1944.46  1974.68  1988.33  2044.55
                             2046.36  2078.40  2116.16  2118.98  2163.23
                             2182.25  2199.27  2203.65  2225.65  2252.08
                             2344.32  2407.93  2483.86  4388.02  4407.15
                             4448.27  4485.40  4507.89  4527.51  4535.05
                             4579.87  4605.76  4637.58  4650.67  4740.93
                             4978.06  5106.94

 Zero-point correction=                           0.249147 (Hartree/Particle)
 Thermal correction to Energy=                    0.265272
 Thermal correction to Enthalpy=                  0.266216
 Thermal correction to Gibbs Free Energy=         0.203920
 Sum of electronic and zero-point Energies=          -1119.770560
 Sum of electronic and thermal Energies=             -1119.754435
 Sum of electronic and thermal Enthalpies=           -1119.753491
 Sum of electronic and thermal Free Energies=        -1119.815787

                     E (Thermal)             CV                S
                      KCal/Mol        Cal/Mol-Kelvin    Cal/Mol-Kelvin
 Total                  166.461             60.368            131.112
 Electronic               0.000              0.000              0.000
 Translational            0.889              2.981             42.450
 Rotational               0.889              2.981             33.119
 Vibrational            164.683             54.406             55.543
 Vibration     1          0.593              1.985              6.186
 Vibration     2          0.594              1.982              5.384
 Vibration     3          0.596              1.976              4.669
 Vibration     4          0.599              1.965              3.990
 Vibration     5          0.600              1.963              3.916
 Vibration     6          0.606              1.942              3.287
 Vibration     7          0.611              1.926              2.984
 Vibration     8          0.630              1.865              2.316
 Vibration     9          0.636              1.846              2.177
 Vibration    10          0.641              1.831              2.078
 Vibration    11          0.660              1.772              1.769
 Vibration    12          0.662              1.766              1.745
 Vibration    13          0.671              1.737              1.627
 Vibration    14          0.707              1.631              1.299
 Vibration    15          0.709              1.626              1.287
 Vibration    16          0.743              1.530              1.073
 Vibration    17          0.773              1.451              0.930
 Vibration    18          0.790              1.407              0.862
 Vibration    19          0.796              1.394              0.842
 Vibration    20          0.823              1.327              0.750
 Vibration    21          0.875              1.206              0.610
 Vibration    22          0.903              1.144              0.549
 Vibration    23          0.909              1.131              0.536

 Optimization completed.
    -- Stationary point found.
 Normal termination of Gaussian 16 at Fri Dec 11 12:16:46 2020.

 ----------------------------------------------------------------------
 # B3LYP/6-311++G(d,p) empiricaldispersion=gd3bj scf=xqc pop=npa geom=c
 heck
 ----------------------------------------------------------------------

 ------------------------------------
 CID_741328_JID_7062_Energie_neutraal
 ------------------------------------
 Structure from the checkpoint file:  "JID_7062.chk"
 Charge =  0 Multiplicity = 1

 SCF Done:  E(RB3LYP) =  -1120.24505281     A.U. after   15 cycles
 Normal termination of Gaussian 16 at Fri Dec 11 12:21:18 2020.

 ----------------------------------------------------------------------
 # B3LYP/6-311++G(d,p) empiricaldispersion=gd3bj scf=xqc pop=npa geom=c
 heck
 ----------------------------------------------------------------------

 ----------------------------------
 CID_741328_JID_7062_Energie_kation
 ----------------------------------
 Structure from the checkpoint file:  "JID_7062.chk"
 Charge =  1 Multiplicity = 2

 SCF Done:  E(UB3LYP) =  -1119.94751335     A.U. after   25 cycles
 Normal termination of Gaussian 16 at Fri Dec 11 12:32:42 2020.
 Gaussian 16:  ES64L-G16RevA.03 25-Dec-2016

 ----------------------------------------------------------------------
 # B3LYP/6-311++G(d,p) empiricaldispersion=gd3bj scf=xqc pop=npa geom=c
 heck
 ----------------------------------------------------------------------

 ---------------------------------
 CID_741328_JID_7062_Energie_anion
 ---------------------------------
 Structure from the checkpoint file:  "JID_7062.chk"
 Charge = -1 Multiplicity = 2

                         Standard orientation:
 ---------------------------------------------------------------------
 Center     Atomic      Atomic             Coordinates (Angstroms)
 Number     Number       Type             X           Y           Z
 ---------------------------------------------------------------------
      1          6           0        5.283261    0.255497   -0.039595
      2          6           0        4.358288   -0.782741    0.583169
      3          8           0        3.249048   -1.099287   -0.262912
      4          6           0        2.192238   -0.245623   -0.334080
      5          6           0        2.042209    0.922129    0.428974
      6          6           0        0.892261    1.700225    0.280367
      7          6           0       -0.118325    1.349890   -0.619589
      8          6           0        0.051525    0.183458   -1.382763
      9          6           0        1.184889   -0.605567   -1.242160
     10          6           0       -1.393802    2.129521   -0.701135
     11         16           0       -2.669778    1.557105    0.545951
     12          6           0       -2.671852   -0.152536    0.149054
     13          7           0       -3.354636   -0.750273   -0.805699
     14          7           0       -3.020078   -2.092762   -0.786595
     15          6           0       -2.153409   -2.265909    0.187052
     16          7           0       -1.894681   -1.086189    0.811153
     17          7           0       -0.950672   -0.915040    1.833921
     18          1           0        5.641300   -0.095770   -1.012090
     19          1           0        6.149862    0.423893    0.609453
     20          1           0        4.775340    1.212741   -0.189226
     21          1           0        4.880457   -1.734761    0.707794
     22          1           0        4.000743   -0.470726    1.572760
     23          1           0        2.805378    1.235178    1.130781
     24          1           0        0.779762    2.594378    0.888793
     25          1           0       -0.728975   -0.121812   -2.073773
     26          1           0        1.313358   -1.512380   -1.823515
     27          1           0       -1.250585    3.187690   -0.464457
     28          1           0       -1.858633    2.048963   -1.685685
     29          1           0       -1.686637   -3.193344    0.484158
     30          1           0       -1.384853   -0.337825    2.552484
     31          1           0       -0.175686   -0.375830    1.445377
 ---------------------------------------------------------------------

 SCF Done:  E(UB3LYP) =  -1120.24155210     A.U. after   33 cycles
 SCF Done:  E(UB3LYP) =  -1120.24155210     a.u. after    1 cycles

 The electronic state is 2-A.
 Alpha  occ. eigenvalues --  -88.74850 -19.05246 -14.30478 -14.25977 -14.22613
 Alpha  occ. eigenvalues --  -14.22325 -10.14809 -10.13312 -10.13042 -10.12993
 Alpha  occ. eigenvalues --  -10.10126 -10.07594 -10.07546 -10.07527 -10.07417
 Alpha  occ. eigenvalues --  -10.07057 -10.06923  -7.83450  -5.79854  -5.79487
 Alpha  occ. eigenvalues --   -5.78807  -0.97785  -0.96897  -0.88143  -0.76363
 Alpha  occ. eigenvalues --   -0.73305  -0.72733  -0.69309  -0.66971  -0.65090
 Alpha  occ. eigenvalues --   -0.62837  -0.57392  -0.54260  -0.52682  -0.51561
 Alpha  occ. eigenvalues --   -0.49731  -0.47891  -0.44338  -0.43796  -0.43260
 Alpha  occ. eigenvalues --   -0.39988  -0.38110  -0.37390  -0.36046  -0.35593
 Alpha  occ. eigenvalues --   -0.34774  -0.34254  -0.32920  -0.31944  -0.30959
 Alpha  occ. eigenvalues --   -0.30064  -0.28970  -0.28218  -0.27162  -0.25287
 Alpha  occ. eigenvalues --   -0.25190  -0.22715  -0.22633  -0.22006  -0.21283
 Alpha  occ. eigenvalues --   -0.19598  -0.16479  -0.16190  -0.15886  -0.14484
 Alpha  occ. eigenvalues --   -0.12212   0.04004
 Alpha virt. eigenvalues --    0.05797   0.07091   0.07492   0.07885   0.08248
 Alpha virt. eigenvalues --    0.08887   0.09255   0.09678   0.10226   0.10455
 Alpha virt. eigenvalues --    0.10971   0.11613   0.11877   0.12417   0.12583

  Beta  occ. eigenvalues --  -88.74809 -19.05234 -14.30401 -14.25972 -14.22637
  Beta  occ. eigenvalues --  -14.22254 -10.14771 -10.13290 -10.13018 -10.12841
  Beta  occ. eigenvalues --  -10.09981 -10.07574 -10.07526 -10.07486 -10.07334
  Beta  occ. eigenvalues --  -10.07058 -10.06883  -7.83405  -5.79781  -5.79441
  Beta  occ. eigenvalues --   -5.78774  -0.97700  -0.96827  -0.88075  -0.76196
  Beta  occ. eigenvalues --   -0.73175  -0.72654  -0.69122  -0.66854  -0.64988
  Beta  occ. eigenvalues --   -0.62649  -0.57190  -0.54156  -0.52609  -0.51485
  Beta  occ. eigenvalues --   -0.49640  -0.47746  -0.44247  -0.43693  -0.43179
  Beta  occ. eigenvalues --   -0.39920  -0.38009  -0.37332  -0.35961  -0.35450
  Beta  occ. eigenvalues --   -0.34591  -0.34092  -0.32846  -0.31796  -0.30762
  Beta  occ. eigenvalues --   -0.29936  -0.28794  -0.28132  -0.26947  -0.25186
  Beta  occ. eigenvalues --   -0.24973  -0.22607  -0.22591  -0.21842  -0.21155
  Beta  occ. eigenvalues --   -0.19346  -0.16216  -0.15970  -0.15774  -0.14348
  Beta  occ. eigenvalues --   -0.11780
  Beta virt. eigenvalues --    0.06585   0.07107   0.07431   0.07870   0.08060
  Beta virt. eigenvalues --    0.08609   0.09194   0.09485   0.09959   0.10366
  Beta virt. eigenvalues --    0.10838   0.11253   0.11796   0.12174   0.12597

 Mulliken charges and spin densities:
               1          2
     1  C    0.836428  -1.212070
     2  C   -0.132250  -0.076594
     3  O   -0.081015   0.007431
     4  C   -0.920861   0.390934
     5  C    1.156752  -0.903636
     6  C   -0.225957  -0.317728
     7  C    1.483244  -0.399784
     8  C   -0.500700   0.205497
     9  C   -0.889492   0.498005
    10  C   -0.943440   0.085484
    11  S    0.205707  -0.012389
    12  C   -0.670094   0.039810
    13  N    0.085711   0.024106
    14  N   -0.120503  -0.013692
    15  C   -0.023268   0.027688
    16  N    0.230074   0.062413
    17  N   -0.403633  -0.093616
    18  H    0.001340   0.141901
    19  H   -0.498810   0.640605
    20  H   -0.100917   0.236456
    21  H   -0.294668   0.474468
    22  H   -0.138872   0.267779
    23  H   -0.349331   0.564865
    24  H   -0.088528   0.226592
    25  H    0.169005   0.017665
    26  H    0.155611   0.022402
    27  H    0.200080  -0.004477
    28  H    0.226547   0.000164
    29  H    0.141097   0.023632
    30  H    0.061642   0.192068
    31  H    0.429101  -0.115979
 Sum of Mulliken charges =  -1.00000   1.00000

 Dipole moment (field-independent basis, Debye):
    X=             -3.0340    Y=              0.6361    Z=             -0.6156  Tot=              3.1605
 Quadrupole moment (field-independent basis, Debye-Ang):
   XX=           -218.9061   YY=           -132.6760   ZZ=           -133.9404
   XY=             -9.3537   XZ=            -15.9656   YZ=             -5.8371

 Summary of Natural Population Analysis:

                                       Natural Population
                Natural  -----------------------------------------------
    Atom  No    Charge         Core      Valence    Rydberg      Total
 -----------------------------------------------------------------------
      C    1   -0.30046      0.99966     2.29589    0.00491     3.30046
      C    2   -0.01171      0.99958     1.99967    0.01246     3.01171
      O    3   -0.27560      0.99986     3.26662    0.00913     4.27560
      C    4    0.18207      0.99938     1.80435    0.01420     2.81793
      C    5   -0.15801      0.99952     2.14929    0.00920     3.15801
      C    6   -0.07974      0.99953     2.06982    0.01040     3.07974
      C    7   -0.04450      0.99949     2.03368    0.01132     3.04450
      C    8   -0.09214      0.99952     2.08387    0.00874     3.09214
      C    9   -0.12399      0.99953     2.11574    0.00873     3.12399
      C   10   -0.21724      0.99954     2.20824    0.00947     3.21724
      S   11    0.11100      4.99955     2.86947    0.01998     7.88900
      C   12    0.09218      0.99954     1.88189    0.02639     2.90782
      N   13   -0.15402      0.99966     2.64016    0.01419     3.65402
      N   14   -0.16909      0.99973     2.65625    0.01310     3.66909
      C   15    0.10334      0.99963     1.88054    0.01648     2.89666
      N   16   -0.12780      0.99954     2.61444    0.01382     3.62780
      N   17   -0.31168      0.99976     2.80038    0.01155     3.81168
      H   18    0.09954      0.00000     0.39951    0.00095     0.40046
      H   19    0.10487      0.00000     0.39268    0.00245     0.39513
      H   20    0.10215      0.00000     0.39646    0.00140     0.39785
      H   21    0.09083      0.00000     0.40788    0.00130     0.40917
      H   22    0.08497      0.00000     0.41307    0.00196     0.41503
      H   23    0.10678      0.00000     0.39127    0.00195     0.39322
      H   24    0.09905      0.00000     0.39977    0.00118     0.40095
      H   25    0.10579      0.00000     0.39272    0.00150     0.39421
      H   26    0.10473      0.00000     0.39394    0.00133     0.39527
      H   27    0.10307      0.00000     0.39600    0.00093     0.39693
      H   28    0.10468      0.00000     0.39426    0.00106     0.39532
      H   29    0.09931      0.00000     0.39937    0.00133     0.40069
      H   30    0.18180      0.00000     0.31605    0.00216     0.31820
      H   31    0.18986      0.00000     0.30764    0.00250     0.31014
 =======================================================================
   * Total *    0.00000     20.99303    44.77092    0.23605    66.00000

 Normal termination of Gaussian 16 at Fri Dec 11 12:52:10 2020.
