 Gaussian 16, Revision A.03,

 -----------------------------------------------------------
 # opt freq B3LYP/6-31G(d) empiricaldispersion=gd3bj scf=xqc
 -----------------------------------------------------------

 -------------------------------
 CID_139816409_JID_2044_neutraal
 -------------------------------
 Symbolic Z-matrix:
 Charge =  0 Multiplicity = 1

 SCF Done:  E(RB3LYP) =  -646.276162541     A.U. after   14 cycles
 SCF Done:  E(RB3LYP) =  -646.284690299     A.U. after   13 cycles
 SCF Done:  E(RB3LYP) =  -646.285806294     A.U. after   13 cycles
 SCF Done:  E(RB3LYP) =  -646.286920357     A.U. after   12 cycles
 SCF Done:  E(RB3LYP) =  -646.287353916     A.U. after   12 cycles
 SCF Done:  E(RB3LYP) =  -646.287556787     A.U. after   12 cycles
 SCF Done:  E(RB3LYP) =  -646.287617115     A.U. after   11 cycles
 SCF Done:  E(RB3LYP) =  -646.287662589     A.U. after   11 cycles
 SCF Done:  E(RB3LYP) =  -646.287670957     A.U. after   10 cycles
 SCF Done:  E(RB3LYP) =  -646.287675559     A.U. after    9 cycles
 SCF Done:  E(RB3LYP) =  -646.287676293     A.U. after    8 cycles
 SCF Done:  E(RB3LYP) =  -646.287676426     A.U. after    7 cycles
 Optimization completed.
    -- Stationary point found.
 Normal termination of Gaussian 16 at Wed Dec  9 16:46:08 2020.

 --------------------------------------------------------------------
 #N Geom=AllCheck Guess=TCheck SCRF=Check GenChk RB3LYP/6-31G(d) Freq
 --------------------------------------------------------------------

 Structure from the checkpoint file:  "JID_2044.chk"
 -------------------------------
 CID_139816409_JID_2044_neutraal
 -------------------------------
 Charge =  0 Multiplicity = 1

 SCF Done:  E(RB3LYP) =  -646.287676426     A.U. after    1 cycles

  Exact polarizability:  98.991  -2.172  90.360   0.134  -3.876  72.288
 Approx polarizability: 121.422   2.542 129.731   5.849  -8.900 115.189

                      1                      2                      3
                      A                      A                      A
 Frequencies --     51.7911                66.7621                92.6711
 Red. masses --      3.8049                 6.4487                 7.2496
 Frc consts  --      0.0060                 0.0169                 0.0367
 IR Inten    --      0.2687                 0.7917                 0.9748

                      4                      5                      6
                      A                      A                      A
 Frequencies --    100.2265               116.1278               170.5818
 Red. masses --      1.8274                 4.4317                 4.8025
 Frc consts  --      0.0108                 0.0352                 0.0823
 IR Inten    --      1.2078                 2.5146                 1.9331

                      7                      8                      9
                      A                      A                      A
 Frequencies --    202.1771               209.2384               236.1923
 Red. masses --      3.7088                 3.0287                 2.4454
 Frc consts  --      0.0893                 0.0781                 0.0804
 IR Inten    --      4.5524                 6.7895                 4.0945

                     10                     11                     12
                      A                      A                      A
 Frequencies --    248.9487               262.2143               293.2878
 Red. masses --      2.2859                 1.9729                 1.8692
 Frc consts  --      0.0835                 0.0799                 0.0947
 IR Inten    --      1.0584                 8.8064                30.6997

                     13                     14                     15
                      A                      A                      A
 Frequencies --    330.8871               333.2463               386.0641
 Red. masses --      1.8115                 3.2350                 2.0144
 Frc consts  --      0.1169                 0.2117                 0.1769
 IR Inten    --     36.3313                17.2775                 7.9484

                     16                     17                     18
                      A                      A                      A
 Frequencies --    457.5144               466.5311               517.1871
 Red. masses --      3.6341                 3.7361                 3.9020
 Frc consts  --      0.4482                 0.4791                 0.6149
 IR Inten    --      6.9748                22.9401                11.1488

                     19                     20                     21
                      A                      A                      A
 Frequencies --    592.2446               673.1483               703.3730
 Red. masses --      4.4338                 1.2638                 5.1425
 Frc consts  --      0.9163                 0.3374                 1.4990
 IR Inten    --     15.0340               153.9194                29.6093

                     22                     23                     24
                      A                      A                      A
 Frequencies --    794.8120               817.7272               823.1523
 Red. masses --      2.1459                 5.3701                 1.2222
 Frc consts  --      0.7987                 2.1157                 0.4879
 IR Inten    --    157.8658                18.2571                 3.6973

                     25                     26                     27
                      A                      A                      A
 Frequencies --    837.7837               862.9715               918.2274
 Red. masses --      2.9043                 2.5850                 2.0420
 Frc consts  --      1.2010                 1.1342                 1.0144
 IR Inten    --     26.4692                55.0202                84.8757

                     28                     29                     30
                      A                      A                      A
 Frequencies --    983.7349              1030.4035              1035.3246
 Red. masses --      2.6325                 1.6821                 1.9403
 Frc consts  --      1.5010                 1.0522                 1.2254
 IR Inten    --     35.8281                27.9995               135.5389

                     31                     32                     33
                      A                      A                      A
 Frequencies --   1037.0246              1051.8238              1141.9535
 Red. masses --      1.7352                 2.6497                 1.8677
 Frc consts  --      1.0994                 1.7272                 1.4350
 IR Inten    --     46.8766                31.5735                28.8413

                     34                     35                     36
                      A                      A                      A
 Frequencies --   1169.8884              1190.1525              1202.1324
 Red. masses --      3.0804                 3.0458                 3.5239
 Frc consts  --      2.4840                 2.5419                 3.0004
 IR Inten    --    393.6282               156.9472               124.5654

                     37                     38                     39
                      A                      A                      A
 Frequencies --   1224.5356              1249.7829              1309.4388
 Red. masses --      6.0924                 2.2510                 1.2618
 Frc consts  --      5.3824                 2.0715                 1.2747
 IR Inten    --    175.6194                19.8036                 3.7505

                     40                     41                     42
                      A                      A                      A
 Frequencies --   1358.4080              1370.1455              1409.7070
 Red. masses --      1.2027                 2.1805                 1.2829
 Frc consts  --      1.3076                 2.4118                 1.5021
 IR Inten    --     14.2417                37.4567                 2.5327

                     43                     44                     45
                      A                      A                      A
 Frequencies --   1423.1831              1432.7220              1432.8608
 Red. masses --      1.2558                 1.2020                 1.1792
 Frc consts  --      1.4986                 1.4537                 1.4265
 IR Inten    --      8.4027                 1.2297                 1.8218

                     46                     47                     48
                      A                      A                      A
 Frequencies --   1444.4834              1502.2678              1512.9883
 Red. masses --      1.3217                 1.1043                 1.1265
 Frc consts  --      1.6249                 1.4684                 1.5193
 IR Inten    --     11.7823                 2.8942                12.8040

                     49                     50                     51
                      A                      A                      A
 Frequencies --   1526.5185              1531.8084              1552.8091
 Red. masses --      1.0454                 1.1413                 1.0936
 Frc consts  --      1.4353                 1.5778                 1.5537
 IR Inten    --     10.1632                 8.4852                 6.9632

                     52                     53                     54
                      A                      A                      A
 Frequencies --   1681.0934              1815.2785              1841.0847
 Red. masses --      1.1229                 9.1675                 9.5795
 Frc consts  --      1.8696                17.7986                19.1311
 IR Inten    --     66.2556               309.5942               257.8476

                     55                     56                     57
                      A                      A                      A
 Frequencies --   2957.8851              3046.4607              3055.8766
 Red. masses --      1.0743                 1.0400                 1.0909
 Frc consts  --      5.5378                 5.6870                 6.0021
 IR Inten    --     79.4806                24.6639                73.6075

                     58                     59                     60
                      A                      A                      A
 Frequencies --   3064.3656              3074.9401              3082.5130
 Red. masses --      1.0916                 1.0858                 1.0674
 Frc consts  --      6.0396                 6.0488                 5.9759
 IR Inten    --     70.1805                12.5102                21.3979

                     61                     62                     63
                      A                      A                      A
 Frequencies --   3112.1024              3136.7527              3168.6914
 Red. masses --      1.0981                 1.1033                 1.0985
 Frc consts  --      6.2661                 6.3957                 6.4986
 IR Inten    --     44.3640                27.3226                 1.1513

                     64                     65                     66
                      A                      A                      A
 Frequencies --   3524.4221              3529.7876              3624.3543
 Red. masses --      1.0737                 1.0490                 1.0947
 Frc consts  --      7.8580                 7.7003                 8.4727
 IR Inten    --      0.7904                16.3714                30.7799

 - Thermochemistry -
 -------------------
 Temperature   298.150 Kelvin.  Pressure   1.00000 Atm.
 Atom     1 has atomic number  6 and mass  12.00000

 Molecular mass:   176.07971 amu.
 Principal axes and moments of inertia in atomic units:
                           1         2         3
     Eigenvalues --  1525.062352658.548943702.13514
           X            0.99997   0.00406  -0.00625
           Y           -0.00407   0.99999  -0.00066
           Z            0.00624   0.00069   0.99998
 This molecule is an asymmetric top.
 Rotational symmetry number  1.
 Warning -- assumption of classical behavior for rotation
           may cause significant error
 Rotational temperatures (Kelvin)      0.05679     0.03258     0.02340
 Rotational constants (GHZ):           1.18339     0.67884     0.48749
 Zero-point vibrational energy     516815.4 (Joules/Mol)
                                  123.52186 (Kcal/Mol)
 Warning -- explicit consideration of  19 degrees of freedom as
           vibrations may cause significant error
 Vibrational temperatures:     74.52    96.06   133.33   144.20   167.08
          (Kelvin)            245.43   290.89   301.05   339.83   358.18
                              377.27   421.98   476.07   479.47   555.46
                              658.26   671.23   744.12   852.11   968.51
                             1012.00  1143.56  1176.53  1184.33  1205.38
                             1241.62  1321.12  1415.38  1482.52  1489.60
                             1492.05  1513.34  1643.02  1683.21  1712.36
                             1729.60  1761.83  1798.16  1883.99  1954.45
                             1971.33  2028.25  2047.64  2061.37  2061.57
                             2078.29  2161.43  2176.85  2196.32  2203.93
                             2234.15  2418.72  2611.78  2648.91  4255.74
                             4383.18  4396.72  4408.94  4424.15  4435.05
                             4477.62  4513.09  4559.04  5070.86  5078.58
                             5214.64

 Zero-point correction=                           0.196845 (Hartree/Particle)
 Thermal correction to Energy=                    0.210068
 Thermal correction to Enthalpy=                  0.211012
 Thermal correction to Gibbs Free Energy=         0.157003
 Sum of electronic and zero-point Energies=           -646.090832
 Sum of electronic and thermal Energies=              -646.077608
 Sum of electronic and thermal Enthalpies=            -646.076664
 Sum of electronic and thermal Free Energies=         -646.130674

                     E (Thermal)             CV                S
                      KCal/Mol        Cal/Mol-Kelvin    Cal/Mol-Kelvin
 Total                  131.820             47.423            113.673
 Electronic               0.000              0.000              0.000
 Translational            0.889              2.981             41.404
 Rotational               0.889              2.981             31.085
 Vibrational            130.042             41.461             41.183
 Vibration     1          0.596              1.977              4.748
 Vibration     2          0.598              1.970              4.247
 Vibration     3          0.602              1.954              3.603
 Vibration     4          0.604              1.949              3.450
 Vibration     5          0.608              1.936              3.164
 Vibration     6          0.626              1.879              2.429
 Vibration     7          0.639              1.837              2.113
 Vibration     8          0.642              1.827              2.050
 Vibration     9          0.655              1.785              1.831
 Vibration    10          0.662              1.765              1.738
 Vibration    11          0.670              1.742              1.647
 Vibration    12          0.688              1.686              1.455
 Vibration    13          0.713              1.614              1.256
 Vibration    14          0.715              1.609              1.244
 Vibration    15          0.755              1.500              1.015
 Vibration    16          0.816              1.344              0.773
 Vibration    17          0.824              1.324              0.747
 Vibration    18          0.872              1.212              0.617
 Vibration    19          0.950              1.048              0.463

 Optimization completed.
    -- Stationary point found.
 Normal termination of Gaussian 16 at Wed Dec  9 16:51:12 2020.

 ----------------------------------------------------------------------
 # B3LYP/6-311++G(d,p) empiricaldispersion=gd3bj scf=xqc pop=npa geom=c
 heck
 ----------------------------------------------------------------------

 ---------------------------------------
 CID_139816409_JID_2044_Energie_neutraal
 ---------------------------------------
 Structure from the checkpoint file:  "JID_2044.chk"
 Charge =  0 Multiplicity = 1

 SCF Done:  E(RB3LYP) =  -646.493654785     A.U. after   14 cycles
 Normal termination of Gaussian 16 at Wed Dec  9 16:52:53 2020.

 ----------------------------------------------------------------------
 # B3LYP/6-311++G(d,p) empiricaldispersion=gd3bj scf=xqc pop=npa geom=c
 heck
 ----------------------------------------------------------------------

 -------------------------------------
 CID_139816409_JID_2044_Energie_kation
 -------------------------------------
 Structure from the checkpoint file:  "JID_2044.chk"
 Charge =  1 Multiplicity = 2

 SCF Done:  E(UB3LYP) =  -646.173223917     A.U. after   22 cycles
 Normal termination of Gaussian 16 at Wed Dec  9 16:56:29 2020.
 Gaussian 16:  ES64L-G16RevA.03 25-Dec-2016

 ----------------------------------------------------------------------
 # B3LYP/6-311++G(d,p) empiricaldispersion=gd3bj scf=xqc pop=npa geom=c
 heck
 ----------------------------------------------------------------------

 ------------------------------------
 CID_139816409_JID_2044_Energie_anion
 ------------------------------------
 Structure from the checkpoint file:  "JID_2044.chk"
 Charge = -1 Multiplicity = 2

                         Standard orientation:
 ---------------------------------------------------------------------
 Center     Atomic      Atomic             Coordinates (Angstroms)
 Number     Number       Type             X           Y           Z
 ---------------------------------------------------------------------
      1          6           0       -4.072379   -0.214918    0.209978
      2          6           0       -2.632023    0.095982   -0.186219
      3          7           0       -1.804474   -1.099981   -0.057954
      4          6           0       -0.464596   -1.084038   -0.600506
      5          6           0        0.511645   -0.030735   -0.031016
      6          7           0        0.506409    0.017797    1.374831
      7          8           0        1.854107   -0.215630   -0.517728
      8          6           0        2.557564   -1.335895   -0.227997
      9          8           0        2.172050   -2.332801    0.321713
     10          8           0        0.140409    1.224772   -0.715003
     11          6           0        0.713543    2.380060   -0.343250
     12          8           0        1.509673    2.552907    0.549435
     13          1           0       -4.474059   -1.023972   -0.407666
     14          1           0       -4.707687    0.669653    0.093432
     15          1           0       -4.132777   -0.529991    1.259688
     16          1           0       -2.587725    0.410882   -1.235424
     17          1           0       -2.265535    0.956365    0.401828
     18          1           0       -1.825219   -1.480509    0.883977
     19          1           0       -0.012762   -2.059327   -0.418810
     20          1           0       -0.509927   -0.915799   -1.681876
     21          1           0        1.042885    0.810410    1.715086
     22          1           0       -0.440527    0.040895    1.736683
     23          1           0        3.578910   -1.185382   -0.609904
     24          1           0        0.328441    3.185337   -0.988423
 ---------------------------------------------------------------------

 SCF Done:  E(UB3LYP) =  -646.480171558     A.U. after   33 cycles
 SCF Done:  E(UB3LYP) =  -646.480171558     a.u. after    1 cycles

 The electronic state is 2-A.
 Alpha  occ. eigenvalues --  -19.08575 -19.07955 -19.03083 -19.02975 -14.21100
 Alpha  occ. eigenvalues --  -14.20104 -10.23189 -10.21324 -10.21305 -10.10378
 Alpha  occ. eigenvalues --  -10.08447 -10.04841  -1.04181  -1.00590  -0.95191
 Alpha  occ. eigenvalues --   -0.92995  -0.82533  -0.79611  -0.66885  -0.63411
 Alpha  occ. eigenvalues --   -0.57141  -0.55686  -0.50479  -0.47263  -0.44916
 Alpha  occ. eigenvalues --   -0.44589  -0.41148  -0.40274  -0.38821  -0.37770
 Alpha  occ. eigenvalues --   -0.36754  -0.35462  -0.34419  -0.33513  -0.32087
 Alpha  occ. eigenvalues --   -0.30151  -0.28827  -0.28725  -0.26146  -0.25741
 Alpha  occ. eigenvalues --   -0.24475  -0.23879  -0.23474  -0.20224  -0.20012
 Alpha  occ. eigenvalues --   -0.17216  -0.12745   0.04784
 Alpha virt. eigenvalues --    0.06982   0.07209   0.07631   0.07990   0.08469
 Alpha virt. eigenvalues --    0.09539   0.10210   0.11521   0.11583   0.12030
 Alpha virt. eigenvalues --    0.13161   0.13734   0.14645   0.15599   0.15989

  Beta  occ. eigenvalues --  -19.08570 -19.07957 -19.03074 -19.02916 -14.21053
  Beta  occ. eigenvalues --  -14.20083 -10.23184 -10.21291 -10.21220 -10.10371
  Beta  occ. eigenvalues --  -10.08414 -10.04792  -1.04146  -1.00540  -0.95132
  Beta  occ. eigenvalues --   -0.92965  -0.82477  -0.79553  -0.66827  -0.63336
  Beta  occ. eigenvalues --   -0.57060  -0.55607  -0.50357  -0.47196  -0.44833
  Beta  occ. eigenvalues --   -0.44522  -0.41084  -0.40218  -0.38770  -0.37705
  Beta  occ. eigenvalues --   -0.36670  -0.35389  -0.34231  -0.33448  -0.32039
  Beta  occ. eigenvalues --   -0.30095  -0.28792  -0.28684  -0.26067  -0.25695
  Beta  occ. eigenvalues --   -0.24376  -0.23855  -0.23357  -0.20192  -0.19966
  Beta  occ. eigenvalues --   -0.17168  -0.12714
  Beta virt. eigenvalues --    0.07219   0.07726   0.07832   0.08108   0.08597
  Beta virt. eigenvalues --    0.09279   0.09863   0.10857   0.11741   0.12003
  Beta virt. eigenvalues --    0.12425   0.13734   0.13899   0.15136   0.15772

 Mulliken charges and spin densities:
               1          2
     1  C    1.440790  -2.030714
     2  C   -0.044255  -0.135893
     3  N   -0.275459   0.168295
     4  C    0.034621  -0.463379
     5  C   -0.366908  -0.339019
     6  N   -0.117367  -0.054024
     7  O   -0.051441   0.013799
     8  C    0.133263   0.050593
     9  O   -0.256896   0.013138
    10  O    0.026901   0.072838
    11  C    0.774733  -0.537864
    12  O   -0.306266   0.014678
    13  H   -0.125701   0.269834
    14  H   -0.451716   0.588258
    15  H   -0.596611   0.733487
    16  H   -0.175180   0.352410
    17  H   -0.239336   0.398500
    18  H    0.232302   0.003774
    19  H    0.244496  -0.011242
    20  H   -0.039834   0.254764
    21  H    0.186474   0.089186
    22  H   -0.284472   0.552142
    23  H    0.010910   0.094514
    24  H   -0.753049   0.901925
 Sum of Mulliken charges =  -1.00000   1.00000

 Dipole moment (field-independent basis, Debye):
    X=              6.6782    Y=             -2.7284    Z=             -2.3219  Tot=              7.5785
 Quadrupole moment (field-independent basis, Debye-Ang):
   XX=           -132.4375   YY=           -117.2441   ZZ=           -104.6521
   XY=              4.3615   XZ=              2.6288   YZ=              4.0429

 Summary of Natural Population Analysis:

                                       Natural Population
                Natural  -----------------------------------------------
    Atom  No    Charge         Core      Valence    Rydberg      Total
 -----------------------------------------------------------------------
      C    1   -0.28690      0.99967     2.28145    0.00579     3.28690
      C    2   -0.08839      0.99964     2.07753    0.01122     3.08839
      N    3   -0.33931      0.99974     2.82776    0.01181     3.83931
      C    4   -0.10550      0.99954     2.09339    0.01257     3.10550
      C    5    0.36236      0.99958     1.61519    0.02287     2.63764
      N    6   -0.42716      0.99969     2.91730    0.01017     3.92716
      O    7   -0.29209      0.99985     3.28249    0.00975     4.29209
      C    8    0.34820      0.99976     1.62772    0.02432     2.65180
      O    9   -0.28384      0.99987     3.27799    0.00597     4.28384
      O   10   -0.29215      0.99986     3.28191    0.01038     4.29215
      C   11    0.34584      0.99975     1.62891    0.02550     2.65416
      O   12   -0.30307      0.99988     3.29691    0.00628     4.30307
      H   13    0.09688      0.00000     0.40175    0.00137     0.40312
      H   14    0.10187      0.00000     0.39650    0.00163     0.39813
      H   15    0.09783      0.00000     0.40002    0.00215     0.40217
      H   16    0.09232      0.00000     0.40591    0.00177     0.40768
      H   17    0.08135      0.00000     0.41449    0.00417     0.41865
      H   18    0.17641      0.00000     0.32062    0.00297     0.32359
      H   19    0.11364      0.00000     0.38513    0.00123     0.38636
      H   20    0.09924      0.00000     0.39932    0.00144     0.40076
      H   21    0.19709      0.00000     0.30103    0.00189     0.30291
      H   22    0.19216      0.00000     0.30483    0.00301     0.30784
      H   23    0.05279      0.00000     0.44550    0.00171     0.44721
      H   24    0.06042      0.00000     0.43678    0.00280     0.43958
 =======================================================================
   * Total *   -0.00000     11.99683    34.82043    0.18274    47.00000

 Normal termination of Gaussian 16 at Wed Dec  9 17:02:15 2020.
