 Gaussian 16, Revision A.03,

 -----------------------------------------------------------
 # opt freq B3LYP/6-31G(d) empiricaldispersion=gd3bj scf=xqc
 -----------------------------------------------------------

 ----------------------------
 CID_14010265_JID_51_neutraal
 ----------------------------
 Symbolic Z-matrix:
 Charge =  0 Multiplicity = 1

 SCF Done:  E(RB3LYP) =  -873.084161186     A.U. after   14 cycles
 SCF Done:  E(RB3LYP) =  -873.090549277     A.U. after   12 cycles
 SCF Done:  E(RB3LYP) =  -873.092741425     A.U. after   12 cycles
 SCF Done:  E(RB3LYP) =  -873.095126756     A.U. after   13 cycles
 SCF Done:  E(RB3LYP) =  -873.097120612     A.U. after   13 cycles
 SCF Done:  E(RB3LYP) =  -873.098938422     A.U. after   13 cycles
 SCF Done:  E(RB3LYP) =  -873.099596018     A.U. after   12 cycles
 SCF Done:  E(RB3LYP) =  -873.100037497     A.U. after   12 cycles
 SCF Done:  E(RB3LYP) =  -873.100343971     A.U. after   11 cycles
 SCF Done:  E(RB3LYP) =  -873.100413755     A.U. after   11 cycles
 SCF Done:  E(RB3LYP) =  -873.100434214     A.U. after   11 cycles
 SCF Done:  E(RB3LYP) =  -873.100450345     A.U. after   10 cycles
 SCF Done:  E(RB3LYP) =  -873.100456301     A.U. after   10 cycles
 SCF Done:  E(RB3LYP) =  -873.100456879     A.U. after    8 cycles
 SCF Done:  E(RB3LYP) =  -873.100456994     A.U. after    7 cycles
 Optimization completed.
    -- Stationary point found.
 Normal termination of Gaussian 16 at Tue Dec  8 10:17:44 2020.

 --------------------------------------------------------------------
 #N Geom=AllCheck Guess=TCheck SCRF=Check GenChk RB3LYP/6-31G(d) Freq
 --------------------------------------------------------------------

 Structure from the checkpoint file:  "JID_51.chk"
 ----------------------------
 CID_14010265_JID_51_neutraal
 ----------------------------
 Charge =  0 Multiplicity = 1

 SCF Done:  E(RB3LYP) =  -873.100456994     A.U. after    1 cycles

  Exact polarizability: 103.577   1.708  80.370   1.404   1.401  70.945
 Approx polarizability: 122.811   0.996 122.117   1.369   4.993 113.812

                      1                      2                      3
                      A                      A                      A
 Frequencies --     42.8278                74.9299               114.7633
 Red. masses --      4.3027                 2.8958                 4.3307
 Frc consts  --      0.0046                 0.0096                 0.0336
 IR Inten    --      4.6398                 2.9676                 2.4682

                      4                      5                      6
                      A                      A                      A
 Frequencies --    139.5563               178.4873               206.4263
 Red. masses --      2.9676                 1.8661                 1.8504
 Frc consts  --      0.0341                 0.0350                 0.0465
 IR Inten    --      3.5177                13.4676                11.7577

                      7                      8                      9
                      A                      A                      A
 Frequencies --    213.4026               226.8040               246.0584
 Red. masses --      1.5726                 1.8689                 1.8582
 Frc consts  --      0.0422                 0.0566                 0.0663
 IR Inten    --      2.6533                 2.0257                 2.8577

                     10                     11                     12
                      A                      A                      A
 Frequencies --    297.1324               327.6505               359.0539
 Red. masses --      1.2698                 3.1599                 2.7751
 Frc consts  --      0.0661                 0.1999                 0.2108
 IR Inten    --     69.1237                28.2901                 0.5812

                     13                     14                     15
                      A                      A                      A
 Frequencies --    382.4840               400.3454               475.2968
 Red. masses --      3.0495                 3.5274                 6.2710
 Frc consts  --      0.2628                 0.3331                 0.8347
 IR Inten    --      2.4845                12.7812                21.4614

                     16                     17                     18
                      A                      A                      A
 Frequencies --    500.7738               512.0043               576.1755
 Red. masses --      4.1537                 3.7339                 3.3567
 Frc consts  --      0.6137                 0.5767                 0.6566
 IR Inten    --     12.6019                 6.2781                20.5307

                     19                     20                     21
                      A                      A                      A
 Frequencies --    678.6861               730.7447               804.6851
 Red. masses --      6.8728                 4.2268                 1.3287
 Frc consts  --      1.8652                 1.3298                 0.5069
 IR Inten    --     70.2612               120.2662                57.3514

                     22                     23                     24
                      A                      A                      A
 Frequencies --    887.4432               932.9168               945.9490
 Red. masses --      2.6718                 1.4279                 1.8747
 Frc consts  --      1.2398                 0.7322                 0.9884
 IR Inten    --     42.7828               112.3826                23.3694

                     25                     26                     27
                      A                      A                      A
 Frequencies --    956.4241              1052.0549              1076.3133
 Red. masses --      2.9947                 2.0382                 1.5559
 Frc consts  --      1.6140                 1.3292                 1.0620
 IR Inten    --    229.2995                63.5445                11.6130

                     28                     29                     30
                      A                      A                      A
 Frequencies --   1097.8992              1119.7025              1135.6210
 Red. masses --      2.8422                 4.8514                 1.2793
 Frc consts  --      2.0185                 3.5836                 0.9720
 IR Inten    --     48.4320               102.1847                 2.6750

                     31                     32                     33
                      A                      A                      A
 Frequencies --   1138.4622              1187.8899              1214.1708
 Red. masses --      2.4148                 1.3842                 1.3156
 Frc consts  --      1.8440                 1.1508                 1.1427
 IR Inten    --     18.7538                 2.4626                 7.2634

                     34                     35                     36
                      A                      A                      A
 Frequencies --   1226.1496              1271.6549              1288.1545
 Red. masses --      3.7131                 1.6246                 1.8314
 Frc consts  --      3.2891                 1.5478                 1.7905
 IR Inten    --     24.7777                61.3258                10.0824

                     37                     38                     39
                      A                      A                      A
 Frequencies --   1311.6574              1373.4529              1395.4636
 Red. masses --      3.1550                 1.2004                 1.2445
 Frc consts  --      3.1980                 1.3341                 1.4279
 IR Inten    --    147.3187                 5.9045                10.0145

                     40                     41                     42
                      A                      A                      A
 Frequencies --   1432.0428              1456.0957              1461.4101
 Red. masses --      1.3850                 1.1792                 1.1850
 Frc consts  --      1.6734                 1.4731                 1.4912
 IR Inten    --      8.6521                21.1980                12.7446

                     43                     44                     45
                      A                      A                      A
 Frequencies --   1485.5983              1505.6277              1515.5556
 Red. masses --      1.1614                 1.0878                 1.0476
 Frc consts  --      1.5101                 1.4528                 1.4177
 IR Inten    --      2.0318                 5.2431                12.4662

                     46                     47                     48
                      A                      A                      A
 Frequencies --   1524.3240              1528.9176              1531.1695
 Red. masses --      1.0477                 1.0853                 1.0496
 Frc consts  --      1.4343                 1.4947                 1.4498
 IR Inten    --      3.3829                 2.6212                15.9387

                     49                     50                     51
                      A                      A                      A
 Frequencies --   1543.5277              1705.5720              3020.2908
 Red. masses --      1.0500                 1.0849                 1.0677
 Frc consts  --      1.4739                 1.8594                 5.7387
 IR Inten    --     10.0306                37.7790                35.3275

                     52                     53                     54
                      A                      A                      A
 Frequencies --   3026.8937              3040.2566              3081.9142
 Red. masses --      1.0494                 1.0437                 1.0805
 Frc consts  --      5.6649                 5.6840                 6.0464
 IR Inten    --     47.8996                50.8878                 9.5069

                     55                     56                     57
                      A                      A                      A
 Frequencies --   3096.4111              3115.8272              3118.4459
 Red. masses --      1.0793                 1.0911                 1.0956
 Frc consts  --      6.0967                 6.2412                 6.2774
 IR Inten    --     57.7925                17.1373                28.7209

                     58                     59                     60
                      A                      A                      A
 Frequencies --   3151.2314              3175.2293              3190.7030
 Red. masses --      1.1040                 1.1008                 1.0992
 Frc consts  --      6.4594                 6.5390                 6.5931
 IR Inten    --     10.5589                 6.2046                 2.5620

                     61                     62                     63
                      A                      A                      A
 Frequencies --   3478.8653              3489.8855              3567.3912
 Red. masses --      1.0518                 1.0736                 1.0916
 Frc consts  --      7.4999                 7.7042                 8.1850
 IR Inten    --     10.4271                33.2048                 5.0812

 - Thermochemistry -
 -------------------
 Temperature   298.150 Kelvin.  Pressure   1.00000 Atm.
 Atom     1 has atomic number  6 and mass  12.00000

 Molecular mass:   167.07285 amu.
 Principal axes and moments of inertia in atomic units:
                           1         2         3
     Eigenvalues --   816.806152330.120082553.53997
           X            0.99996   0.00049   0.00916
           Y           -0.00041   0.99995  -0.00971
           Z           -0.00916   0.00970   0.99991
 This molecule is an asymmetric top.
 Rotational symmetry number  1.
 Warning -- assumption of classical behavior for rotation
           may cause significant error
 Rotational temperatures (Kelvin)      0.10604     0.03717     0.03392
 Rotational constants (GHZ):           2.20951     0.77453     0.70676
 Zero-point vibrational energy     516445.0 (Joules/Mol)
                                  123.43331 (Kcal/Mol)
 Warning -- explicit consideration of  18 degrees of freedom as
           vibrations may cause significant error
 Vibrational temperatures:     61.62   107.81   165.12   200.79   256.80
          (Kelvin)            297.00   307.04   326.32   354.02   427.51
                              471.42   516.60   550.31   576.01   683.85
                              720.50   736.66   828.99   976.48  1051.38
                             1157.76  1276.83  1342.26  1361.01  1376.08
                             1513.67  1548.57  1579.63  1611.00  1633.91
                             1637.99  1709.11  1746.92  1764.16  1829.63
                             1853.37  1887.18  1976.09  2007.76  2060.39
                             2095.00  2102.64  2137.44  2166.26  2180.55
                             2193.16  2199.77  2203.01  2220.79  2453.94
                             4345.52  4355.02  4374.25  4434.19  4455.04
                             4482.98  4486.75  4533.92  4568.45  4590.71
                             5005.31  5021.17  5132.68

 Zero-point correction=                           0.196703 (Hartree/Particle)
 Thermal correction to Energy=                    0.208682
 Thermal correction to Enthalpy=                  0.209626
 Thermal correction to Gibbs Free Energy=         0.158875
 Sum of electronic and zero-point Energies=           -872.903753
 Sum of electronic and thermal Energies=              -872.891775
 Sum of electronic and thermal Enthalpies=            -872.890831
 Sum of electronic and thermal Free Energies=         -872.941582

                     E (Thermal)             CV                S
                      KCal/Mol        Cal/Mol-Kelvin    Cal/Mol-Kelvin
 Total                  130.950             43.412            106.815
 Electronic               0.000              0.000              0.000
 Translational            0.889              2.981             41.248
 Rotational               0.889              2.981             29.965
 Vibrational            129.173             37.450             35.603
 Vibration     1          0.595              1.980              5.124
 Vibration     2          0.599              1.966              4.019
 Vibration     3          0.608              1.937              3.187
 Vibration     4          0.615              1.914              2.810
 Vibration     5          0.629              1.869              2.344
 Vibration     6          0.641              1.831              2.075
 Vibration     7          0.644              1.821              2.014
 Vibration     8          0.650              1.800              1.904
 Vibration     9          0.661              1.769              1.759
 Vibration    10          0.691              1.679              1.433
 Vibration    11          0.711              1.620              1.272
 Vibration    12          0.734              1.557              1.126
 Vibration    13          0.752              1.508              1.029
 Vibration    14          0.766              1.469              0.961
 Vibration    15          0.832              1.305              0.723
 Vibration    16          0.856              1.248              0.656
 Vibration    17          0.867              1.223              0.629
 Vibration    18          0.933              1.083              0.492

                           ! Non-Optimized Parameters !
 Normal termination of Gaussian 16 at Tue Dec  8 10:21:36 2020.

 ----------------------------------------------------------------------
 # B3LYP/6-311++G(d,p) empiricaldispersion=gd3bj scf=xqc pop=npa geom=c
 heck
 ----------------------------------------------------------------------

 ------------------------------------
 CID_14010265_JID_51_Energie_neutraal
 ------------------------------------
 Structure from the checkpoint file:  "JID_51.chk"
 Charge =  0 Multiplicity = 1

 SCF Done:  E(RB3LYP) =  -873.279871013     A.U. after   14 cycles
 Normal termination of Gaussian 16 at Tue Dec  8 10:23:03 2020.

 ----------------------------------------------------------------------
 # B3LYP/6-311++G(d,p) empiricaldispersion=gd3bj scf=xqc pop=npa geom=c
 heck
 ----------------------------------------------------------------------

 ----------------------------------
 CID_14010265_JID_51_Energie_kation
 ----------------------------------
 Structure from the checkpoint file:  "JID_51.chk"
 Charge =  1 Multiplicity = 2

 SCF Done:  E(UB3LYP) =  -872.955017647     A.U. after   23 cycles
 Normal termination of Gaussian 16 at Tue Dec  8 10:26:06 2020.
 Gaussian 16:  ES64L-G16RevA.03 25-Dec-2016

 ----------------------------------------------------------------------
 # B3LYP/6-311++G(d,p) empiricaldispersion=gd3bj scf=xqc pop=npa geom=c
 heck
 ----------------------------------------------------------------------

 ---------------------------------
 CID_14010265_JID_51_Energie_anion
 ---------------------------------
 Structure from the checkpoint file:  "JID_51.chk"
 Charge = -1 Multiplicity = 2

                         Standard orientation:
 ---------------------------------------------------------------------
 Center     Atomic      Atomic             Coordinates (Angstroms)
 Number     Number       Type             X           Y           Z
 ---------------------------------------------------------------------
      1          6           0       -2.742911   -1.139771   -0.230087
      2          7           0       -1.800432   -0.054955   -0.534832
      3          6           0       -2.418160    1.276902   -0.554810
      4         16           0       -0.368969   -0.121150    0.353720
      5          8           0       -0.429682    0.645561    1.602078
      6          8           0        0.012727   -1.541560    0.404488
      7          7           0        0.600562    0.758833   -0.701476
      8          6           0        1.878237    1.238593   -0.137475
      9          6           0        2.831507    0.106224    0.272649
     10          7           0        2.860431   -0.917655   -0.781849
     11          1           0       -3.509520   -1.135570   -1.010125
     12          1           0       -3.230960   -1.011275    0.746972
     13          1           0       -2.216412   -2.092958   -0.250370
     14          1           0       -2.865867    1.542475    0.412311
     15          1           0       -1.663849    2.017652   -0.821950
     16          1           0       -3.195640    1.270136   -1.324187
     17          1           0        0.784819    0.174090   -1.518476
     18          1           0        2.330362    1.837823   -0.933323
     19          1           0        1.650970    1.894310    0.705807
     20          1           0        3.834922    0.529404    0.395242
     21          1           0        2.525360   -0.291204    1.251594
     22          1           0        3.744645   -1.418878   -0.757956
     23          1           0        2.134346   -1.604854   -0.582144
 ---------------------------------------------------------------------

 SCF Done:  E(UB3LYP) =  -873.265333443     A.U. after   25 cycles

 The electronic state is 2-A.
 Alpha  occ. eigenvalues --  -88.97601 -19.01995 -19.01963 -14.25131 -14.24258
 Alpha  occ. eigenvalues --  -14.19283 -10.10636 -10.10192 -10.09919 -10.09419
 Alpha  occ. eigenvalues --   -8.03617  -5.99867  -5.99850  -5.99799  -1.02911
 Alpha  occ. eigenvalues --   -0.91128  -0.84622  -0.82945  -0.77679  -0.64459
 Alpha  occ. eigenvalues --   -0.62306  -0.59274  -0.52196  -0.48811  -0.44711
 Alpha  occ. eigenvalues --   -0.41461  -0.40048  -0.38835  -0.37676  -0.36250
 Alpha  occ. eigenvalues --   -0.35580  -0.34271  -0.31504  -0.30690  -0.30443
 Alpha  occ. eigenvalues --   -0.28754  -0.28491  -0.26941  -0.25304  -0.24022
 Alpha  occ. eigenvalues --   -0.22973  -0.21154  -0.17801  -0.15951  -0.14865
 Alpha  occ. eigenvalues --    0.04506
 Alpha virt. eigenvalues --    0.06132   0.07893   0.08700   0.09085   0.09446
 Alpha virt. eigenvalues --    0.10543   0.11603   0.11936   0.12342   0.13155
 Alpha virt. eigenvalues --    0.13233   0.14548   0.15213   0.16245   0.16615

  Beta  occ. eigenvalues --  -88.97598 -19.01985 -19.01953 -14.25131 -14.24251
  Beta  occ. eigenvalues --  -14.19246 -10.10617 -10.10147 -10.09874 -10.09394
  Beta  occ. eigenvalues --   -8.03614  -5.99861  -5.99845  -5.99797  -1.02888
  Beta  occ. eigenvalues --   -0.91107  -0.84603  -0.82920  -0.77626  -0.64406
  Beta  occ. eigenvalues --   -0.62240  -0.59211  -0.52119  -0.48761  -0.44667
  Beta  occ. eigenvalues --   -0.41431  -0.39989  -0.38801  -0.37626  -0.36203
  Beta  occ. eigenvalues --   -0.35543  -0.34240  -0.31452  -0.30642  -0.30391
  Beta  occ. eigenvalues --   -0.28713  -0.28448  -0.26904  -0.25281  -0.23996
  Beta  occ. eigenvalues --   -0.22960  -0.21130  -0.17779  -0.15929  -0.14816
  Beta virt. eigenvalues --    0.06943   0.07604   0.08580   0.09277   0.09669
  Beta virt. eigenvalues --    0.10265   0.10889   0.11899   0.12285   0.12690
  Beta virt. eigenvalues --    0.13556   0.13800   0.14702   0.15418   0.16442

 Mulliken charges and spin densities:
               1          2
     1  C    0.800890  -1.113033
     2  N   -0.498850   0.328904
     3  C    0.748712  -1.142479
     4  S    0.300927  -0.160316
     5  O   -0.199170   0.005796
     6  O   -0.174127   0.001778
     7  N   -0.443598   0.075070
     8  C    0.005719  -0.284913
     9  C    0.931484  -1.336371
    10  N   -0.475441   0.052474
    11  H   -0.436697   0.598303
    12  H   -0.164751   0.317889
    13  H   -0.036319   0.210464
    14  H   -0.017833   0.194120
    15  H   -0.289500   0.463050
    16  H   -0.527687   0.692128
    17  H    0.167170   0.154602
    18  H   -0.355875   0.533487
    19  H    0.121269   0.065758
    20  H   -0.550985   0.722373
    21  H    0.061568   0.132627
    22  H   -0.219292   0.478684
    23  H    0.252387   0.009605
 Sum of Mulliken charges =  -1.00000   1.00000

 Dipole moment (field-independent basis, Debye):
    X=              0.0107    Y=             -0.4231    Z=              2.1483  Tot=              2.1896
 Quadrupole moment (field-independent basis, Debye-Ang):
   XX=           -147.8294   YY=           -100.9112   ZZ=           -103.0470
   XY=              1.5395   XZ=             -3.1268   YZ=              1.4132

 Summary of Natural Population Analysis:

                                       Natural Population
                Natural  -----------------------------------------------
    Atom  No    Charge         Core      Valence    Rydberg      Total
 -----------------------------------------------------------------------
      C    1   -0.18158      0.99963     2.17263    0.00932     3.18158
      N    2   -0.36342      0.99976     2.84835    0.01531     3.86342
      C    3   -0.18257      0.99963     2.17316    0.00977     3.18257
      S    4    1.16087      4.99927     1.73723    0.10262     6.83913
      O    5   -0.46136      0.99990     3.45621    0.00525     4.46136
      O    6   -0.46949      0.99990     3.46401    0.00558     4.46949
      N    7   -0.42875      0.99976     2.91610    0.01289     3.92875
      C    8   -0.09654      0.99962     2.08386    0.01306     3.09654
      C    9   -0.10340      0.99964     2.09204    0.01172     3.10340
      N   10   -0.43740      0.99977     2.92629    0.01134     3.93740
      H   11    0.10349      0.00000     0.39426    0.00225     0.39651
      H   12    0.08914      0.00000     0.40952    0.00134     0.41086
      H   13    0.11105      0.00000     0.38776    0.00119     0.38895
      H   14    0.09264      0.00000     0.40607    0.00129     0.40736
      H   15    0.10961      0.00000     0.38883    0.00156     0.39039
      H   16    0.10301      0.00000     0.39452    0.00247     0.39699
      H   17    0.20062      0.00000     0.29631    0.00307     0.29938
      H   18    0.10148      0.00000     0.39699    0.00153     0.39852
      H   19    0.10464      0.00000     0.39413    0.00123     0.39536
      H   20    0.09613      0.00000     0.40134    0.00253     0.40387
      H   21    0.08623      0.00000     0.41244    0.00133     0.41377
      H   22    0.18071      0.00000     0.31630    0.00299     0.31929
      H   23    0.18489      0.00000     0.31294    0.00217     0.31511
 =======================================================================
   * Total *    0.00000     13.99689    30.78131    0.22180    45.00000

 Normal termination of Gaussian 16 at Tue Dec  8 10:29:26 2020.
