 Gaussian 16, Revision A.03,

 -----------------------------------------------------------
 # opt freq B3LYP/6-31G(d) empiricaldispersion=gd3bj scf=xqc
 -----------------------------------------------------------

 ------------------------------
 CID_58449012_JID_5832_neutraal
 ------------------------------
 Symbolic Z-matrix:
 Charge =  0 Multiplicity = 1

 SCF Done:  E(RB3LYP) =  -687.501595767     A.U. after   15 cycles
 SCF Done:  E(RB3LYP) =  -687.506293242     A.U. after   13 cycles
 SCF Done:  E(RB3LYP) =  -687.505409797     A.U. after   15 cycles
 SCF Done:  E(RB3LYP) =  -687.507777881     A.U. after   13 cycles
 SCF Done:  E(RB3LYP) =  -687.508181862     A.U. after   12 cycles
 SCF Done:  E(RB3LYP) =  -687.509194689     A.U. after   15 cycles
 SCF Done:  E(RB3LYP) =  -687.509351823     A.U. after   13 cycles
 SCF Done:  E(RB3LYP) =  -687.509987650     A.U. after   12 cycles
 SCF Done:  E(RB3LYP) =  -687.510229111     A.U. after   12 cycles
 SCF Done:  E(RB3LYP) =  -687.510355558     A.U. after   12 cycles
 SCF Done:  E(RB3LYP) =  -687.510720212     A.U. after   12 cycles
 SCF Done:  E(RB3LYP) =  -687.510732357     A.U. after   11 cycles
 SCF Done:  E(RB3LYP) =  -687.510733688     A.U. after    9 cycles
 SCF Done:  E(RB3LYP) =  -687.510733913     A.U. after    9 cycles
 SCF Done:  E(RB3LYP) =  -687.510734004     A.U. after    8 cycles
 Optimization completed.
    -- Stationary point found.
 Normal termination of Gaussian 16 at Thu Dec 10 17:23:14 2020.

 --------------------------------------------------------------------
 #N Geom=AllCheck Guess=TCheck SCRF=Check GenChk RB3LYP/6-31G(d) Freq
 --------------------------------------------------------------------

 Structure from the checkpoint file:  "JID_5832.chk"
 ------------------------------
 CID_58449012_JID_5832_neutraal
 ------------------------------
 Charge =  0 Multiplicity = 1

 SCF Done:  E(RB3LYP) =  -687.510734004     A.U. after    1 cycles

  Exact polarizability: 171.744  -7.759 121.611   0.236  -9.800 106.505
 Approx polarizability: 217.709 -10.137 190.251  -2.941 -28.254 181.365

                      1                      2                      3
                      A                      A                      A
 Frequencies --     17.2306                27.8294                30.6440
 Red. masses --      4.6637                 3.4781                 3.0753
 Frc consts  --      0.0008                 0.0016                 0.0017
 IR Inten    --      0.3016                 0.0305                 2.4998

                      4                      5                      6
                      A                      A                      A
 Frequencies --     56.0692                80.7403               109.5129
 Red. masses --      4.2101                 4.0173                 5.9850
 Frc consts  --      0.0078                 0.0154                 0.0423
 IR Inten    --      0.4885                 0.3957                 0.1661

                      7                      8                      9
                      A                      A                      A
 Frequencies --    141.7796               166.0145               214.4815
 Red. masses --      4.4052                 3.1269                 2.8486
 Frc consts  --      0.0522                 0.0508                 0.0772
 IR Inten    --      4.3697                 1.7788                 2.6427

                     10                     11                     12
                      A                      A                      A
 Frequencies --    232.2728               234.8318               267.2118
 Red. masses --      1.2188                 2.2377                 1.2990
 Frc consts  --      0.0387                 0.0727                 0.0546
 IR Inten    --      0.5085                 0.8193                 4.9291

                     13                     14                     15
                      A                      A                      A
 Frequencies --    279.7416               299.6285               317.5807
 Red. masses --      2.1049                 2.9479                 2.5232
 Frc consts  --      0.0970                 0.1559                 0.1499
 IR Inten    --     25.1524                 7.6741                 7.5990

                     16                     17                     18
                      A                      A                      A
 Frequencies --    350.9288               404.9379               434.3001
 Red. masses --      1.7048                 4.4104                 5.0479
 Frc consts  --      0.1237                 0.4261                 0.5610
 IR Inten    --     98.5960                 3.4087                15.8455

                     19                     20                     21
                      A                      A                      A
 Frequencies --    447.5212               459.6831               513.4257
 Red. masses --      4.2843                 3.2596                 5.2607
 Frc consts  --      0.5055                 0.4058                 0.8171
 IR Inten    --      0.0914                 4.5989                 3.9311

                     22                     23                     24
                      A                      A                      A
 Frequencies --    577.2205               596.7148               638.0660
 Red. masses --      4.5841                 3.7143                 4.6226
 Frc consts  --      0.8999                 0.7792                 1.1088
 IR Inten    --      5.2143                 3.6540                12.4702

                     25                     26                     27
                      A                      A                      A
 Frequencies --    661.3931               724.1143               785.1956
 Red. masses --      8.7131                 3.7599                 4.3355
 Frc consts  --      2.2457                 1.1616                 1.5749
 IR Inten    --      9.4048                 9.3033                 4.1913

                     28                     29                     30
                      A                      A                      A
 Frequencies --    802.9084               868.4949               910.6436
 Red. masses --      6.1571                 4.9728                 2.7689
 Frc consts  --      2.3386                 2.2100                 1.3529
 IR Inten    --      2.3861                 0.6445                 2.6745

                     31                     32                     33
                      A                      A                      A
 Frequencies --    914.0721               942.4530               949.2002
 Red. masses --      1.5885                 1.1879                 1.2715
 Frc consts  --      0.7820                 0.6216                 0.6749
 IR Inten    --     10.5272                 0.9219                 1.5190

                     34                     35                     36
                      A                      A                      A
 Frequencies --    977.6685               988.8403              1013.7174
 Red. masses --      1.5559                 1.6627                 5.8237
 Frc consts  --      0.8762                 0.9579                 3.5260
 IR Inten    --      0.0142                63.8224                95.5724

                     37                     38                     39
                      A                      A                      A
 Frequencies --   1032.2931              1051.8628              1055.6758
 Red. masses --      2.0669                 4.1623                 4.1507
 Frc consts  --      1.2977                 2.7133                 2.7254
 IR Inten    --      7.1799                93.7819                64.3667

                     40                     41                     42
                      A                      A                      A
 Frequencies --   1095.6542              1133.9197              1166.0406
 Red. masses --      1.5724                 2.2881                 4.5695
 Frc consts  --      1.1121                 1.7333                 3.6605
 IR Inten    --      6.4825                 0.2488                65.7232

                     43                     44                     45
                      A                      A                      A
 Frequencies --   1193.6964              1226.2948              1254.5008
 Red. masses --      1.9711                 1.0885                 6.1318
 Frc consts  --      1.6548                 0.9644                 5.6857
 IR Inten    --      2.5397                23.0597                88.7808

                     46                     47                     48
                      A                      A                      A
 Frequencies --   1263.0367              1287.4466              1317.3305
 Red. masses --      1.8332                 1.4323                 1.4039
 Frc consts  --      1.7230                 1.3987                 1.4354
 IR Inten    --      9.3796                18.1355                54.1858

                     49                     50                     51
                      A                      A                      A
 Frequencies --   1350.0509              1358.6486              1362.0264
 Red. masses --      1.6460                 1.3280                 2.7115
 Frc consts  --      1.7675                 1.4443                 2.9637
 IR Inten    --     81.8010                 2.0387               235.7316

                     52                     53                     54
                      A                      A                      A
 Frequencies --   1373.0387              1414.2788              1420.5268
 Red. masses --      1.2303                 1.6743                 1.2316
 Frc consts  --      1.3666                 1.9731                 1.4643
 IR Inten    --     10.5615                27.1476                 3.3139

                     55                     56                     57
                      A                      A                      A
 Frequencies --   1433.9681              1435.9062              1441.5412
 Red. masses --      1.2362                 2.0105                 1.2887
 Frc consts  --      1.4977                 2.4423                 1.5778
 IR Inten    --     88.4766                59.0769                11.6499

                     58                     59                     60
                      A                      A                      A
 Frequencies --   1491.4303              1515.6718              1517.2904
 Red. masses --      1.1466                 1.0418                 1.0804
 Frc consts  --      1.5027                 1.4101                 1.4655
 IR Inten    --      4.9341                 0.8253                 1.6934

                     61                     62                     63
                      A                      A                      A
 Frequencies --   1523.6487              1524.4136              1530.7602
 Red. masses --      1.0496                 2.2538                 1.0474
 Frc consts  --      1.4356                 3.0859                 1.4460
 IR Inten    --      0.9505               135.4027                 9.1640

                     64                     65                     66
                      A                      A                      A
 Frequencies --   1545.7015              1600.1850              1640.7353
 Red. masses --      1.1318                 8.7640                 6.1412
 Frc consts  --      1.5931                13.2219                 9.7405
 IR Inten    --     33.5588                65.8893                27.7606

                     67                     68                     69
                      A                      A                      A
 Frequencies --   2364.4339              2995.2494              3037.5607
 Red. masses --     11.8700                 1.0718                 1.0836
 Frc consts  --     39.0979                 5.6655                 5.8906
 IR Inten    --      1.1712                42.9543                19.9447

                     70                     71                     72
                      A                      A                      A
 Frequencies --   3049.2217              3052.9878              3079.7334
 Red. masses --      1.0344                 1.0356                 1.0573
 Frc consts  --      5.6664                 5.6869                 5.9087
 IR Inten    --     32.4505                27.5159                23.4374

                     73                     74                     75
                      A                      A                      A
 Frequencies --   3091.2399              3116.1701              3118.9580
 Red. masses --      1.0897                 1.1033                 1.1027
 Frc consts  --      6.1350                 6.3124                 6.3199
 IR Inten    --     18.0649                18.1458                55.3714

                     76                     77                     78
                      A                      A                      A
 Frequencies --   3128.3416              3129.5900              3134.3220
 Red. masses --      1.1068                 1.1028                 1.1020
 Frc consts  --      6.3817                 6.3637                 6.3783
 IR Inten    --      7.2726                 5.0063                38.3807

                     79                     80                     81
                      A                      A                      A
 Frequencies --   3178.7921              3192.7988              3742.4164
 Red. masses --      1.0914                 1.0919                 1.0663
 Frc consts  --      6.4975                 6.5580                 8.7988
 IR Inten    --     31.1134                11.0237                14.9551

 - Thermochemistry -
 -------------------
 Temperature   298.150 Kelvin.  Pressure   1.00000 Atm.
 Atom     1 has atomic number  6 and mass  12.00000

 Molecular mass:   206.10553 amu.
 Principal axes and moments of inertia in atomic units:
                           1         2         3
     Eigenvalues --  1565.590377456.994028257.64104
           X            0.99996  -0.00884   0.00008
           Y            0.00884   0.99992   0.00857
           Z           -0.00016  -0.00857   0.99996
 This molecule is an asymmetric top.
 Rotational symmetry number  1.
 Warning -- assumption of classical behavior for rotation
           may cause significant error
 Rotational temperatures (Kelvin)      0.05532     0.01162     0.01049
 Rotational constants (GHZ):           1.15275     0.24202     0.21855
 Zero-point vibrational energy     624489.3 (Joules/Mol)
                                  149.25653 (Kcal/Mol)
 Warning -- explicit consideration of  23 degrees of freedom as
           vibrations may cause significant error
 Vibrational temperatures:     24.79    40.04    44.09    80.67   116.17
          (Kelvin)            157.56   203.99   238.86   308.59   334.19
                              337.87   384.46   402.49   431.10   456.93
                              504.91   582.62   624.86   643.88   661.38
                              738.71   830.49   858.54   918.03   951.60
                             1041.84  1129.72  1155.21  1249.57  1310.21
                             1315.15  1355.98  1365.69  1406.65  1422.72
                             1458.51  1485.24  1513.40  1518.88  1576.40
                             1631.46  1677.67  1717.46  1764.36  1804.95
                             1817.23  1852.35  1895.34  1942.42  1954.79
                             1959.65  1975.50  2034.83  2043.82  2063.16
                             2065.95  2074.06  2145.84  2180.71  2183.04
                             2192.19  2193.29  2202.42  2223.92  2302.31
                             2360.65  3401.89  4309.50  4370.37  4387.15
                             4392.57  4431.05  4447.60  4483.47  4487.48
                             4500.99  4502.78  4509.59  4573.57  4593.73
                             5384.50

 Zero-point correction=                           0.237855 (Hartree/Particle)
 Thermal correction to Energy=                    0.253482
 Thermal correction to Enthalpy=                  0.254426
 Thermal correction to Gibbs Free Energy=         0.191975
 Sum of electronic and zero-point Energies=           -687.272879
 Sum of electronic and thermal Energies=              -687.257252
 Sum of electronic and thermal Enthalpies=            -687.256308
 Sum of electronic and thermal Free Energies=         -687.318759

                     E (Thermal)             CV                S
                      KCal/Mol        Cal/Mol-Kelvin    Cal/Mol-Kelvin
 Total                  159.062             56.063            131.439
 Electronic               0.000              0.000              0.000
 Translational            0.889              2.981             41.874
 Rotational               0.889              2.981             32.933
 Vibrational            157.285             50.102             56.632
 Vibration     1          0.593              1.986              6.930
 Vibration     2          0.593              1.984              5.978
 Vibration     3          0.594              1.984              5.787
 Vibration     4          0.596              1.975              4.591
 Vibration     5          0.600              1.962              3.873
 Vibration     6          0.606              1.942              3.278
 Vibration     7          0.615              1.911              2.780
 Vibration     8          0.624              1.884              2.480
 Vibration     9          0.644              1.819              2.005
 Vibration    10          0.653              1.792              1.861
 Vibration    11          0.655              1.788              1.842
 Vibration    12          0.672              1.733              1.614
 Vibration    13          0.680              1.711              1.535
 Vibration    14          0.692              1.674              1.419
 Vibration    15          0.704              1.640              1.323
 Vibration    16          0.728              1.573              1.162
 Vibration    17          0.770              1.459              0.945
 Vibration    18          0.795              1.395              0.845
 Vibration    19          0.807              1.366              0.803
 Vibration    20          0.818              1.339              0.767
 Vibration    21          0.868              1.220              0.625
 Vibration    22          0.934              1.081              0.491
 Vibration    23          0.955              1.039              0.455

                           ! Non-Optimized Parameters !
 Normal termination of Gaussian 16 at Thu Dec 10 17:30:40 2020.

 ----------------------------------------------------------------------
 # B3LYP/6-311++G(d,p) empiricaldispersion=gd3bj scf=xqc pop=npa geom=c
 heck
 ----------------------------------------------------------------------

 --------------------------------------
 CID_58449012_JID_5832_Energie_neutraal
 --------------------------------------
 Structure from the checkpoint file:  "JID_5832.chk"
 Charge =  0 Multiplicity = 1

 SCF Done:  E(RB3LYP) =  -687.711360418     A.U. after   15 cycles
 Normal termination of Gaussian 16 at Thu Dec 10 17:35:17 2020.

 ----------------------------------------------------------------------
 # B3LYP/6-311++G(d,p) empiricaldispersion=gd3bj scf=xqc pop=npa geom=c
 heck
 ----------------------------------------------------------------------

 ------------------------------------
 CID_58449012_JID_5832_Energie_kation
 ------------------------------------
 Structure from the checkpoint file:  "JID_5832.chk"
 Charge =  1 Multiplicity = 2

 SCF Done:  E(UB3LYP) =  -687.396381139     A.U. after   27 cycles
 Normal termination of Gaussian 16 at Thu Dec 10 17:44:06 2020.
 Gaussian 16:  ES64L-G16RevA.03 25-Dec-2016

 ----------------------------------------------------------------------
 # B3LYP/6-311++G(d,p) empiricaldispersion=gd3bj scf=xqc pop=npa geom=c
 heck
 ----------------------------------------------------------------------

 -----------------------------------
 CID_58449012_JID_5832_Energie_anion
 -----------------------------------
 Structure from the checkpoint file:  "JID_5832.chk"
 Charge = -1 Multiplicity = 2

                         Standard orientation:
 ---------------------------------------------------------------------
 Center     Atomic      Atomic             Coordinates (Angstroms)
 Number     Number       Type             X           Y           Z
 ---------------------------------------------------------------------
      1          6           0       -4.777202   -0.006008   -0.373222
      2          6           0       -3.562871    0.936114   -0.402940
      3          6           0       -3.706246    2.056337    0.640176
      4          6           0       -2.282192    0.161971   -0.178852
      5          6           0       -1.261770    0.108605   -1.124370
      6          7           0       -0.120793   -0.571548   -0.927244
      7          6           0       -0.006711   -1.203881    0.229434
      8          6           0       -1.025855   -1.167272    1.202471
      9          7           0       -2.145732   -0.492571    0.995086
     10          8           0        1.100105   -1.926923    0.518149
     11          6           0        2.174577   -1.877328   -0.442666
     12          6           0        2.920636   -0.624392   -0.389917
     13          6           0        3.546803    0.409558   -0.353258
     14          6           0        4.301794    1.661104   -0.247197
     15          8           0        5.420794    1.579999    0.629368
     16          1           0       -4.838155   -0.508601    0.597366
     17          1           0       -4.701786   -0.775358   -1.149621
     18          1           0       -5.705133    0.554165   -0.533823
     19          1           0       -3.501017    1.393894   -1.399432
     20          1           0       -3.727842    1.629535    1.648082
     21          1           0       -2.866686    2.758276    0.586763
     22          1           0       -4.633742    2.617478    0.480300
     23          1           0       -1.355292    0.629056   -2.075346
     24          1           0       -0.905064   -1.697953    2.143716
     25          1           0        1.774702   -2.039221   -1.448349
     26          1           0        2.813168   -2.721673   -0.169835
     27          1           0        4.711678    1.937683   -1.224571
     28          1           0        3.614442    2.469536    0.051437
     29          1           0        5.093435    1.248557    1.480317
 ---------------------------------------------------------------------

 SCF Done:  E(UB3LYP) =  -687.709822119     A.U. after   33 cycles
 SCF Done:  E(UB3LYP) =  -687.709822119     a.u. after    1 cycles

 The electronic state is 2-A.
 Alpha  occ. eigenvalues --  -19.03464 -19.02803 -14.15668 -14.15102 -10.14130
 Alpha  occ. eigenvalues --  -10.13658 -10.11871 -10.06506 -10.06461 -10.06202
 Alpha  occ. eigenvalues --  -10.06129 -10.05546 -10.05149 -10.05149 -10.04786
 Alpha  occ. eigenvalues --   -0.95620  -0.92977  -0.82294  -0.75403  -0.68951
 Alpha  occ. eigenvalues --   -0.68009  -0.64153  -0.60426  -0.57708  -0.57215
 Alpha  occ. eigenvalues --   -0.51721  -0.50871  -0.45635  -0.43612  -0.41344
 Alpha  occ. eigenvalues --   -0.39552  -0.39089  -0.37044  -0.36359  -0.35085
 Alpha  occ. eigenvalues --   -0.33518  -0.32432  -0.31054  -0.30667  -0.29682
 Alpha  occ. eigenvalues --   -0.28672  -0.27836  -0.26501  -0.24833  -0.24103
 Alpha  occ. eigenvalues --   -0.22784  -0.22187  -0.21610  -0.19712  -0.18019
 Alpha  occ. eigenvalues --   -0.16719  -0.16178  -0.15649  -0.10465  -0.10182
 Alpha  occ. eigenvalues --    0.05031
 Alpha virt. eigenvalues --    0.06763   0.07416   0.08757   0.08852   0.09591
 Alpha virt. eigenvalues --    0.09911   0.10305   0.11084   0.11501   0.11791
 Alpha virt. eigenvalues --    0.12317   0.12999   0.13169   0.13437   0.14046

  Beta  occ. eigenvalues --  -19.03461 -19.02757 -14.15248 -14.14565 -10.14112
  Beta  occ. eigenvalues --  -10.13660 -10.11907 -10.06505 -10.06431 -10.06284
  Beta  occ. eigenvalues --  -10.06120 -10.05379 -10.05150 -10.05146 -10.04575
  Beta  occ. eigenvalues --   -0.95591  -0.92872  -0.81681  -0.74614  -0.68817
  Beta  occ. eigenvalues --   -0.67940  -0.64043  -0.60191  -0.57703  -0.57119
  Beta  occ. eigenvalues --   -0.51063  -0.50779  -0.45535  -0.43509  -0.41188
  Beta  occ. eigenvalues --   -0.39365  -0.39016  -0.36985  -0.36256  -0.35029
  Beta  occ. eigenvalues --   -0.33432  -0.32330  -0.30770  -0.30508  -0.29497
  Beta  occ. eigenvalues --   -0.28185  -0.27682  -0.26417  -0.24750  -0.24033
  Beta  occ. eigenvalues --   -0.22730  -0.22126  -0.20910  -0.19663  -0.16618
  Beta  occ. eigenvalues --   -0.16297  -0.15392  -0.15073  -0.09908  -0.09256
  Beta virt. eigenvalues --    0.07222   0.07451   0.08812   0.09042   0.09444
  Beta virt. eigenvalues --    0.09862   0.10248   0.11007   0.11160   0.11389
  Beta virt. eigenvalues --    0.11901   0.12421   0.12976   0.13139   0.13549

 Mulliken charges and spin densities:
               1          2
     1  C   -0.531271  -0.115897
     2  C    0.286574   0.063443
     3  C   -0.634707  -0.009314
     4  C   -0.346643  -0.100660
     5  C   -0.347361   0.171565
     6  N   -0.054903   0.185476
     7  C   -0.188405  -0.080114
     8  C    0.069357   0.255275
     9  N   -0.013999   0.231044
    10  O   -0.071105   0.003710
    11  C   -0.430360  -0.241996
    12  C    0.188585   0.227639
    13  C   -0.728663   0.726520
    14  C    0.849766  -1.258126
    15  O   -0.233894  -0.015337
    16  H    0.168299  -0.007856
    17  H    0.070821   0.051449
    18  H    0.089325   0.027076
    19  H    0.130894   0.007790
    20  H    0.153813   0.007410
    21  H    0.118444  -0.001107
    22  H    0.117529  -0.000999
    23  H    0.124260   0.003770
    24  H    0.115434   0.026066
    25  H    0.212039  -0.026651
    26  H   -0.019524   0.192580
    27  H    0.018173   0.138536
    28  H   -0.038786   0.221621
    29  H   -0.073693   0.317086
 Sum of Mulliken charges =  -1.00000   1.00000

 Dipole moment (field-independent basis, Debye):
    X=             -3.6366    Y=              0.2142    Z=             -2.1187  Tot=              4.2142
 Quadrupole moment (field-independent basis, Debye-Ang):
   XX=           -167.6569   YY=           -107.2477   ZZ=           -104.7338
   XY=            -12.3098   XZ=             -3.8684   YZ=             -0.8527

 Summary of Natural Population Analysis:

                                       Natural Population
                Natural  -----------------------------------------------
    Atom  No    Charge         Core      Valence    Rydberg      Total
 -----------------------------------------------------------------------
      C    1   -0.28158      0.99966     2.27685    0.00507     3.28158
      C    2   -0.12148      0.99959     2.11095    0.01094     3.12148
      C    3   -0.28126      0.99966     2.27695    0.00465     3.28126
      C    4    0.05067      0.99951     1.93364    0.01618     2.94933
      C    5    0.03534      0.99953     1.95234    0.01279     2.96466
      N    6   -0.20759      0.99965     2.69656    0.01138     3.70759
      C    7    0.23785      0.99946     1.74462    0.01808     2.76215
      C    8    0.02736      0.99957     1.95952    0.01355     2.97264
      N    9   -0.16240      0.99967     2.65054    0.01219     3.66240
      O   10   -0.27625      0.99986     3.26720    0.00919     4.27625
      C   11   -0.05272      0.99949     2.04038    0.01284     3.05272
      C   12    0.00064      0.99924     1.99276    0.00736     2.99936
      C   13   -0.02540      0.99924     2.01989    0.00627     3.02540
      C   14   -0.04514      0.99955     2.03174    0.01385     3.04514
      O   15   -0.36258      0.99990     3.35575    0.00693     4.36258
      H   16    0.10479      0.00000     0.39397    0.00124     0.39521
      H   17    0.09818      0.00000     0.40079    0.00103     0.40182
      H   18    0.08802      0.00000     0.41097    0.00101     0.41198
      H   19    0.08933      0.00000     0.40830    0.00237     0.41067
      H   20    0.10500      0.00000     0.39400    0.00100     0.39500
      H   21    0.09832      0.00000     0.40095    0.00072     0.40168
      H   22    0.08781      0.00000     0.41133    0.00086     0.41219
      H   23    0.08101      0.00000     0.41768    0.00131     0.41899
      H   24    0.08360      0.00000     0.41485    0.00156     0.41640
      H   25    0.10868      0.00000     0.38971    0.00160     0.39132
      H   26    0.10068      0.00000     0.39795    0.00137     0.39932
      H   27    0.09660      0.00000     0.40201    0.00139     0.40340
      H   28    0.09120      0.00000     0.40725    0.00155     0.40880
      H   29    0.23129      0.00000     0.26271    0.00599     0.26871
 =======================================================================
   * Total *    0.00000     14.99358    39.82216    0.18427    55.00000

 Normal termination of Gaussian 16 at Thu Dec 10 17:55:54 2020.
