 Gaussian 16, Revision A.03,

 -----------------------------------------------------------
 # opt freq B3LYP/6-31G(d) empiricaldispersion=gd3bj scf=xqc
 -----------------------------------------------------------

 ------------------------------
 CID_83879396_JID_4078_neutraal
 ------------------------------
 Symbolic Z-matrix:
 Charge =  0 Multiplicity = 1

 SCF Done:  E(RB3LYP) =  -634.634728695     A.U. after   13 cycles
 SCF Done:  E(RB3LYP) =  -634.637461215     A.U. after   12 cycles
 SCF Done:  E(RB3LYP) =  -634.637908210     A.U. after   11 cycles
 SCF Done:  E(RB3LYP) =  -634.637902255     A.U. after   11 cycles
 SCF Done:  E(RB3LYP) =  -634.638135711     A.U. after   11 cycles
 SCF Done:  E(RB3LYP) =  -634.638273185     A.U. after   10 cycles
 SCF Done:  E(RB3LYP) =  -634.638470967     A.U. after   12 cycles
 SCF Done:  E(RB3LYP) =  -634.638496178     A.U. after   11 cycles
 SCF Done:  E(RB3LYP) =  -634.638534623     A.U. after   10 cycles
 SCF Done:  E(RB3LYP) =  -634.638693930     A.U. after   12 cycles
 SCF Done:  E(RB3LYP) =  -634.638808146     A.U. after    8 cycles
 SCF Done:  E(RB3LYP) =  -634.638807703     A.U. after    8 cycles
 SCF Done:  E(RB3LYP) =  -634.638807522     A.U. after    7 cycles
 SCF Done:  E(RB3LYP) =  -634.638808128     A.U. after    8 cycles
 SCF Done:  E(RB3LYP) =  -634.638807409     A.U. after    8 cycles
 Optimization completed.
    -- Stationary point found.
 Normal termination of Gaussian 16 at Thu Dec 10 09:24:46 2020.

 --------------------------------------------------------------------
 #N Geom=AllCheck Guess=TCheck SCRF=Check GenChk RB3LYP/6-31G(d) Freq
 --------------------------------------------------------------------

 Structure from the checkpoint file:  "JID_4078.chk"
 ------------------------------
 CID_83879396_JID_4078_neutraal
 ------------------------------
 Charge =  0 Multiplicity = 1

 SCF Done:  E(RB3LYP) =  -634.638807409     A.U. after    1 cycles

  Exact polarizability: 165.112   2.138 127.118  -4.002  -1.361  89.099
 Approx polarizability: 225.561   3.476 216.951  -7.779  -5.658 125.064

                      1                      2                      3
                      A                      A                      A
 Frequencies --     30.4681                39.0884                58.1787
 Red. masses --      3.2730                 4.0978                 3.3532
 Frc consts  --      0.0018                 0.0037                 0.0067
 IR Inten    --      0.6800                 0.2450                 0.1727

                      4                      5                      6
                      A                      A                      A
 Frequencies --    100.2773               118.4915               158.1736
 Red. masses --      3.2293                 3.0427                 1.6195
 Frc consts  --      0.0191                 0.0252                 0.0239
 IR Inten    --      2.5540                 1.1143                 1.8345

                      7                      8                      9
                      A                      A                      A
 Frequencies --    183.9149               224.2179               229.1059
 Red. masses --      4.4547                 1.8457                 2.4196
 Frc consts  --      0.0888                 0.0547                 0.0748
 IR Inten    --      0.8462                39.5556                19.7589

                     10                     11                     12
                      A                      A                      A
 Frequencies --    243.3175               260.8508               283.8722
 Red. masses --      2.1590                 1.2350                 1.8729
 Frc consts  --      0.0753                 0.0495                 0.0889
 IR Inten    --     21.0905                24.2151                82.7159

                     13                     14                     15
                      A                      A                      A
 Frequencies --    332.9630               353.0105               386.9060
 Red. masses --      3.1496                 3.3893                 1.3118
 Frc consts  --      0.2057                 0.2489                 0.1157
 IR Inten    --      9.5823                 3.5327                36.0993

                     16                     17                     18
                      A                      A                      A
 Frequencies --    408.1057               425.7592               444.8186
 Red. masses --      2.1864                 2.0542                 2.0024
 Frc consts  --      0.2145                 0.2194                 0.2334
 IR Inten    --      3.5072                 2.7886                16.3280

                     19                     20                     21
                      A                      A                      A
 Frequencies --    471.9203               487.6515               529.2579
 Red. masses --      2.6725                 3.5227                 4.4289
 Frc consts  --      0.3507                 0.4936                 0.7309
 IR Inten    --     10.8280                 7.9795                 3.8536

                     22                     23                     24
                      A                      A                      A
 Frequencies --    575.6272               585.4086               665.2167
 Red. masses --      4.5699                 4.0194                 3.3340
 Frc consts  --      0.8922                 0.8116                 0.8692
 IR Inten    --      1.4793                 7.1119                 1.8605

                     25                     26                     27
                      A                      A                      A
 Frequencies --    718.3788               755.5804               781.3121
 Red. masses --      4.7752                 5.1374                 3.3205
 Frc consts  --      1.4520                 1.7280                 1.1943
 IR Inten    --      2.3191                25.1049                 4.6012

                     28                     29                     30
                      A                      A                      A
 Frequencies --    803.7525               830.0970               840.6246
 Red. masses --      1.4481                 1.4670                 2.1340
 Frc consts  --      0.5512                 0.5956                 0.8885
 IR Inten    --    199.0225                10.0939                22.0925

                     31                     32                     33
                      A                      A                      A
 Frequencies --    902.9314               915.2318               944.5113
 Red. masses --      1.3696                 1.9422                 1.3592
 Frc consts  --      0.6579                 0.9585                 0.7144
 IR Inten    --      8.1802                 6.0928                 2.7006

                     34                     35                     36
                      A                      A                      A
 Frequencies --    956.6109               962.9831               991.0322
 Red. masses --      3.7188                 1.6901                 3.4391
 Frc consts  --      2.0050                 0.9234                 1.9901
 IR Inten    --     18.5766                 3.9501                18.0261

                     37                     38                     39
                      A                      A                      A
 Frequencies --   1029.5788              1035.3761              1074.3870
 Red. masses --      1.4124                 1.8469                 1.9482
 Frc consts  --      0.8821                 1.1665                 1.3250
 IR Inten    --      2.9860                 4.2883                 9.9640

                     40                     41                     42
                      A                      A                      A
 Frequencies --   1115.5245              1144.2705              1156.9603
 Red. masses --      1.4982                 3.4222                 2.1039
 Frc consts  --      1.0985                 2.6401                 1.6592
 IR Inten    --     18.4413                91.8168                22.2501

                     43                     44                     45
                      A                      A                      A
 Frequencies --   1180.7708              1192.6559              1206.6110
 Red. masses --      1.7409                 1.2926                 1.5431
 Frc consts  --      1.4301                 1.0833                 1.3237
 IR Inten    --     28.1355                 9.4800                22.9134

                     46                     47                     48
                      A                      A                      A
 Frequencies --   1227.9575              1242.8505              1260.4356
 Red. masses --      1.6119                 1.4075                 1.7759
 Frc consts  --      1.4320                 1.2810                 1.6623
 IR Inten    --     41.6310                 7.2089                43.4071

                     49                     50                     51
                      A                      A                      A
 Frequencies --   1263.2730              1309.7994              1318.3952
 Red. masses --      1.8670                 1.9465                 1.6127
 Frc consts  --      1.7555                 1.9675                 1.6515
 IR Inten    --     17.8617                11.0743                49.5634

                     52                     53                     54
                      A                      A                      A
 Frequencies --   1323.3076              1344.3450              1376.5254
 Red. masses --      1.6030                 1.3089                 2.8445
 Frc consts  --      1.6539                 1.3937                 3.1755
 IR Inten    --     27.4338                17.0843                48.1613

                     55                     56                     57
                      A                      A                      A
 Frequencies --   1396.8397              1420.2409              1426.2856
 Red. masses --      1.3902                 1.4042                 1.2690
 Frc consts  --      1.5982                 1.6688                 1.5210
 IR Inten    --     18.1230                32.5628                 9.2242

                     58                     59                     60
                      A                      A                      A
 Frequencies --   1446.5435              1488.3377              1501.1582
 Red. masses --      1.3878                 2.1159                 1.2628
 Frc consts  --      1.7110                 2.7615                 1.6766
 IR Inten    --      9.9040                23.0004                 6.6108

                     61                     62                     63
                      A                      A                      A
 Frequencies --   1514.6383              1517.7218              1518.5254
 Red. masses --      1.0633                 1.0965                 1.0783
 Frc consts  --      1.4373                 1.4882                 1.4650
 IR Inten    --      1.1962                 4.9681                 6.5951

                     64                     65                     66
                      A                      A                      A
 Frequencies --   1526.1421              1532.6652              1539.6410
 Red. masses --      1.1047                 1.0786                 1.0575
 Frc consts  --      1.5160                 1.4928                 1.4770
 IR Inten    --      3.0275                 8.0363                 4.6185

                     67                     68                     69
                      A                      A                      A
 Frequencies --   1555.5458              1634.5324              1683.6037
 Red. masses --      2.7721                 6.1749                 1.6713
 Frc consts  --      3.9520                 9.7200                 2.7911
 IR Inten    --     33.8727                34.9190                27.3141

                     70                     71                     72
                      A                      A                      A
 Frequencies --   1688.1955              2989.1541              3001.3081
 Red. masses --      2.1417                 1.0660                 1.0458
 Frc consts  --      3.5963                 5.6121                 5.5502
 IR Inten    --     12.7791                47.7382                73.4896

                     73                     74                     75
                      A                      A                      A
 Frequencies --   3007.8188              3043.1739              3056.4192
 Red. masses --      1.0692                 1.0860                 1.0369
 Frc consts  --      5.6990                 5.9254                 5.7072
 IR Inten    --     35.3840                55.7703                11.4318

                     76                     77                     78
                      A                      A                      A
 Frequencies --   3060.4193              3071.6667              3078.1800
 Red. masses --      1.0972                 1.0923                 1.0930
 Frc consts  --      6.0550                 6.0720                 6.1016
 IR Inten    --     49.5466                23.8901                27.0188

                     79                     80                     81
                      A                      A                      A
 Frequencies --   3121.0511              3141.5036              3143.2927
 Red. masses --      1.1016                 1.0986                 1.1023
 Frc consts  --      6.3221                 6.3881                 6.4169
 IR Inten    --     33.4104                36.1005                28.0724

                     82                     83                     84
                      A                      A                      A
 Frequencies --   3175.7437              3193.6327              3219.2535
 Red. masses --      1.0866                 1.0943                 1.0905
 Frc consts  --      6.4568                 6.5756                 6.6584
 IR Inten    --     10.8572                21.2932                 1.1809

                     85                     86                     87
                      A                      A                      A
 Frequencies --   3475.2068              3575.4102              3750.5805
 Red. masses --      1.0478                 1.0950                 1.0648
 Frc consts  --      7.4555                 8.2472                 8.8249
 IR Inten    --      1.8072                 2.3490                79.9008

 - Thermochemistry -
 -------------------
 Temperature   298.150 Kelvin.  Pressure   1.00000 Atm.
 Atom     1 has atomic number  6 and mass  12.00000

 Molecular mass:   195.12593 amu.
 Principal axes and moments of inertia in atomic units:
                           1         2         3
     Eigenvalues --  1448.329264972.889755217.13835
           X            0.99999  -0.00141  -0.00477
           Y            0.00140   1.00000  -0.00211
           Z            0.00477   0.00210   0.99999
 This molecule is an asymmetric top.
 Rotational symmetry number  1.
 Warning -- assumption of classical behavior for rotation
           may cause significant error
 Rotational temperatures (Kelvin)      0.05980     0.01742     0.01660
 Rotational constants (GHZ):           1.24608     0.36292     0.34593
 Zero-point vibrational energy     707573.8 (Joules/Mol)
                                  169.11420 (Kcal/Mol)
 Warning -- explicit consideration of  23 degrees of freedom as
           vibrations may cause significant error
 Vibrational temperatures:     43.84    56.24    83.71   144.28   170.48
          (Kelvin)            227.58   264.61   322.60   329.63   350.08
                              375.31   408.43   479.06   507.90   556.67
                              587.17   612.57   639.99   678.99   701.62
                              761.48   828.20   842.27   957.10  1033.59
                             1087.11  1124.13  1156.42  1194.32  1209.47
                             1299.12  1316.81  1358.94  1376.35  1385.52
                             1425.87  1481.33  1489.68  1545.80  1604.99
                             1646.35  1664.61  1698.87  1715.97  1736.04
                             1766.76  1788.18  1813.49  1817.57  1884.51
                             1896.88  1903.94  1934.21  1980.51  2009.74
                             2043.41  2052.11  2081.25  2141.39  2159.83
                             2179.23  2183.66  2184.82  2195.78  2205.16
                             2215.20  2238.08  2351.73  2422.33  2428.94
                             4300.73  4318.21  4327.58  4378.45  4397.51
                             4403.26  4419.44  4428.81  4490.50  4519.92
                             4522.50  4569.19  4594.93  4631.79  5000.05
                             5144.22  5396.25

 Zero-point correction=                           0.269501 (Hartree/Particle)
 Thermal correction to Energy=                    0.284209
 Thermal correction to Enthalpy=                  0.285154
 Thermal correction to Gibbs Free Energy=         0.227257
 Sum of electronic and zero-point Energies=           -634.369307
 Sum of electronic and thermal Energies=              -634.354598
 Sum of electronic and thermal Enthalpies=            -634.353654
 Sum of electronic and thermal Free Energies=         -634.411551

                     E (Thermal)             CV                S
                      KCal/Mol        Cal/Mol-Kelvin    Cal/Mol-Kelvin
 Total                  178.344             55.655            121.854
 Electronic               0.000              0.000              0.000
 Translational            0.889              2.981             41.711
 Rotational               0.889              2.981             31.997
 Vibrational            176.567             49.693             48.146
 Vibration     1          0.594              1.984              5.799
 Vibration     2          0.594              1.981              5.305
 Vibration     3          0.596              1.974              4.518
 Vibration     4          0.604              1.949              3.449
 Vibration     5          0.609              1.934              3.125
 Vibration     6          0.621              1.893              2.572
 Vibration     7          0.631              1.862              2.288
 Vibration     8          0.649              1.804              1.925
 Vibration     9          0.652              1.797              1.886
 Vibration    10          0.659              1.774              1.778
 Vibration    11          0.669              1.744              1.656
 Vibration    12          0.682              1.704              1.510
 Vibration    13          0.715              1.610              1.246
 Vibration    14          0.729              1.569              1.153
 Vibration    15          0.755              1.498              1.012
 Vibration    16          0.773              1.453              0.933
 Vibration    17          0.788              1.414              0.873
 Vibration    18          0.804              1.372              0.812
 Vibration    19          0.829              1.312              0.732
 Vibration    20          0.844              1.277              0.690
 Vibration    21          0.884              1.185              0.589
 Vibration    22          0.932              1.084              0.494
 Vibration    23          0.942              1.063              0.475

 Optimization completed.
    -- Stationary point found.
 Normal termination of Gaussian 16 at Thu Dec 10 09:33:31 2020.

 ----------------------------------------------------------------------
 # B3LYP/6-311++G(d,p) empiricaldispersion=gd3bj scf=xqc pop=npa geom=c
 heck
 ----------------------------------------------------------------------

 --------------------------------------
 CID_83879396_JID_4078_Energie_neutraal
 --------------------------------------
 Structure from the checkpoint file:  "JID_4078.chk"
 Charge =  0 Multiplicity = 1

 SCF Done:  E(RB3LYP) =  -634.830529557     A.U. after   15 cycles
 Normal termination of Gaussian 16 at Thu Dec 10 09:37:05 2020.

 ----------------------------------------------------------------------
 # B3LYP/6-311++G(d,p) empiricaldispersion=gd3bj scf=xqc pop=npa geom=c
 heck
 ----------------------------------------------------------------------

 ------------------------------------
 CID_83879396_JID_4078_Energie_kation
 ------------------------------------
 Structure from the checkpoint file:  "JID_4078.chk"
 Charge =  1 Multiplicity = 2

 SCF Done:  E(UB3LYP) =  -634.535708499     A.U. after   24 cycles
 Normal termination of Gaussian 16 at Thu Dec 10 09:45:47 2020.
 Gaussian 16:  ES64L-G16RevA.03 25-Dec-2016

 ----------------------------------------------------------------------
 # B3LYP/6-311++G(d,p) empiricaldispersion=gd3bj scf=xqc pop=npa geom=c
 heck
 ----------------------------------------------------------------------

 -----------------------------------
 CID_83879396_JID_4078_Energie_anion
 -----------------------------------
 Structure from the checkpoint file:  "JID_4078.chk"
 Charge = -1 Multiplicity = 2

                         Standard orientation:
 ---------------------------------------------------------------------
 Center     Atomic      Atomic             Coordinates (Angstroms)
 Number     Number       Type             X           Y           Z
 ---------------------------------------------------------------------
      1          6           0        2.953085   -1.148739    1.495422
      2          6           0        3.302337   -0.112443    0.426913
      3          6           0        2.519650   -0.361694   -0.895873
      4          6           0        1.012457   -0.381346   -0.764640
      5          6           0        0.241162    0.796976   -0.771313
      6          6           0       -1.148645    0.749577   -0.659151
      7          6           0       -1.807119   -0.471295   -0.517047
      8          6           0       -1.056616   -1.649836   -0.488730
      9          6           0        0.328379   -1.594324   -0.622291
     10          6           0       -3.319853   -0.504375   -0.422944
     11          8           0       -3.869911    0.556363    0.337848
     12          6           0       -3.576733    0.453287    1.718757
     13          8           0        0.798141    2.043609   -0.905428
     14          7           0        3.154534    1.225604    1.008593
     15          1           0        1.902877   -1.058816    1.794578
     16          1           0        3.577829   -0.998210    2.379829
     17          1           0        3.105249   -2.167340    1.121615
     18          1           0        4.367066   -0.218670    0.180512
     19          1           0        2.835433    0.393141   -1.632641
     20          1           0        2.843770   -1.325141   -1.308094
     21          1           0       -1.709859    1.678041   -0.667403
     22          1           0       -1.553944   -2.608810   -0.369055
     23          1           0        0.905506   -2.515754   -0.613689
     24          1           0       -3.760866   -0.396068   -1.420769
     25          1           0       -3.644407   -1.478663   -0.020854
     26          1           0       -3.965553   -0.487683    2.140018
     27          1           0       -2.496646    0.502996    1.914169
     28          1           0       -4.069796    1.295174    2.210816
     29          1           0        1.761980    1.957749   -0.849368
     30          1           0        3.521737    1.955067    0.401171
     31          1           0        2.183408    1.439255    1.225026
 ---------------------------------------------------------------------

 SCF Done:  E(UB3LYP) =  -634.821473667     A.U. after   33 cycles
 SCF Done:  E(UB3LYP) =  -634.821473667     a.u. after    1 cycles

 The electronic state is 2-A.
 Alpha  occ. eigenvalues --  -19.04474 -19.03856 -14.18755 -10.12862 -10.12778
 Alpha  occ. eigenvalues --  -10.12377 -10.09548 -10.07540 -10.07183 -10.06694
 Alpha  occ. eigenvalues --  -10.06556 -10.06504 -10.06081 -10.05113  -0.95619
 Alpha  occ. eigenvalues --   -0.95037  -0.78501  -0.75300  -0.68601  -0.64613
 Alpha  occ. eigenvalues --   -0.63829  -0.62007  -0.58613  -0.54357  -0.50901
 Alpha  occ. eigenvalues --   -0.49948  -0.47124  -0.42639  -0.40305  -0.39579
 Alpha  occ. eigenvalues --   -0.39267  -0.38804  -0.36018  -0.35899  -0.34793
 Alpha  occ. eigenvalues --   -0.33419  -0.32482  -0.30773  -0.30369  -0.29512
 Alpha  occ. eigenvalues --   -0.29002  -0.28373  -0.26714  -0.26395  -0.25067
 Alpha  occ. eigenvalues --   -0.24052  -0.23398  -0.22867  -0.21933  -0.17749
 Alpha  occ. eigenvalues --   -0.15110  -0.13668  -0.11904   0.04362
 Alpha virt. eigenvalues --    0.06293   0.07417   0.07561   0.08363   0.09104
 Alpha virt. eigenvalues --    0.09138   0.09454   0.10220   0.10724   0.11055
 Alpha virt. eigenvalues --    0.11456   0.11765   0.11956   0.12685   0.13282

  Beta  occ. eigenvalues --  -19.04444 -19.03851 -14.18704 -10.12868 -10.12773
  Beta  occ. eigenvalues --  -10.12364 -10.09524 -10.07486 -10.07143 -10.06640
  Beta  occ. eigenvalues --  -10.06565 -10.06473 -10.06043 -10.05094  -0.95560
  Beta  occ. eigenvalues --   -0.95025  -0.78409  -0.75213  -0.68495  -0.64547
  Beta  occ. eigenvalues --   -0.63743  -0.61952  -0.58538  -0.54300  -0.50846
  Beta  occ. eigenvalues --   -0.49851  -0.47048  -0.42563  -0.40257  -0.39491
  Beta  occ. eigenvalues --   -0.39224  -0.38755  -0.35968  -0.35851  -0.34721
  Beta  occ. eigenvalues --   -0.33357  -0.32418  -0.30716  -0.30325  -0.29476
  Beta  occ. eigenvalues --   -0.28951  -0.28329  -0.26666  -0.26336  -0.25020
  Beta  occ. eigenvalues --   -0.23995  -0.23335  -0.22756  -0.21876  -0.17725
  Beta  occ. eigenvalues --   -0.14891  -0.13483  -0.11776
  Beta virt. eigenvalues --    0.06302   0.07322   0.07816   0.07906   0.09069
  Beta virt. eigenvalues --    0.09269   0.09539   0.09827   0.10511   0.10889
  Beta virt. eigenvalues --    0.11288   0.11804   0.12013   0.12164   0.12815

 Mulliken charges and spin densities:
               1          2
     1  C    0.274081  -0.930653
     2  C    0.802212  -0.946088
     3  C    0.113703  -0.535407
     4  C    0.261089   1.112021
     5  C   -0.954176   0.054210
     6  C    0.219351  -0.428682
     7  C    0.907132  -0.174986
     8  C   -0.870590   0.074656
     9  C   -0.218473  -0.181196
    10  C    0.803153  -1.331398
    11  O   -0.134304   0.016120
    12  C   -0.054683  -0.295678
    13  O   -0.212513   0.039395
    14  N   -0.405541  -0.015015
    15  H    0.070701   0.071361
    16  H    0.086564   0.071787
    17  H   -0.075864   0.215135
    18  H   -0.568053   0.773406
    19  H   -0.460696   0.651839
    20  H   -0.525101   0.723254
    21  H    0.049794   0.141391
    22  H   -0.227891   0.385049
    23  H   -0.206876   0.340634
    24  H    0.009558   0.168358
    25  H    0.083160   0.059931
    26  H   -0.034898   0.149838
    27  H    0.108175   0.042646
    28  H    0.092519   0.053079
    29  H    0.077240   0.198271
    30  H   -0.195614   0.442873
    31  H    0.186841   0.053849
 Sum of Mulliken charges =  -1.00000   1.00000

 Dipole moment (field-independent basis, Debye):
    X=             -7.1741    Y=             -0.7521    Z=              2.3940  Tot=              7.6003
 Quadrupole moment (field-independent basis, Debye-Ang):
   XX=           -168.9369   YY=           -123.0188   ZZ=           -114.9876
   XY=             -1.1122   XZ=              1.8464   YZ=             -0.0180

 Summary of Natural Population Analysis:

                                       Natural Population
                Natural  -----------------------------------------------
    Atom  No    Charge         Core      Valence    Rydberg      Total
 -----------------------------------------------------------------------
      C    1   -0.28938      0.99964     2.28297    0.00677     3.28938
      C    2   -0.01166      0.99961     1.99891    0.01314     3.01166
      C    3   -0.21168      0.99959     2.19982    0.01228     3.21168
      C    4   -0.04699      0.99946     2.03621    0.01132     3.04699
      C    5    0.15969      0.99933     1.82683    0.01415     2.84031
      C    6   -0.11932      0.99947     2.11117    0.00869     3.11932
      C    7   -0.02475      0.99950     2.01682    0.00843     3.02475
      C    8   -0.12134      0.99951     2.11156    0.01027     3.12134
      C    9   -0.07691      0.99952     2.06789    0.00949     3.07691
      C   10   -0.01109      0.99954     1.99954    0.01201     3.01109
      O   11   -0.29733      0.99989     3.28754    0.00990     4.29733
      C   12   -0.10047      0.99962     2.09233    0.00852     3.10047
      O   13   -0.34811      0.99988     3.34139    0.00684     4.34811
      N   14   -0.42733      0.99977     2.91633    0.01124     3.92733
      H   15    0.09864      0.00000     0.40028    0.00109     0.40136
      H   16    0.10204      0.00000     0.39702    0.00094     0.39796
      H   17    0.09966      0.00000     0.39932    0.00102     0.40034
      H   18    0.09359      0.00000     0.40251    0.00390     0.40641
      H   19    0.10299      0.00000     0.39383    0.00318     0.39701
      H   20    0.11049      0.00000     0.38692    0.00259     0.38951
      H   21    0.10768      0.00000     0.39048    0.00184     0.39232
      H   22    0.09673      0.00000     0.40173    0.00155     0.40327
      H   23    0.09963      0.00000     0.39893    0.00144     0.40037
      H   24    0.09519      0.00000     0.40331    0.00150     0.40481
      H   25    0.07891      0.00000     0.41945    0.00164     0.42109
      H   26    0.07504      0.00000     0.42311    0.00185     0.42496
      H   27    0.08615      0.00000     0.41241    0.00144     0.41385
      H   28    0.08698      0.00000     0.41187    0.00114     0.41302
      H   29    0.24071      0.00000     0.25485    0.00444     0.25929
      H   30    0.17823      0.00000     0.31848    0.00329     0.32177
      H   31    0.17402      0.00000     0.32367    0.00231     0.32598
 =======================================================================
   * Total *    0.00000     13.99433    38.82747    0.17821    53.00000

 Normal termination of Gaussian 16 at Thu Dec 10 09:56:58 2020.
