 Gaussian 16, Revision A.03,

 -----------------------------------------------------------
 # opt freq B3LYP/6-31G(d) empiricaldispersion=gd3bj scf=xqc
 -----------------------------------------------------------

 ------------------------------
 CID_28739257_JID_9442_neutraal
 ------------------------------
 Symbolic Z-matrix:
 Charge =  0 Multiplicity = 1

 SCF Done:  E(RB3LYP) =  -822.728785625     A.U. after   16 cycles
 SCF Done:  E(RB3LYP) =  -822.732748638     A.U. after   14 cycles
 SCF Done:  E(RB3LYP) =  -822.732580385     A.U. after   15 cycles
 SCF Done:  E(RB3LYP) =  -822.734342205     A.U. after   13 cycles
 SCF Done:  E(RB3LYP) =  -822.735416461     A.U. after   13 cycles
 SCF Done:  E(RB3LYP) =  -822.736166558     A.U. after   15 cycles
 SCF Done:  E(RB3LYP) =  -822.736889094     A.U. after   16 cycles
 SCF Done:  E(RB3LYP) =  -822.737822994     A.U. after   15 cycles
 SCF Done:  E(RB3LYP) =  -822.737094221     A.U. after   15 cycles
 SCF Done:  E(RB3LYP) =  -822.738177050     A.U. after   13 cycles
 SCF Done:  E(RB3LYP) =  -822.738690624     A.U. after   12 cycles
 SCF Done:  E(RB3LYP) =  -822.738693801     A.U. after   10 cycles
 SCF Done:  E(RB3LYP) =  -822.738695287     A.U. after   10 cycles
 SCF Done:  E(RB3LYP) =  -822.738695517     A.U. after    9 cycles
 SCF Done:  E(RB3LYP) =  -822.738695576     A.U. after    8 cycles
 SCF Done:  E(RB3LYP) =  -822.738695582     A.U. after    7 cycles
 Optimization completed.
    -- Stationary point found.
 Normal termination of Gaussian 16 at Sun Dec 13 20:29:37 2020.

 --------------------------------------------------------------------
 #N Geom=AllCheck Guess=TCheck SCRF=Check GenChk RB3LYP/6-31G(d) Freq
 --------------------------------------------------------------------

 Structure from the checkpoint file:  "JID_9442.chk"
 ------------------------------
 CID_28739257_JID_9442_neutraal
 ------------------------------
 Charge =  0 Multiplicity = 1

 SCF Done:  E(RB3LYP) =  -822.738695582     A.U. after    1 cycles

  Exact polarizability: 230.217  30.275 196.649   1.513  -0.034 108.073
 Approx polarizability: 339.250  69.501 339.314   3.581   3.064 185.587

                      1                      2                      3
                      A                      A                      A
 Frequencies --     11.9307                24.1202                29.1305
 Red. masses --      3.9516                 4.4197                 4.8707
 Frc consts  --      0.0003                 0.0015                 0.0024
 IR Inten    --      0.6505                 0.0809                 0.2042

                      4                      5                      6
                      A                      A                      A
 Frequencies --     42.2913                65.4691                72.0068
 Red. masses --      4.9604                 6.1266                 4.5502
 Frc consts  --      0.0052                 0.0155                 0.0139
 IR Inten    --      2.5746                 0.6520                 0.2315

                      7                      8                      9
                      A                      A                      A
 Frequencies --    112.1419               128.6989               133.0241
 Red. masses --      2.3238                 1.3757                 5.4568
 Frc consts  --      0.0172                 0.0134                 0.0569
 IR Inten    --      0.4896                 0.6355                 0.3025

                     10                     11                     12
                      A                      A                      A
 Frequencies --    217.3409               223.9593               253.7207
 Red. masses --      6.6994                 6.7709                 4.2556
 Frc consts  --      0.1865                 0.2001                 0.1614
 IR Inten    --      3.6643                 1.2856                 0.2126

                     13                     14                     15
                      A                      A                      A
 Frequencies --    307.4407               362.0361               370.1876
 Red. masses --      5.8174                 5.7752                 1.0936
 Frc consts  --      0.3240                 0.4460                 0.0883
 IR Inten    --      5.0657                 6.2010               115.6055

                     16                     17                     18
                      A                      A                      A
 Frequencies --    391.1801               399.4129               413.1652
 Red. masses --      5.4443                 6.9181                 3.0077
 Frc consts  --      0.4908                 0.6503                 0.3025
 IR Inten    --      1.3351                11.8449                 0.0997

                     19                     20                     21
                      A                      A                      A
 Frequencies --    418.2342               428.1710               456.0510
 Red. masses --      5.5807                 3.1798                 4.0996
 Frc consts  --      0.5751                 0.3435                 0.5024
 IR Inten    --      1.0841                 0.2613                 5.9971

                     22                     23                     24
                      A                      A                      A
 Frequencies --    505.3657               546.6091               553.7772
 Red. masses --      6.8462                 3.1003                 3.9917
 Frc consts  --      1.0302                 0.5458                 0.7212
 IR Inten    --      3.4288                19.2888                 3.9423

                     25                     26                     27
                      A                      A                      A
 Frequencies --    589.5976               604.6654               637.7338
 Red. masses --      7.6060                 4.5437                 6.5491
 Frc consts  --      1.5578                 0.9788                 1.5693
 IR Inten    --      7.3786                10.3336                 0.0622

                     28                     29                     30
                      A                      A                      A
 Frequencies --    659.0217               667.5017               704.1323
 Red. masses --      7.0025                 7.1579                 2.0069
 Frc consts  --      1.7919                 1.8790                 0.5863
 IR Inten    --      0.6290                 5.6096                20.2718

                     31                     32                     33
                      A                      A                      A
 Frequencies --    729.4552               735.5050               775.8797
 Red. masses --     11.6359                 4.5340                 1.7392
 Frc consts  --      3.6479                 1.4451                 0.6169
 IR Inten    --     11.4909                 8.9807                33.5237

                     34                     35                     36
                      A                      A                      A
 Frequencies --    805.1549               813.0742               848.3545
 Red. masses --      5.3332                 1.3147                 1.6185
 Frc consts  --      2.0370                 0.5121                 0.6863
 IR Inten    --      0.9212                 7.3245                26.2120

                     37                     38                     39
                      A                      A                      A
 Frequencies --    853.4700               859.8843               936.1106
 Red. masses --      5.8962                 1.2489                 1.3872
 Frc consts  --      2.5305                 0.5441                 0.7162
 IR Inten    --      9.4748                 0.3320                 1.5026

                     40                     41                     42
                      A                      A                      A
 Frequencies --    938.3175               949.1585               959.1352
 Red. masses --      1.3362                 3.2846                 1.3188
 Frc consts  --      0.6932                 1.7435                 0.7148
 IR Inten    --      0.1526                 5.9141                 0.2629

                     43                     44                     45
                      A                      A                      A
 Frequencies --    971.8954              1000.3955              1020.2224
 Red. masses --      1.3466                 1.2576                 6.2150
 Frc consts  --      0.7494                 0.7415                 3.8114
 IR Inten    --      0.0613                 0.0139                 0.9867

                     46                     47                     48
                      A                      A                      A
 Frequencies --   1034.7379              1057.1349              1084.6655
 Red. masses --      2.6907                 2.3041                 4.4207
 Frc consts  --      1.6974                 1.5171                 3.0643
 IR Inten    --      1.6818                 2.0318                17.5076

                     49                     50                     51
                      A                      A                      A
 Frequencies --   1112.0503              1128.3598              1149.0815
 Red. masses --      1.5788                 1.3174                 1.9524
 Frc consts  --      1.1503                 0.9882                 1.5189
 IR Inten    --      2.5508                14.1246               193.2495

                     52                     53                     54
                      A                      A                      A
 Frequencies --   1162.3514              1195.5860              1197.2871
 Red. masses --      1.2794                 1.0986                 1.1246
 Frc consts  --      1.0184                 0.9252                 0.9498
 IR Inten    --      1.9261                 0.3086                14.4738

                     55                     56                     57
                      A                      A                      A
 Frequencies --   1211.2838              1213.2097              1288.7506
 Red. masses --      1.3581                 1.1622                 4.5135
 Frc consts  --      1.1740                 1.0079                 4.4167
 IR Inten    --    129.0269                19.2158                12.7373

                     58                     59                     60
                      A                      A                      A
 Frequencies --   1309.8947              1331.3156              1334.8572
 Red. masses --      3.1830                 1.8183                 3.0438
 Frc consts  --      3.2178                 1.8988                 3.1954
 IR Inten    --     85.3662                 2.4182                 4.4156

                     61                     62                     63
                      A                      A                      A
 Frequencies --   1346.1313              1368.2005              1379.7115
 Red. masses --      6.0472                 1.8399                 2.5496
 Frc consts  --      6.4562                 2.0293                 2.8596
 IR Inten    --    127.6805                 1.0973                35.0399

                     64                     65                     66
                      A                      A                      A
 Frequencies --   1396.4515              1456.3246              1484.1735
 Red. masses --      4.7128                 1.2006                 2.8271
 Frc consts  --      5.4148                 1.5002                 3.6691
 IR Inten    --    299.3175                18.0657                28.7772

                     67                     68                     69
                      A                      A                      A
 Frequencies --   1491.0169              1524.9580              1537.2889
 Red. masses --      2.2352                 1.0462                 1.1181
 Frc consts  --      2.9277                 1.4334                 1.5568
 IR Inten    --      4.8665                10.1692                 4.3948

                     70                     71                     72
                      A                      A                      A
 Frequencies --   1544.6950              1567.1234              1629.6613
 Red. masses --      2.1620                 2.8154                 5.1457
 Frc consts  --      3.0394                 4.0737                 8.0518
 IR Inten    --     27.2793               148.1063                 0.9111

                     73                     74                     75
                      A                      A                      A
 Frequencies --   1649.6411              1660.9813              1675.2493
 Red. masses --      6.1294                 5.4796                 6.1028
 Frc consts  --      9.8276                 8.9070                10.0911
 IR Inten    --     10.5889                 2.3626                 9.8440

                     76                     77                     78
                      A                      A                      A
 Frequencies --   1743.3166              2331.6765              3045.4264
 Red. masses --     11.3404                11.9974                 1.0363
 Frc consts  --     20.3063                38.4303                 5.6629
 IR Inten    --    417.0798               167.9121                65.8010

                     79                     80                     81
                      A                      A                      A
 Frequencies --   3098.0580              3173.8062              3181.1448
 Red. masses --      1.1054                 1.0893                 1.0985
 Frc consts  --      6.2512                 6.4648                 6.5494
 IR Inten    --     25.6800                17.1665                 1.3936

                     82                     83                     84
                      A                      A                      A
 Frequencies --   3187.5309              3197.5265              3206.6349
 Red. masses --      1.0854                 1.0889                 1.0887
 Frc consts  --      6.4976                 6.5594                 6.5956
 IR Inten    --      0.0710                 9.5592                 3.9336

                     85                     86                     87
                      A                      A                      A
 Frequencies --   3207.8698              3210.0780              3217.0494
 Red. masses --      1.0928                 1.0933                 1.0944
 Frc consts  --      6.6253                 6.6377                 6.6731
 IR Inten    --     21.0079                 6.3582                11.9331

                     88                     89                     90
                      A                      A                      A
 Frequencies --   3220.5542              3223.5221              3751.1140
 Red. masses --      1.0969                 1.0948                 1.0659
 Frc consts  --      6.7032                 6.7024                 8.8370
 IR Inten    --     11.7958                 3.8605                47.9255

 - Thermochemistry -
 -------------------
 Temperature   298.150 Kelvin.  Pressure   1.00000 Atm.
 Atom     1 has atomic number  6 and mass  12.00000

 Molecular mass:   251.09463 amu.
 Principal axes and moments of inertia in atomic units:
                           1         2         3
     Eigenvalues --  3831.261076366.184349547.66111
           X            0.99997   0.00750   0.00061
           Y           -0.00750   0.99997  -0.00332
           Z           -0.00063   0.00332   0.99999
 This molecule is an asymmetric top.
 Rotational symmetry number  1.
 Warning -- assumption of classical behavior for rotation
           may cause significant error
 Rotational temperatures (Kelvin)      0.02261     0.01361     0.00907
 Rotational constants (GHZ):           0.47106     0.28349     0.18902
 Zero-point vibrational energy     658195.0 (Joules/Mol)
                                  157.31238 (Kcal/Mol)
 Warning -- explicit consideration of  26 degrees of freedom as
           vibrations may cause significant error
 Vibrational temperatures:     17.17    34.70    41.91    60.85    94.20
          (Kelvin)            103.60   161.35   185.17   191.39   312.71
                              322.23   365.05   442.34   520.89   532.62
                              562.82   574.67   594.45   601.75   616.04
                              656.16   727.11   786.45   796.76   848.30
                              869.98   917.56   948.19   960.39  1013.09
                             1049.52  1058.23  1116.32  1158.44  1169.83
                             1220.59  1227.95  1237.18  1346.85  1350.03
                             1365.63  1379.98  1398.34  1439.35  1467.87
                             1488.76  1520.98  1560.59  1599.99  1623.46
                             1653.27  1672.36  1720.18  1722.63  1742.77
                             1745.54  1854.22  1884.65  1915.47  1920.56
                             1936.78  1968.54  1985.10  2009.18  2095.33
                             2135.39  2145.24  2194.07  2211.82  2222.47
                             2254.74  2344.72  2373.47  2389.78  2410.31
                             2508.24  3354.76  4381.69  4457.41  4566.40
                             4576.96  4586.15  4600.53  4613.63  4615.41
                             4618.59  4628.62  4633.66  4637.93  5397.02

 Zero-point correction=                           0.250693 (Hartree/Particle)
 Thermal correction to Energy=                    0.267834
 Thermal correction to Enthalpy=                  0.268778
 Thermal correction to Gibbs Free Energy=         0.201947
 Sum of electronic and zero-point Energies=           -822.488002
 Sum of electronic and thermal Energies=              -822.470862
 Sum of electronic and thermal Enthalpies=            -822.469917
 Sum of electronic and thermal Free Energies=         -822.536748

                     E (Thermal)             CV                S
                      KCal/Mol        Cal/Mol-Kelvin    Cal/Mol-Kelvin
 Total                  168.068             64.096            140.657
 Electronic               0.000              0.000              0.000
 Translational            0.889              2.981             42.462
 Rotational               0.889              2.981             33.809
 Vibrational            166.291             58.135             64.386
 Vibration     1          0.593              1.987              7.660
 Vibration     2          0.593              1.985              6.262
 Vibration     3          0.593              1.984              5.888
 Vibration     4          0.595              1.980              5.149
 Vibration     5          0.597              1.971              4.285
 Vibration     6          0.598              1.967              4.098
 Vibration     7          0.607              1.939              3.231
 Vibration     8          0.611              1.925              2.965
 Vibration     9          0.613              1.920              2.902
 Vibration    10          0.646              1.815              1.981
 Vibration    11          0.649              1.805              1.927
 Vibration    12          0.665              1.757              1.705
 Vibration    13          0.697              1.660              1.376
 Vibration    14          0.736              1.550              1.113
 Vibration    15          0.742              1.533              1.079
 Vibration    16          0.759              1.489              0.996
 Vibration    17          0.765              1.471              0.965
 Vibration    18          0.777              1.442              0.916
 Vibration    19          0.781              1.431              0.898
 Vibration    20          0.790              1.409              0.865
 Vibration    21          0.814              1.348              0.778
 Vibration    22          0.861              1.238              0.645
 Vibration    23          0.902              1.147              0.551
 Vibration    24          0.909              1.131              0.536
 Vibration    25          0.947              1.054              0.468
 Vibration    26          0.963              1.022              0.442

 Optimization completed.
    -- Stationary point found.
 Normal termination of Gaussian 16 at Sun Dec 13 20:42:44 2020.

 ----------------------------------------------------------------------
 # B3LYP/6-311++G(d,p) empiricaldispersion=gd3bj scf=xqc pop=npa geom=c
 heck
 ----------------------------------------------------------------------

 --------------------------------------
 CID_28739257_JID_9442_Energie_neutraal
 --------------------------------------
 Structure from the checkpoint file:  "JID_9442.chk"
 Charge =  0 Multiplicity = 1

 SCF Done:  E(RB3LYP) =  -822.967102220     A.U. after   17 cycles
 Normal termination of Gaussian 16 at Sun Dec 13 20:48:00 2020.

 ----------------------------------------------------------------------
 # B3LYP/6-311++G(d,p) empiricaldispersion=gd3bj scf=xqc pop=npa geom=c
 heck
 ----------------------------------------------------------------------

 ------------------------------------
 CID_28739257_JID_9442_Energie_kation
 ------------------------------------
 Structure from the checkpoint file:  "JID_9442.chk"
 Charge =  1 Multiplicity = 2

 SCF Done:  E(UB3LYP) =  -822.669396110     A.U. after   28 cycles
 Normal termination of Gaussian 16 at Sun Dec 13 20:59:52 2020.
 Gaussian 16:  ES64L-G16RevA.03 25-Dec-2016

 ----------------------------------------------------------------------
 # B3LYP/6-311++G(d,p) empiricaldispersion=gd3bj scf=xqc pop=npa geom=c
 heck
 ----------------------------------------------------------------------

 -----------------------------------
 CID_28739257_JID_9442_Energie_anion
 -----------------------------------
 Structure from the checkpoint file:  "JID_9442.chk"
 Charge = -1 Multiplicity = 2

                         Standard orientation:
 ---------------------------------------------------------------------
 Center     Atomic      Atomic             Coordinates (Angstroms)
 Number     Number       Type             X           Y           Z
 ---------------------------------------------------------------------
      1          6           0        3.939469    1.516974   -0.035896
      2          7           0        2.510696    1.235100   -0.024489
      3          6           0        2.075175   -0.127193   -0.017043
      4          6           0        1.954643   -0.819255    1.188678
      5          6           0        1.496031   -2.134387    1.204901
      6          6           0        1.152777   -2.765987    0.004607
      7          6           0        1.277544   -2.079782   -1.209246
      8          6           0        1.741058   -0.769084   -1.213764
      9          8           0        0.688260   -4.049489   -0.045832
     10          6           0        1.606852    2.280748   -0.007258
     11          8           0        1.934442    3.462576   -0.005260
     12          6           0        0.223970    1.844807    0.007106
     13          6           0       -0.924955    1.456038    0.013280
     14          6           0       -2.227687    0.883951    0.011186
     15          6           0       -2.363272   -0.514924   -0.090103
     16          6           0       -3.628692   -1.092607   -0.095322
     17          6           0       -4.768523   -0.290206    0.001627
     18          6           0       -4.640507    1.096989    0.102878
     19          6           0       -3.379266    1.685556    0.107226
     20          1           0        4.408017    1.082302   -0.926489
     21          1           0        4.422909    1.095118    0.853214
     22          1           0        4.065797    2.599740   -0.043493
     23          1           0        2.201082   -0.314410    2.117631
     24          1           0        1.394925   -2.666056    2.148773
     25          1           0        1.006033   -2.586187   -2.129383
     26          1           0        1.826856   -0.221946   -2.147336
     27          1           0        0.657641   -4.409710    0.854026
     28          1           0       -1.469554   -1.126133   -0.166931
     29          1           0       -3.727453   -2.171323   -0.176254
     30          1           0       -5.754923   -0.745154   -0.002588
     31          1           0       -5.526178    1.721187    0.177641
     32          1           0       -3.269351    2.762341    0.184201
 ---------------------------------------------------------------------

 SCF Done:  E(UB3LYP) =  -822.979055222     A.U. after   30 cycles

 The electronic state is 2-A.
 Alpha  occ. eigenvalues --  -19.06531 -18.95357 -14.22241 -10.14736 -10.14591
 Alpha  occ. eigenvalues --  -10.10797 -10.09630 -10.08431 -10.08330 -10.08304
 Alpha  occ. eigenvalues --  -10.07987 -10.05816 -10.05294 -10.05138 -10.04775
 Alpha  occ. eigenvalues --  -10.04576 -10.04294 -10.03298 -10.02385  -0.97587
 Alpha  occ. eigenvalues --   -0.91023  -0.82887  -0.75348  -0.73470  -0.66176
 Alpha  occ. eigenvalues --   -0.65566  -0.64609  -0.62447  -0.62072  -0.58450
 Alpha  occ. eigenvalues --   -0.54126  -0.52360  -0.50136  -0.48318  -0.46882
 Alpha  occ. eigenvalues --   -0.45766  -0.44054  -0.40862  -0.39420  -0.36841
 Alpha  occ. eigenvalues --   -0.35514  -0.35305  -0.34209  -0.33582  -0.33025
 Alpha  occ. eigenvalues --   -0.32366  -0.31995  -0.31232  -0.30259  -0.30172
 Alpha  occ. eigenvalues --   -0.29821  -0.27589  -0.27395  -0.25659  -0.25382
 Alpha  occ. eigenvalues --   -0.24777  -0.23509  -0.22683  -0.18352  -0.16735
 Alpha  occ. eigenvalues --   -0.15484  -0.14506  -0.13782  -0.13609  -0.11764
 Alpha  occ. eigenvalues --   -0.11035   0.03440
 Alpha virt. eigenvalues --    0.05220   0.07474   0.07585   0.08135   0.08597
 Alpha virt. eigenvalues --    0.08737   0.09500   0.09888   0.10612   0.10815
 Alpha virt. eigenvalues --    0.11363   0.12223   0.12600   0.12911   0.13019

  Beta  occ. eigenvalues --  -19.06501 -18.95150 -14.22169 -10.14613 -10.14596
  Beta  occ. eigenvalues --  -10.10802 -10.09637 -10.08421 -10.08301 -10.08295
  Beta  occ. eigenvalues --  -10.07972 -10.05703 -10.05347 -10.05190 -10.04638
  Beta  occ. eigenvalues --  -10.04442 -10.04011 -10.03147 -10.02287  -0.97527
  Beta  occ. eigenvalues --   -0.90691  -0.82710  -0.75299  -0.73172  -0.66132
  Beta  occ. eigenvalues --   -0.65166  -0.64526  -0.62216  -0.61760  -0.58290
  Beta  occ. eigenvalues --   -0.54041  -0.52238  -0.49613  -0.48231  -0.46639
  Beta  occ. eigenvalues --   -0.45715  -0.43904  -0.40744  -0.39355  -0.36730
  Beta  occ. eigenvalues --   -0.35334  -0.35140  -0.34083  -0.33536  -0.32877
  Beta  occ. eigenvalues --   -0.32323  -0.31925  -0.31102  -0.30162  -0.30095
  Beta  occ. eigenvalues --   -0.29768  -0.27316  -0.26716  -0.25468  -0.24729
  Beta  occ. eigenvalues --   -0.24630  -0.23349  -0.22589  -0.17241  -0.16531
  Beta  occ. eigenvalues --   -0.15327  -0.14375  -0.13134  -0.12899  -0.11621
  Beta  occ. eigenvalues --   -0.09841
  Beta virt. eigenvalues --    0.06156   0.07499   0.07577   0.08065   0.08226
  Beta virt. eigenvalues --    0.08598   0.08853   0.09552   0.09817   0.10842
  Beta virt. eigenvalues --    0.10865   0.11309   0.12235   0.12620   0.12943

 Mulliken charges and spin densities:
               1          2
     1  C   -0.128374  -0.021955
     2  N    0.316508  -0.004334
     3  C   -1.326446   0.210661
     4  C    0.016550   0.157342
     5  C   -0.003227   0.088444
     6  C    0.290210  -0.919777
     7  C    0.088849  -0.151289
     8  C    0.112090   0.088342
     9  O   -0.205077   0.015016
    10  C    0.075250   0.067359
    11  O   -0.390194   0.069443
    12  C    0.051422   0.100783
    13  C    0.519492   0.109206
    14  C    0.114946   0.011099
    15  C   -0.701080   0.175761
    16  C   -0.152922  -0.043861
    17  C   -0.196878   0.209772
    18  C   -0.306003  -0.045037
    19  C   -0.296562   0.108430
    20  H    0.138817   0.002268
    21  H    0.116750   0.019492
    22  H    0.188549  -0.000975
    23  H    0.191114  -0.017479
    24  H   -0.349700   0.509358
    25  H    0.182912  -0.002280
    26  H    0.171393  -0.000073
    27  H   -0.033115   0.301757
    28  H    0.044735  -0.043182
    29  H    0.119304   0.025011
    30  H    0.102523  -0.014467
    31  H    0.121161   0.001687
    32  H    0.127002  -0.006522
 Sum of Mulliken charges =  -1.00000   1.00000

 Dipole moment (field-independent basis, Debye):
    X=              2.5990    Y=             -3.3147    Z=             -0.7510  Tot=              4.2786
 Quadrupole moment (field-independent basis, Debye-Ang):
   XX=           -147.3649   YY=           -165.0162   ZZ=           -121.0260
   XY=             -4.5866   XZ=             -0.8946   YZ=              2.9060

 Summary of Natural Population Analysis:

                                       Natural Population
                Natural  -----------------------------------------------
    Atom  No    Charge         Core      Valence    Rydberg      Total
 -----------------------------------------------------------------------
      C    1   -0.17527      0.99965     2.16954    0.00608     3.17527
      N    2   -0.25539      0.99962     2.74447    0.01130     3.75539
      C    3    0.06947      0.99946     1.91978    0.01129     2.93053
      C    4   -0.08602      0.99951     2.07733    0.00918     3.08602
      C    5   -0.13692      0.99952     2.12706    0.01034     3.13692
      C    6    0.15462      0.99939     1.83247    0.01352     2.84538
      C    7   -0.12531      0.99952     2.11617    0.00962     3.12531
      C    8   -0.08553      0.99951     2.07751    0.00852     3.08553
      O    9   -0.34075      0.99988     3.33431    0.00656     4.34075
      C   10    0.33002      0.99956     1.65069    0.01973     2.66998
      O   11   -0.30501      0.99988     3.29916    0.00596     4.30501
      C   12   -0.04231      0.99920     2.03618    0.00694     3.04231
      C   13    0.03180      0.99931     1.95652    0.01237     2.96820
      C   14    0.00656      0.99947     1.98326    0.01072     2.99344
      C   15   -0.07305      0.99959     2.05790    0.01556     3.07305
      C   16   -0.12214      0.99957     2.11424    0.00833     3.12214
      C   17   -0.05419      0.99957     2.04491    0.00970     3.05419
      C   18   -0.12509      0.99957     2.11625    0.00927     3.12509
      C   19   -0.07359      0.99960     2.05945    0.01454     3.07359
      H   20    0.08758      0.00000     0.41134    0.00108     0.41242
      H   21    0.08744      0.00000     0.41146    0.00110     0.41256
      H   22    0.11369      0.00000     0.38517    0.00114     0.38631
      H   23    0.10484      0.00000     0.39414    0.00102     0.39516
      H   24    0.10061      0.00000     0.39805    0.00134     0.39939
      H   25    0.10472      0.00000     0.39430    0.00098     0.39528
      H   26    0.10525      0.00000     0.39381    0.00094     0.39475
      H   27    0.23587      0.00000     0.25977    0.00437     0.26413
      H   28    0.10108      0.00000     0.39696    0.00196     0.39892
      H   29    0.09504      0.00000     0.40397    0.00099     0.40496
      H   30    0.08818      0.00000     0.41079    0.00102     0.41182
      H   31    0.09245      0.00000     0.40653    0.00101     0.40755
      H   32    0.09659      0.00000     0.40215    0.00125     0.40341
 =======================================================================
   * Total *    0.00525     18.99138    46.78565    0.21772    65.99475

 Normal termination of Gaussian 16 at Sun Dec 13 21:12:18 2020.
