 Gaussian 16, Revision A.03,

 -----------------------------------------------------------
 # opt freq B3LYP/6-31G(d) empiricaldispersion=gd3bj scf=xqc
 -----------------------------------------------------------

 ------------------------------
 CID_61949315_JID_9105_neutraal
 ------------------------------
 Symbolic Z-matrix:
 Charge =  0 Multiplicity = 1

 SCF Done:  E(RB3LYP) =  -882.165022780     A.U. after   15 cycles
 SCF Done:  E(RB3LYP) =  -882.157631608     A.U. after   13 cycles
 SCF Done:  E(RB3LYP) =  -882.169441873     A.U. after   12 cycles
 SCF Done:  E(RB3LYP) =  -882.170626423     A.U. after   13 cycles
 SCF Done:  E(RB3LYP) =  -882.171133527     A.U. after   13 cycles
 SCF Done:  E(RB3LYP) =  -882.171704448     A.U. after   13 cycles
 SCF Done:  E(RB3LYP) =  -882.172088853     A.U. after   12 cycles
 SCF Done:  E(RB3LYP) =  -882.172266127     A.U. after   12 cycles
 SCF Done:  E(RB3LYP) =  -882.172353822     A.U. after   12 cycles
 SCF Done:  E(RB3LYP) =  -882.172407661     A.U. after   11 cycles
 SCF Done:  E(RB3LYP) =  -882.172613926     A.U. after    9 cycles
 SCF Done:  E(RB3LYP) =  -882.172616263     A.U. after   10 cycles
 SCF Done:  E(RB3LYP) =  -882.172616722     A.U. after    8 cycles
 SCF Done:  E(RB3LYP) =  -882.172616866     A.U. after    7 cycles
 SCF Done:  E(RB3LYP) =  -882.172616916     A.U. after    7 cycles
 Optimization completed.
    -- Stationary point found.
 Normal termination of Gaussian 16 at Sun Dec 13 16:25:49 2020.

 --------------------------------------------------------------------
 #N Geom=AllCheck Guess=TCheck SCRF=Check GenChk RB3LYP/6-31G(d) Freq
 --------------------------------------------------------------------

 Structure from the checkpoint file:  "JID_9105.chk"
 ------------------------------
 CID_61949315_JID_9105_neutraal
 ------------------------------
 Charge =  0 Multiplicity = 1

 SCF Done:  E(RB3LYP) =  -882.172616916     A.U. after    1 cycles

  Exact polarizability: 154.663  11.322 176.363   4.401  -8.496 132.471
 Approx polarizability: 221.482  17.512 279.273  13.341 -24.379 232.834

                      1                      2                      3
                      A                      A                      A
 Frequencies --     18.3451                34.4294                41.2411
 Red. masses --      7.0316                 5.7458                 5.1565
 Frc consts  --      0.0014                 0.0040                 0.0052
 IR Inten    --      0.0943                 0.2651                 0.0033

                      4                      5                      6
                      A                      A                      A
 Frequencies --     57.4210                66.1426                77.9167
 Red. masses --      7.9699                 4.6155                 4.9653
 Frc consts  --      0.0155                 0.0119                 0.0178
 IR Inten    --      1.0631                 0.0632                 1.3557

                      7                      8                      9
                      A                      A                      A
 Frequencies --     99.6436               140.3786               180.4239
 Red. masses --      5.6388                 4.2192                 4.2739
 Frc consts  --      0.0330                 0.0490                 0.0820
 IR Inten    --      0.8203                 0.4373                 2.2597

                     10                     11                     12
                      A                      A                      A
 Frequencies --    183.6684               207.5743               229.3726
 Red. masses --      5.1930                 4.6504                 3.1673
 Frc consts  --      0.1032                 0.1181                 0.0982
 IR Inten    --      1.0561                 2.6286                 1.5314

                     13                     14                     15
                      A                      A                      A
 Frequencies --    300.0681               301.9742               339.7214
 Red. masses --      3.0936                 2.5594                 2.5705
 Frc consts  --      0.1641                 0.1375                 0.1748
 IR Inten    --      1.8987                 7.8579                 8.0901

                     16                     17                     18
                      A                      A                      A
 Frequencies --    397.1771               402.1633               416.0324
 Red. masses --      2.7767                 4.6411                 3.0007
 Frc consts  --      0.2581                 0.4423                 0.3060
 IR Inten    --      2.6095                 4.3363                 0.1814

                     19                     20                     21
                      A                      A                      A
 Frequencies --    463.5964               484.4235               493.8652
 Red. masses --      2.9421                 3.2075                 4.0678
 Frc consts  --      0.3726                 0.4435                 0.5846
 IR Inten    --     10.0154                 7.5585                 8.9631

                     22                     23                     24
                      A                      A                      A
 Frequencies --    523.2601               578.6288               592.2057
 Red. masses --      5.3529                 1.5533                 3.1276
 Frc consts  --      0.8635                 0.3064                 0.6463
 IR Inten    --      4.4743                42.5778                 0.1324

                     25                     26                     27
                      A                      A                      A
 Frequencies --    628.0691               637.4344               665.3847
 Red. masses --      2.8037                 6.3550                 3.6417
 Frc consts  --      0.6516                 1.5214                 0.9500
 IR Inten    --     41.5485                 0.0793                35.9833

                     28                     29                     30
                      A                      A                      A
 Frequencies --    704.8114               710.9410               737.9463
 Red. masses --      4.1185                 2.5347                 1.2719
 Frc consts  --      1.2054                 0.7548                 0.4081
 IR Inten    --     42.8058                 9.6002                38.6488

                     31                     32                     33
                      A                      A                      A
 Frequencies --    753.9882               763.6429               768.7758
 Red. masses --      1.4675                 3.0672                 4.1704
 Frc consts  --      0.4915                 1.0538                 1.4522
 IR Inten    --     29.7331                22.8075                18.6382

                     34                     35                     36
                      A                      A                      A
 Frequencies --    798.0566               817.0536               858.9178
 Red. masses --      4.5699                 2.5913                 1.2511
 Frc consts  --      1.7148                 1.0192                 0.5438
 IR Inten    --     12.6477                 9.2293                 0.2269

                     37                     38                     39
                      A                      A                      A
 Frequencies --    864.3461               875.3921               909.4022
 Red. masses --      2.2826                 1.3394                 1.6813
 Frc consts  --      1.0048                 0.6047                 0.8192
 IR Inten    --      4.6468                 3.3034                 0.3110

                     40                     41                     42
                      A                      A                      A
 Frequencies --    919.8093               929.7745               964.4504
 Red. masses --      5.4765                 2.0696                 1.3481
 Frc consts  --      2.7299                 1.0541                 0.7388
 IR Inten    --      7.4541                10.4264                 0.2192

                     43                     44                     45
                      A                      A                      A
 Frequencies --    978.4129               988.8720              1020.1489
 Red. masses --      2.0413                 1.2416                 4.4163
 Frc consts  --      1.1513                 0.7153                 2.7079
 IR Inten    --     24.6758                 0.4785                 5.7025

                     46                     47                     48
                      A                      A                      A
 Frequencies --   1027.2421              1057.0701              1058.6203
 Red. masses --      2.6089                 2.0646                 2.0251
 Frc consts  --      1.6220                 1.3593                 1.3371
 IR Inten    --     22.1938                14.7424                 2.6835

                     49                     50                     51
                      A                      A                      A
 Frequencies --   1072.4128              1084.5279              1122.2183
 Red. masses --      1.7626                 2.2219                 2.3013
 Frc consts  --      1.1943                 1.5398                 1.7076
 IR Inten    --      9.2810                26.0805                41.3918

                     52                     53                     54
                      A                      A                      A
 Frequencies --   1131.9184              1137.6620              1154.9899
 Red. masses --      2.6037                 3.1918                 2.6941
 Frc consts  --      1.9655                 2.4339                 2.1175
 IR Inten    --     16.5638                88.7639               189.2452

                     55                     56                     57
                      A                      A                      A
 Frequencies --   1180.5960              1193.4653              1216.3296
 Red. masses --      2.8988                 1.0935                 1.2281
 Frc consts  --      2.3805                 0.9177                 1.0705
 IR Inten    --     38.7360                 0.1141                 2.4430

                     58                     59                     60
                      A                      A                      A
 Frequencies --   1221.4584              1230.6719              1239.5106
 Red. masses --      1.1806                 2.4263                 2.4114
 Frc consts  --      1.0378                 2.1651                 2.1829
 IR Inten    --      2.4499                 1.0757                40.4529

                     61                     62                     63
                      A                      A                      A
 Frequencies --   1270.6885              1281.4962              1333.8429
 Red. masses --      1.4997                 1.5723                 1.3494
 Frc consts  --      1.4267                 1.5214                 1.4144
 IR Inten    --     18.8813                10.7346                14.9329

                     64                     65                     66
                      A                      A                      A
 Frequencies --   1341.4125              1350.7524              1369.5397
 Red. masses --      1.5583                 1.5289                 2.0128
 Frc consts  --      1.6520                 1.6436                 2.2244
 IR Inten    --      3.1949                 2.5974                 0.3186

                     67                     68                     69
                      A                      A                      A
 Frequencies --   1384.3183              1398.8406              1410.8679
 Red. masses --      2.0223                 1.3959                 1.4046
 Frc consts  --      2.2834                 1.6093                 1.6474
 IR Inten    --     14.8696                 3.3557                11.1518

                     70                     71                     72
                      A                      A                      A
 Frequencies --   1423.2082              1447.2567              1477.9258
 Red. masses --      1.3687                 1.3132                 5.7521
 Frc consts  --      1.6334                 1.6206                 7.4026
 IR Inten    --     38.6769                 7.5372                45.0961

                     73                     74                     75
                      A                      A                      A
 Frequencies --   1499.5277              1509.7925              1513.0739
 Red. masses --      1.8502                 1.1185                 1.1044
 Frc consts  --      2.4512                 1.5021                 1.4897
 IR Inten    --      1.7186                 0.9803                 7.1616

                     76                     77                     78
                      A                      A                      A
 Frequencies --   1522.2787              1534.4337              1550.4125
 Red. masses --      1.1703                 1.1007                 2.2191
 Frc consts  --      1.5978                 1.5269                 3.1429
 IR Inten    --     12.7384                 0.7155                 5.1296

                     79                     80                     81
                      A                      A                      A
 Frequencies --   1554.4951              1638.9653              1646.0432
 Red. masses --      4.5780                 7.9252                 5.4016
 Frc consts  --      6.5178                12.5429                 8.6229
 IR Inten    --     40.3890                24.6330                 0.8430

                     82                     83                     84
                      A                      A                      A
 Frequencies --   1669.4910              1823.4986              3028.0847
 Red. masses --      5.5865                 9.7205                 1.0680
 Frc consts  --      9.1740                19.0436                 5.7700
 IR Inten    --      5.1864               405.4852                21.1721

                     85                     86                     87
                      A                      A                      A
 Frequencies --   3039.6649              3056.6004              3068.4195
 Red. masses --      1.0643                 1.0591                 1.0667
 Frc consts  --      5.7940                 5.8297                 5.9175
 IR Inten    --     24.9991                49.8501                15.1204

                     88                     89                     90
                      A                      A                      A
 Frequencies --   3075.5545              3087.6246              3103.1406
 Red. masses --      1.0940                 1.0985                 1.1047
 Frc consts  --      6.0969                 6.1703                 6.2678
 IR Inten    --      9.5737                36.5907                52.6386

                     91                     92                     93
                      A                      A                      A
 Frequencies --   3146.7814              3170.8849              3179.3038
 Red. masses --      1.0984                 1.0867                 1.0858
 Frc consts  --      6.4082                 6.4374                 6.4664
 IR Inten    --     11.0472                 9.1377                 0.2607

                     94                     95                     96
                      A                      A                      A
 Frequencies --   3189.7481              3198.6071              3208.0347
 Red. masses --      1.0897                 1.0936                 1.0979
 Frc consts  --      6.5324                 6.5924                 6.6573
 IR Inten    --     13.7986                42.4008                15.7534

                     97                     98                     99
                      A                      A                      A
 Frequencies --   3288.4990              3315.2994              3698.6412
 Red. masses --      1.0916                 1.1058                 1.0641
 Frc consts  --      6.9549                 7.1607                 8.5764
 IR Inten    --      0.7316                 0.4209                69.6683

 - Thermochemistry -
 -------------------
 Temperature   298.150 Kelvin.  Pressure   1.00000 Atm.
 Atom     1 has atomic number  6 and mass  12.00000

 Molecular mass:   260.10486 amu.
 Principal axes and moments of inertia in atomic units:
                           1         2         3
     Eigenvalues --  2818.662786685.915618338.83586
           X            1.00000  -0.00073  -0.00169
           Y            0.00073   1.00000   0.00260
           Z            0.00168  -0.00260   1.00000
 This molecule is an asymmetric top.
 Rotational symmetry number  1.
 Warning -- assumption of classical behavior for rotation
           may cause significant error
 Rotational temperatures (Kelvin)      0.03073     0.01295     0.01039
 Rotational constants (GHZ):           0.64028     0.26993     0.21643
 Zero-point vibrational energy     752816.2 (Joules/Mol)
                                  179.92740 (Kcal/Mol)
 Warning -- explicit consideration of  24 degrees of freedom as
           vibrations may cause significant error
 Vibrational temperatures:     26.39    49.54    59.34    82.62    95.16
          (Kelvin)            112.10   143.36   201.97   259.59   264.26
                              298.65   330.02   431.73   434.47   488.78
                              571.45   578.62   598.58   667.01   696.98
                              710.56   752.85   832.52   852.05   903.65
                              917.13   957.34  1014.07  1022.89  1061.74
                             1084.82  1098.71  1106.10  1148.23  1175.56
                             1235.79  1243.60  1259.49  1308.43  1323.40
                             1337.74  1387.63  1407.72  1422.77  1467.77
                             1477.97  1520.89  1523.12  1542.96  1560.39
                             1614.62  1628.58  1636.84  1661.77  1698.61
                             1717.13  1750.03  1757.41  1770.66  1783.38
                             1828.24  1843.79  1919.10  1929.99  1943.43
                             1970.46  1991.73  2012.62  2029.92  2047.68
                             2082.28  2126.41  2157.49  2172.25  2176.98
                             2190.22  2207.71  2230.70  2236.57  2358.11
                             2368.29  2402.03  2623.61  4356.74  4373.40
                             4397.77  4414.77  4425.04  4442.40  4464.73
                             4527.52  4562.20  4574.31  4589.34  4602.08
                             4615.65  4731.42  4769.98  5321.52

 Zero-point correction=                           0.286733 (Hartree/Particle)
 Thermal correction to Energy=                    0.303725
 Thermal correction to Enthalpy=                  0.304669
 Thermal correction to Gibbs Free Energy=         0.239472
 Sum of electronic and zero-point Energies=           -881.885884
 Sum of electronic and thermal Energies=              -881.868892
 Sum of electronic and thermal Enthalpies=            -881.867948
 Sum of electronic and thermal Free Energies=         -881.933145

                     E (Thermal)             CV                S
                      KCal/Mol        Cal/Mol-Kelvin    Cal/Mol-Kelvin
 Total                  190.590             64.628            137.220
 Electronic               0.000              0.000              0.000
 Translational            0.889              2.981             42.567
 Rotational               0.889              2.981             33.418
 Vibrational            188.813             58.666             61.234
 Vibration     1          0.593              1.986              6.806
 Vibration     2          0.594              1.983              5.556
 Vibration     3          0.594              1.981              5.199
 Vibration     4          0.596              1.975              4.544
 Vibration     5          0.598              1.970              4.265
 Vibration     6          0.599              1.964              3.943
 Vibration     7          0.604              1.949              3.461
 Vibration     8          0.615              1.913              2.799
 Vibration     9          0.629              1.866              2.324
 Vibration    10          0.631              1.862              2.291
 Vibration    11          0.641              1.829              2.065
 Vibration    12          0.652              1.796              1.884
 Vibration    13          0.693              1.674              1.417
 Vibration    14          0.694              1.670              1.406
 Vibration    15          0.720              1.596              1.213
 Vibration    16          0.764              1.476              0.973
 Vibration    17          0.768              1.465              0.955
 Vibration    18          0.779              1.435              0.906
 Vibration    19          0.821              1.331              0.756
 Vibration    20          0.841              1.285              0.698
 Vibration    21          0.850              1.264              0.674
 Vibration    22          0.878              1.198              0.602
 Vibration    23          0.935              1.078              0.488
 Vibration    24          0.950              1.048              0.463

                           ! Non-Optimized Parameters !
 Normal termination of Gaussian 16 at Sun Dec 13 16:45:36 2020.

 ----------------------------------------------------------------------
 # B3LYP/6-311++G(d,p) empiricaldispersion=gd3bj scf=xqc pop=npa geom=c
 heck
 ----------------------------------------------------------------------

 --------------------------------------
 CID_61949315_JID_9105_Energie_neutraal
 --------------------------------------
 Structure from the checkpoint file:  "JID_9105.chk"
 Charge =  0 Multiplicity = 1

 SCF Done:  E(RB3LYP) =  -882.424297430     A.U. after   15 cycles
 Normal termination of Gaussian 16 at Sun Dec 13 16:53:53 2020.

 ----------------------------------------------------------------------
 # B3LYP/6-311++G(d,p) empiricaldispersion=gd3bj scf=xqc pop=npa geom=c
 heck
 ----------------------------------------------------------------------

 ------------------------------------
 CID_61949315_JID_9105_Energie_kation
 ------------------------------------
 Structure from the checkpoint file:  "JID_9105.chk"
 Charge =  1 Multiplicity = 2

 SCF Done:  E(UB3LYP) =  -882.117267792     A.U. after   29 cycles
 Normal termination of Gaussian 16 at Sun Dec 13 17:16:53 2020.
 Gaussian 16:  ES64L-G16RevA.03 25-Dec-2016

 ----------------------------------------------------------------------
 # B3LYP/6-311++G(d,p) empiricaldispersion=gd3bj scf=xqc pop=npa geom=c
 heck
 ----------------------------------------------------------------------

 -----------------------------------
 CID_61949315_JID_9105_Energie_anion
 -----------------------------------
 Structure from the checkpoint file:  "JID_9105.chk"
 Charge = -1 Multiplicity = 2

                         Standard orientation:
 ---------------------------------------------------------------------
 Center     Atomic      Atomic             Coordinates (Angstroms)
 Number     Number       Type             X           Y           Z
 ---------------------------------------------------------------------
      1          6           0       -3.166187   -2.154059   -0.053789
      2          6           0       -3.066821   -1.421163    1.129838
      3          6           0       -2.810548   -0.050871    1.088967
      4          6           0       -2.638942    0.614523   -0.131540
      5          6           0       -2.750693   -0.133072   -1.310123
      6          6           0       -3.012500   -1.501917   -1.277124
      7          6           0       -2.342935    2.100364   -0.200966
      8          6           0       -1.392766    2.643767    0.879956
      9          6           0       -0.039202    1.941587    0.986405
     10          8           0        0.766517    2.103648   -0.181038
     11          6           0        0.793063    1.011809   -1.094179
     12          6           0        1.206443   -0.287361   -0.477461
     13          6           0        2.387401   -0.794939    0.014685
     14          6           0        2.086053   -2.085808    0.570017
     15          6           0        0.755596   -2.273882    0.380107
     16          8           0        0.212062   -1.189004   -0.251176
     17          6           0        3.725093   -0.197387    0.003276
     18          8           0        4.708141   -0.698869    0.512833
     19          8           0        3.771354    0.992671   -0.650027
     20          1           0       -3.367295   -3.221407   -0.022475
     21          1           0       -3.190951   -1.916434    2.089251
     22          1           0       -2.736233    0.502482    2.020856
     23          1           0       -2.622615    0.366431   -2.267996
     24          1           0       -3.088480   -2.059616   -2.206554
     25          1           0       -1.926164    2.332361   -1.187778
     26          1           0       -3.285688    2.662393   -0.138082
     27          1           0       -1.220238    3.708718    0.684074
     28          1           0       -1.873008    2.586866    1.866409
     29          1           0        0.530159    2.389791    1.808970
     30          1           0       -0.174619    0.880408    1.222980
     31          1           0       -0.181066    0.854213   -1.571904
     32          1           0        1.519939    1.304347   -1.853526
     33          1           0        2.794806   -2.754446    1.035119
     34          1           0        0.062111   -3.066536    0.611098
     35          1           0        4.696414    1.293316   -0.583588
 ---------------------------------------------------------------------

 SCF Done:  E(UB3LYP) =  -882.419509100     A.U. after   33 cycles
 SCF Done:  E(UB3LYP) =  -882.419509100     a.u. after    1 cycles

 The electronic state is 2-A.
 Alpha  occ. eigenvalues --  -19.06428 -19.04376 -19.00759 -18.97415 -10.16346
 Alpha  occ. eigenvalues --  -10.10736 -10.10661 -10.10275 -10.09712 -10.08097
 Alpha  occ. eigenvalues --  -10.07601 -10.07586 -10.07386 -10.07348 -10.07319
 Alpha  occ. eigenvalues --  -10.07100 -10.06704 -10.05965 -10.05407  -0.99534
 Alpha  occ. eigenvalues --   -0.98017  -0.91772  -0.88735  -0.75997  -0.69756
 Alpha  occ. eigenvalues --   -0.69247  -0.66399  -0.64756  -0.63897  -0.59452
 Alpha  occ. eigenvalues --   -0.55903  -0.53856  -0.50933  -0.50167  -0.47049
 Alpha  occ. eigenvalues --   -0.46802  -0.44537  -0.41847  -0.40813  -0.39027
 Alpha  occ. eigenvalues --   -0.37987  -0.36269  -0.36093  -0.35676  -0.34750
 Alpha  occ. eigenvalues --   -0.34057  -0.33201  -0.32503  -0.32154  -0.31969
 Alpha  occ. eigenvalues --   -0.31635  -0.29452  -0.29242  -0.27516  -0.27379
 Alpha  occ. eigenvalues --   -0.26672  -0.26298  -0.25567  -0.24565  -0.23697
 Alpha  occ. eigenvalues --   -0.22925  -0.20609  -0.20162  -0.16871  -0.15739
 Alpha  occ. eigenvalues --   -0.15610  -0.14766  -0.14692  -0.12211   0.04488
 Alpha virt. eigenvalues --    0.06198   0.06819   0.07448   0.08131   0.08211
 Alpha virt. eigenvalues --    0.08515   0.09035   0.09084   0.09606   0.09969
 Alpha virt. eigenvalues --    0.11305   0.11514   0.12085   0.12179   0.12590

  Beta  occ. eigenvalues --  -19.06257 -19.04336 -19.00689 -18.97209 -10.16126
  Beta  occ. eigenvalues --  -10.10750 -10.10679 -10.10266 -10.09365 -10.08072
  Beta  occ. eigenvalues --  -10.07584 -10.07578 -10.07364 -10.07338 -10.07322
  Beta  occ. eigenvalues --  -10.07077 -10.06689 -10.05966 -10.05394  -0.99224
  Beta  occ. eigenvalues --   -0.97800  -0.91620  -0.88436  -0.75955  -0.69684
  Beta  occ. eigenvalues --   -0.69083  -0.66157  -0.64710  -0.63769  -0.59377
  Beta  occ. eigenvalues --   -0.55661  -0.53646  -0.50883  -0.50107  -0.46981
  Beta  occ. eigenvalues --   -0.46650  -0.44361  -0.41767  -0.40715  -0.38808
  Beta  occ. eigenvalues --   -0.37896  -0.36144  -0.35908  -0.35601  -0.34515
  Beta  occ. eigenvalues --   -0.33760  -0.32974  -0.32259  -0.32046  -0.31854
  Beta  occ. eigenvalues --   -0.30931  -0.29364  -0.29166  -0.27386  -0.27309
  Beta  occ. eigenvalues --   -0.26595  -0.26208  -0.25524  -0.24473  -0.23649
  Beta  occ. eigenvalues --   -0.22886  -0.20235  -0.19708  -0.16351  -0.15563
  Beta  occ. eigenvalues --   -0.15478  -0.14658  -0.14556  -0.11222
  Beta virt. eigenvalues --    0.06572   0.07260   0.07758   0.08161   0.08238
  Beta virt. eigenvalues --    0.08630   0.09207   0.09319   0.09420   0.09626
  Beta virt. eigenvalues --    0.10231   0.11372   0.11621   0.12118   0.12546

 Mulliken charges and spin densities:
               1          2
     1  C    0.571578  -0.891333
     2  C    0.050016  -0.346795
     3  C   -0.398245  -0.112367
     4  C    0.099674   0.884449
     5  C   -0.740692   0.612795
     6  C   -0.254428  -0.057585
     7  C    0.619872  -1.288772
     8  C    0.352759  -0.653136
     9  C   -0.439258   0.213806
    10  O   -0.005136   0.012051
    11  C   -0.441312  -0.385472
    12  C    0.028238   0.557478
    13  C   -0.387386   0.010419
    14  C   -0.002803   0.008300
    15  C   -0.125757  -0.092548
    16  O    0.190875   0.015519
    17  C    0.131574   0.113950
    18  O   -0.387939   0.068129
    19  O   -0.224832   0.008392
    20  H   -0.094023   0.233824
    21  H   -0.433422   0.611440
    22  H   -0.100069   0.241002
    23  H   -0.003306   0.144625
    24  H    0.006776   0.155044
    25  H    0.124194   0.016416
    26  H   -0.182376   0.369191
    27  H    0.030258   0.149524
    28  H   -0.128920   0.255573
    29  H    0.075536   0.089100
    30  H    0.179079  -0.070069
    31  H    0.251901  -0.034130
    32  H    0.176810   0.021135
    33  H    0.159294   0.020922
    34  H    0.045990   0.097908
    35  H    0.255481   0.021216
 Sum of Mulliken charges =  -1.00000   1.00000

 Dipole moment (field-independent basis, Debye):
    X=             -0.5094    Y=              0.1736    Z=             -2.4982  Tot=              2.5555
 Quadrupole moment (field-independent basis, Debye-Ang):
   XX=           -185.6881   YY=           -145.9207   ZZ=           -131.7866
   XY=              6.7821   XZ=              1.1612   YZ=              0.8151

 Summary of Natural Population Analysis:

                                       Natural Population
                Natural  -----------------------------------------------
    Atom  No    Charge         Core      Valence    Rydberg      Total
 -----------------------------------------------------------------------
      C    1   -0.10671      0.99956     2.09702    0.01013     3.10671
      C    2   -0.09747      0.99956     2.08747    0.01043     3.09747
      C    3   -0.10111      0.99950     2.09182    0.00979     3.10111
      C    4   -0.00910      0.99950     1.99873    0.01087     3.00910
      C    5   -0.10166      0.99951     2.09296    0.00919     3.10166
      C    6   -0.09436      0.99956     2.08479    0.01001     3.09436
      C    7   -0.20091      0.99959     2.19172    0.00960     3.20091
      C    8   -0.19911      0.99962     2.19028    0.00920     3.19911
      C    9   -0.01404      0.99956     2.00189    0.01259     3.01404
      O   10   -0.29408      0.99989     3.28514    0.00905     4.29408
      C   11   -0.03626      0.99951     2.02387    0.01287     3.03626
      C   12    0.22466      0.99945     1.76254    0.01334     2.77534
      C   13   -0.12358      0.99940     2.11459    0.00958     3.12358
      C   14   -0.13364      0.99954     2.12606    0.00804     3.13364
      C   15    0.04322      0.99951     1.94260    0.01468     2.95678
      O   16   -0.21956      0.99986     3.21015    0.00955     4.21956
      C   17    0.42014      0.99965     1.55662    0.02360     2.57986
      O   18   -0.30837      0.99987     3.30284    0.00566     4.30837
      O   19   -0.34735      0.99988     3.34075    0.00672     4.34735
      H   20    0.09872      0.00000     0.40035    0.00093     0.40128
      H   21    0.09999      0.00000     0.39888    0.00113     0.40001
      H   22    0.10033      0.00000     0.39794    0.00173     0.39967
      H   23    0.09689      0.00000     0.40176    0.00135     0.40311
      H   24    0.09780      0.00000     0.40142    0.00078     0.40220
      H   25    0.10041      0.00000     0.39829    0.00130     0.39959
      H   26    0.10599      0.00000     0.39272    0.00129     0.39401
      H   27    0.09956      0.00000     0.39922    0.00121     0.40044
      H   28    0.09589      0.00000     0.40277    0.00134     0.40411
      H   29    0.08571      0.00000     0.41322    0.00107     0.41429
      H   30    0.08974      0.00000     0.40843    0.00183     0.41026
      H   31    0.08655      0.00000     0.41171    0.00174     0.41345
      H   32    0.10422      0.00000     0.39455    0.00123     0.39578
      H   33    0.11112      0.00000     0.38803    0.00085     0.38888
      H   34    0.09491      0.00000     0.40410    0.00098     0.40509
      H   35    0.23144      0.00000     0.26418    0.00438     0.26856
 =======================================================================
   * Total *   -0.00000     18.99253    49.77941    0.22806    69.00000

 Normal termination of Gaussian 16 at Sun Dec 13 17:43:06 2020.
