 Gaussian 16, Revision A.03,

 -----------------------------------------------------------
 # opt freq B3LYP/6-31G(d) empiricaldispersion=gd3bj scf=xqc
 -----------------------------------------------------------

 ------------------------------
 CID_82398833_JID_3934_neutraal
 ------------------------------
 Symbolic Z-matrix:
 Charge =  0 Multiplicity = 1

 SCF Done:  E(RB3LYP) =  -953.004850488     A.U. after   16 cycles
 SCF Done:  E(RB3LYP) =  -953.007950919     A.U. after   13 cycles
 SCF Done:  E(RB3LYP) =  -953.007933936     A.U. after   12 cycles
 SCF Done:  E(RB3LYP) =  -953.008583273     A.U. after   11 cycles
 SCF Done:  E(RB3LYP) =  -953.008646177     A.U. after   11 cycles
 SCF Done:  E(RB3LYP) =  -953.008683698     A.U. after   11 cycles
 SCF Done:  E(RB3LYP) =  -953.008695238     A.U. after   10 cycles
 SCF Done:  E(RB3LYP) =  -953.008701017     A.U. after    9 cycles
 SCF Done:  E(RB3LYP) =  -953.008703849     A.U. after    9 cycles
 Optimization completed.
    -- Stationary point found.
 Normal termination of Gaussian 16 at Mon Dec 14 16:28:23 2020.

 --------------------------------------------------------------------
 #N Geom=AllCheck Guess=TCheck SCRF=Check GenChk RB3LYP/6-31G(d) Freq
 --------------------------------------------------------------------

 Structure from the checkpoint file:  "JID_3934.chk"
 ------------------------------
 CID_82398833_JID_3934_neutraal
 ------------------------------
 Charge =  0 Multiplicity = 1

 SCF Done:  E(RB3LYP) =  -953.008703849     A.U. after    1 cycles

  Exact polarizability: 140.310  -0.917 138.197  -4.251  -0.288  72.918
 Approx polarizability: 196.357  -7.846 248.940  -7.203  -1.361 118.250

                      1                      2                      3
                      A                      A                      A
 Frequencies --     56.3465                97.3137               108.2698
 Red. masses --      5.2499                 3.6592                 3.9499
 Frc consts  --      0.0098                 0.0204                 0.0273
 IR Inten    --      0.3588                 3.1066                 4.8367

                      4                      5                      6
                      A                      A                      A
 Frequencies --    128.6814               152.9113               176.2685
 Red. masses --      2.6231                 1.1487                 3.0682
 Frc consts  --      0.0256                 0.0158                 0.0562
 IR Inten    --      4.9277                 0.1942                 0.7760

                      7                      8                      9
                      A                      A                      A
 Frequencies --    225.0645               246.4489               291.1933
 Red. masses --      3.7770                 3.6456                 3.5546
 Frc consts  --      0.1127                 0.1305                 0.1776
 IR Inten    --      2.8382                11.4265                 7.7477

                     10                     11                     12
                      A                      A                      A
 Frequencies --    294.8025               314.0764               363.1706
 Red. masses --      6.2154                 1.2636                 3.1652
 Frc consts  --      0.3183                 0.0734                 0.2460
 IR Inten    --      6.3690               141.4584                 4.3281

                     13                     14                     15
                      A                      A                      A
 Frequencies --    392.0500               417.2857               473.0450
 Red. masses --      4.1652                 2.5688                 5.6487
 Frc consts  --      0.3772                 0.2635                 0.7447
 IR Inten    --      3.7230                 2.2233                 6.5218

                     16                     17                     18
                      A                      A                      A
 Frequencies --    525.3194               541.2411               576.3375
 Red. masses --      4.6513                 3.6612                 7.7380
 Frc consts  --      0.7563                 0.6319                 1.5144
 IR Inten    --      8.4240                 7.3872                 0.0779

                     19                     20                     21
                      A                      A                      A
 Frequencies --    591.7089               626.6817               676.7234
 Red. masses --      4.2570                 4.7519                 4.2997
 Frc consts  --      0.8781                 1.0995                 1.1601
 IR Inten    --      7.8056                 1.0922                13.7861

                     22                     23                     24
                      A                      A                      A
 Frequencies --    730.5429               773.6240               843.4860
 Red. masses --      4.2723                 8.6114                 3.4664
 Frc consts  --      1.3434                 3.0366                 1.4531
 IR Inten    --      6.8046                10.2215                 7.8245

                     25                     26                     27
                      A                      A                      A
 Frequencies --    883.0962               906.8118               944.9016
 Red. masses --      1.6823                 1.7141                 2.9023
 Frc consts  --      0.7730                 0.8304                 1.5267
 IR Inten    --      2.9150                 8.0267                16.6318

                     28                     29                     30
                      A                      A                      A
 Frequencies --   1010.8327              1036.9416              1070.7736
 Red. masses --      4.6405                 1.7836                 1.5352
 Frc consts  --      2.7937                 1.1300                 1.0371
 IR Inten    --     20.2788                12.0810                 2.0961

                     31                     32                     33
                      A                      A                      A
 Frequencies --   1080.6171              1090.0938              1094.0804
 Red. masses --      3.2737                 2.2966                 3.1880
 Frc consts  --      2.2523                 1.6079                 2.2484
 IR Inten    --     70.4262                 9.1569                68.4538

                     34                     35                     36
                      A                      A                      A
 Frequencies --   1120.7930              1154.9139              1177.9105
 Red. masses --      3.1044                 3.2655                 1.1875
 Frc consts  --      2.2976                 2.5663                 0.9708
 IR Inten    --      7.0842                 1.3970                 6.1639

                     37                     38                     39
                      A                      A                      A
 Frequencies --   1206.1888              1277.7606              1307.9810
 Red. masses --      1.2242                 1.9918                 1.9527
 Frc consts  --      1.0494                 1.9160                 1.9683
 IR Inten    --     12.0205                23.8191                24.7203

                     40                     41                     42
                      A                      A                      A
 Frequencies --   1312.0369              1322.2824              1385.8060
 Red. masses --      1.2872                 1.4795                 1.4862
 Frc consts  --      1.3055                 1.5241                 1.6816
 IR Inten    --     10.0093                 3.8393                 3.7359

                     43                     44                     45
                      A                      A                      A
 Frequencies --   1404.9756              1414.6433              1427.7335
 Red. masses --      1.3961                 1.3427                 1.8659
 Frc consts  --      1.6237                 1.5832                 2.2410
 IR Inten    --     17.4463                 2.2466               114.9321

                     46                     47                     48
                      A                      A                      A
 Frequencies --   1439.8315              1451.9002              1463.4108
 Red. masses --      1.2937                 2.4742                 2.4334
 Frc consts  --      1.5802                 3.0730                 3.0704
 IR Inten    --     39.3571                70.4626                 0.8638

                     49                     50                     51
                      A                      A                      A
 Frequencies --   1489.1988              1502.1808              1503.8047
 Red. masses --      1.1087                 1.2265                 1.0450
 Frc consts  --      1.4486                 1.6306                 1.3923
 IR Inten    --      1.6494                 9.4515                 7.1773

                     52                     53                     54
                      A                      A                      A
 Frequencies --   1514.0062              1530.6270              1587.6587
 Red. masses --      1.4834                 1.0882                 5.8156
 Frc consts  --      2.0034                 1.5021                 8.6369
 IR Inten    --      4.8699                 0.9875                50.0203

                     55                     56                     57
                      A                      A                      A
 Frequencies --   1774.6289              2983.7677              3008.4098
 Red. masses --     11.9170                 1.0710                 1.0697
 Frc consts  --     22.1122                 5.6178                 5.7041
 IR Inten    --    242.4166                45.9084                11.1044

                     58                     59                     60
                      A                      A                      A
 Frequencies --   3017.3390              3055.1214              3070.7444
 Red. masses --      1.0690                 1.0819                 1.0353
 Frc consts  --      5.7342                 5.9499                 5.7517
 IR Inten    --     13.8469                23.5518                 7.1556

                     61                     62                     63
                      A                      A                      A
 Frequencies --   3082.9290              3095.6913              3113.2348
 Red. masses --      1.0932                 1.0939                 1.0920
 Frc consts  --      6.1220                 6.1768                 6.2356
 IR Inten    --      5.3535                46.1643                15.7785

                     64                     65                     66
                      A                      A                      A
 Frequencies --   3130.3735              3164.5855              3757.9552
 Red. masses --      1.1001                 1.1047                 1.0662
 Frc consts  --      6.3514                 6.5179                 8.8715
 IR Inten    --      6.5648                10.9751                13.7575

 - Thermochemistry -
 -------------------
 Temperature   298.150 Kelvin.  Pressure   1.00000 Atm.
 Atom     1 has atomic number  6 and mass  12.00000

 Molecular mass:   197.05105 amu.
 Principal axes and moments of inertia in atomic units:
                           1         2         3
     Eigenvalues --  1471.233683736.744115081.50620
           X            0.99935   0.03548  -0.00610
           Y           -0.03550   0.99936  -0.00334
           Z            0.00598   0.00356   0.99998
 This molecule is an asymmetric top.
 Rotational symmetry number  1.
 Warning -- assumption of classical behavior for rotation
           may cause significant error
 Rotational temperatures (Kelvin)      0.05887     0.02318     0.01704
 Rotational constants (GHZ):           1.22669     0.48297     0.35516
 Zero-point vibrational energy     502378.7 (Joules/Mol)
                                  120.07140 (Kcal/Mol)
 Warning -- explicit consideration of  19 degrees of freedom as
           vibrations may cause significant error
 Vibrational temperatures:     81.07   140.01   155.78   185.14   220.01
          (Kelvin)            253.61   323.82   354.58   418.96   424.16
                              451.89   522.52   564.07   600.38   680.61
                              755.82   778.73   829.22   851.34   901.66
                              973.65  1051.09  1113.07  1213.59  1270.58
                             1304.70  1359.50  1454.36  1491.93  1540.60
                             1554.77  1568.40  1574.14  1612.57  1661.66
                             1694.75  1735.44  1838.41  1881.89  1887.73
                             1902.47  1993.87  2021.45  2035.36  2054.19
                             2071.60  2088.96  2105.52  2142.62  2161.30
                             2163.64  2178.32  2202.23  2284.29  2553.30
                             4292.98  4328.43  4341.28  4395.64  4418.12
                             4435.65  4454.01  4479.25  4503.91  4553.13
                             5406.86

 Zero-point correction=                           0.191346 (Hartree/Particle)
 Thermal correction to Energy=                    0.203642
 Thermal correction to Enthalpy=                  0.204586
 Thermal correction to Gibbs Free Energy=         0.152648
 Sum of electronic and zero-point Energies=           -952.817358
 Sum of electronic and thermal Energies=              -952.805062
 Sum of electronic and thermal Enthalpies=            -952.804118
 Sum of electronic and thermal Free Energies=         -952.856055

                     E (Thermal)             CV                S
                      KCal/Mol        Cal/Mol-Kelvin    Cal/Mol-Kelvin
 Total                  127.787             46.245            109.312
 Electronic               0.000              0.000              0.000
 Translational            0.889              2.981             41.740
 Rotational               0.889              2.981             31.702
 Vibrational            126.010             40.284             35.870
 Vibration     1          0.596              1.975              4.581
 Vibration     2          0.603              1.951              3.507
 Vibration     3          0.606              1.943              3.300
 Vibration     4          0.611              1.925              2.966
 Vibration     5          0.619              1.899              2.636
 Vibration     6          0.628              1.872              2.368
 Vibration     7          0.650              1.803              1.918
 Vibration     8          0.661              1.769              1.756
 Vibration     9          0.687              1.690              1.467
 Vibration    10          0.689              1.683              1.446
 Vibration    11          0.702              1.647              1.341
 Vibration    12          0.737              1.548              1.108
 Vibration    13          0.759              1.487              0.992
 Vibration    14          0.780              1.433              0.901
 Vibration    15          0.830              1.310              0.729
 Vibration    16          0.880              1.194              0.598
 Vibration    17          0.896              1.159              0.563
 Vibration    18          0.933              1.082              0.492
 Vibration    19          0.949              1.049              0.464

                           ! Non-Optimized Parameters !
 Normal termination of Gaussian 16 at Mon Dec 14 16:34:12 2020.

 ----------------------------------------------------------------------
 # B3LYP/6-311++G(d,p) empiricaldispersion=gd3bj scf=xqc pop=npa geom=c
 heck
 ----------------------------------------------------------------------

 --------------------------------------
 CID_82398833_JID_3934_Energie_neutraal
 --------------------------------------
 Structure from the checkpoint file:  "JID_3934.chk"
 Charge =  0 Multiplicity = 1

 SCF Done:  E(RB3LYP) =  -953.196673815     A.U. after   17 cycles
 Normal termination of Gaussian 16 at Mon Dec 14 16:37:13 2020.

 ----------------------------------------------------------------------
 # B3LYP/6-311++G(d,p) empiricaldispersion=gd3bj scf=xqc pop=npa geom=c
 heck
 ----------------------------------------------------------------------

 ------------------------------------
 CID_82398833_JID_3934_Energie_kation
 ------------------------------------
 Structure from the checkpoint file:  "JID_3934.chk"
 Charge =  1 Multiplicity = 2

 SCF Done:  E(UB3LYP) =  -952.863060508     A.U. after   33 cycles
 SCF Done:  E(UB3LYP) =  -952.863060508     a.u. after    1 cycles
 Normal termination of Gaussian 16 at Mon Dec 14 16:45:05 2020.
 Gaussian 16:  ES64L-G16RevA.03 25-Dec-2016

 ----------------------------------------------------------------------
 # B3LYP/6-311++G(d,p) empiricaldispersion=gd3bj scf=xqc pop=npa geom=c
 heck
 ----------------------------------------------------------------------

 -----------------------------------
 CID_82398833_JID_3934_Energie_anion
 -----------------------------------
 Structure from the checkpoint file:  "JID_3934.chk"
 Charge = -1 Multiplicity = 2

                         Standard orientation:
 ---------------------------------------------------------------------
 Center     Atomic      Atomic             Coordinates (Angstroms)
 Number     Number       Type             X           Y           Z
 ---------------------------------------------------------------------
      1          6           0        3.069606    1.731123   -0.187818
      2          6           0        2.297225    0.450756   -0.090082
      3          7           0        2.939078   -0.697436   -0.144153
      4         16           0        1.832900   -1.977361   -0.017290
      5          6           0        0.452111   -0.959745    0.117481
      6          6           0        0.863504    0.357382    0.063147
      7          6           0       -0.100209    1.464665    0.156461
      8          8           0        0.223757    2.641244    0.083855
      9          6           0       -1.552691    1.049356    0.389297
     10          6           0       -1.924737   -0.305939   -0.232071
     11          6           0       -0.969576   -1.405274    0.268784
     12          6           0       -3.381244   -0.687725    0.055462
     13          8           0       -4.318241    0.222732   -0.497676
     14          1           0        2.728559    2.321434   -1.043956
     15          1           0        4.133954    1.510024   -0.290566
     16          1           0        2.902908    2.350377    0.699105
     17          1           0       -2.183766    1.856122    0.005457
     18          1           0       -1.704155    1.004825    1.480389
     19          1           0       -1.813992   -0.225298   -1.321352
     20          1           0       -1.171283   -1.614685    1.330614
     21          1           0       -1.144908   -2.342897   -0.271221
     22          1           0       -3.602684   -1.656867   -0.404374
     23          1           0       -3.524627   -0.800805    1.143670
     24          1           0       -4.288011    1.038198    0.024544
 ---------------------------------------------------------------------

 SCF Done:  E(UB3LYP) =  -953.207081090     A.U. after   33 cycles
 SCF Done:  E(UB3LYP) =  -953.207081090     a.u. after    1 cycles

 The electronic state is 2-A.
 Alpha  occ. eigenvalues --  -88.73015 -19.02785 -18.92143 -14.17131 -10.11320
 Alpha  occ. eigenvalues --  -10.07179 -10.07101 -10.06011 -10.05686 -10.04058
 Alpha  occ. eigenvalues --  -10.03427 -10.02881 -10.01194  -7.81513  -5.77917
 Alpha  occ. eigenvalues --   -5.77423  -5.77060  -0.92878  -0.86360  -0.80432
 Alpha  occ. eigenvalues --   -0.70773  -0.64237  -0.62282  -0.59364  -0.56383
 Alpha  occ. eigenvalues --   -0.54393  -0.47173  -0.44280  -0.42375  -0.40138
 Alpha  occ. eigenvalues --   -0.36637  -0.35245  -0.33266  -0.32344  -0.30179
 Alpha  occ. eigenvalues --   -0.29560  -0.29431  -0.27617  -0.27332  -0.26219
 Alpha  occ. eigenvalues --   -0.25208  -0.23672  -0.22606  -0.22212  -0.21717
 Alpha  occ. eigenvalues --   -0.20106  -0.19402  -0.17886  -0.14110  -0.11694
 Alpha  occ. eigenvalues --   -0.10489  -0.08458   0.05041
 Alpha virt. eigenvalues --    0.07588   0.09079   0.10129   0.10205   0.11185
 Alpha virt. eigenvalues --    0.12241   0.12832   0.13206   0.13364   0.13661
 Alpha virt. eigenvalues --    0.14034   0.14293   0.15390   0.15820   0.16227

  Beta  occ. eigenvalues --  -88.72967 -19.02780 -18.91655 -14.17092 -10.11319
  Beta  occ. eigenvalues --  -10.07134 -10.06862 -10.05989 -10.05742 -10.04083
  Beta  occ. eigenvalues --  -10.03426 -10.02126 -10.01216  -7.81470  -5.77899
  Beta  occ. eigenvalues --   -5.77415  -5.76884  -0.92868  -0.85480  -0.80280
  Beta  occ. eigenvalues --   -0.70505  -0.63761  -0.62032  -0.59119  -0.56300
  Beta  occ. eigenvalues --   -0.54253  -0.47010  -0.43609  -0.42151  -0.39857
  Beta  occ. eigenvalues --   -0.36383  -0.35133  -0.33183  -0.32076  -0.29907
  Beta  occ. eigenvalues --   -0.29402  -0.28964  -0.27393  -0.27123  -0.25780
  Beta  occ. eigenvalues --   -0.24714  -0.23373  -0.22454  -0.21940  -0.21437
  Beta  occ. eigenvalues --   -0.19084  -0.18412  -0.17795  -0.14006  -0.10147
  Beta  occ. eigenvalues --   -0.09019  -0.08048
  Beta virt. eigenvalues --    0.07521   0.09079   0.10083   0.10174   0.11127
  Beta virt. eigenvalues --    0.12072   0.12434   0.13096   0.13433   0.13606
  Beta virt. eigenvalues --    0.14003   0.14173   0.14304   0.15502   0.15815

 Mulliken charges and spin densities:
               1          2
     1  C   -0.795238  -0.008613
     2  C   -1.378229   0.033097
     3  N   -0.012769   0.000687
     4  S    0.171470   0.166382
     5  C   -0.070446   0.410952
     6  C    1.692797  -0.041259
     7  C   -0.789500   0.155763
     8  O   -0.409024   0.166698
     9  C   -0.353290  -0.019160
    10  C    0.384860   0.265273
    11  C   -0.292202  -0.137654
    12  C   -0.348936  -0.261579
    13  O   -0.250721   0.001916
    14  H    0.158162  -0.000317
    15  H    0.127185   0.000312
    16  H    0.159233  -0.002216
    17  H    0.070089   0.016246
    18  H    0.174740  -0.000831
    19  H    0.189979  -0.001264
    20  H    0.008953   0.178288
    21  H    0.104525  -0.007863
    22  H    0.150384   0.014478
    23  H    0.104617   0.039512
    24  H    0.203364   0.031154
 Sum of Mulliken charges =  -1.00000   1.00000

 Dipole moment (field-independent basis, Debye):
    X=             -3.5135    Y=             -1.5157    Z=              0.7560  Tot=              3.9004
 Quadrupole moment (field-independent basis, Debye-Ang):
   XX=           -124.1774   YY=           -112.2868   ZZ=            -92.9157
   XY=              4.6651   XZ=             -4.2076   YZ=              1.4706

 Summary of Natural Population Analysis:

                                       Natural Population
                Natural  -----------------------------------------------
    Atom  No    Charge         Core      Valence    Rydberg      Total
 -----------------------------------------------------------------------
      C    1   -0.29648      0.99962     2.29213    0.00472     3.29648
      C    2    0.11219      0.99956     1.87304    0.01522     2.88781
      N    3   -0.33422      0.99970     2.81905    0.01548     3.83422
      S    4    0.27780      4.99938     2.69635    0.02646     7.72220
      C    5    0.06282      0.99946     1.92549    0.01222     2.93718
      C    6   -0.13204      0.99935     2.12208    0.01061     3.13204
      C    7    0.31296      0.99961     1.66753    0.01990     2.68704
      O    8   -0.26733      0.99988     3.26087    0.00658     4.26733
      C    9   -0.23363      0.99959     2.22351    0.01053     3.23363
      C   10   -0.11478      0.99960     2.10488    0.01030     3.11478
      C   11   -0.21107      0.99958     2.20057    0.01092     3.21107
      C   12   -0.00272      0.99956     1.99091    0.01225     3.00272
      O   13   -0.37136      0.99990     3.36464    0.00682     4.37136
      H   14    0.10834      0.00000     0.39065    0.00101     0.39166
      H   15    0.09719      0.00000     0.40166    0.00115     0.40281
      H   16    0.10799      0.00000     0.39100    0.00102     0.39201
      H   17    0.09917      0.00000     0.39781    0.00302     0.40083
      H   18    0.09991      0.00000     0.39871    0.00138     0.40009
      H   19    0.09708      0.00000     0.40146    0.00146     0.40292
      H   20    0.10590      0.00000     0.39211    0.00200     0.39410
      H   21    0.10172      0.00000     0.39743    0.00085     0.39828
      H   22    0.08215      0.00000     0.41635    0.00150     0.41785
      H   23    0.07212      0.00000     0.42609    0.00178     0.42788
      H   24    0.22630      0.00000     0.27052    0.00318     0.27370
 =======================================================================
   * Total *    0.00000     16.99477    34.82486    0.18037    52.00000

 Normal termination of Gaussian 16 at Mon Dec 14 16:52:49 2020.
