 Gaussian 16, Revision A.03,

 -----------------------------------------------------------
 # opt freq B3LYP/6-31G(d) empiricaldispersion=gd3bj scf=xqc
 -----------------------------------------------------------

 ------------------------------
 CID_82051341_JID_8954_neutraal
 ------------------------------
 Symbolic Z-matrix:
 Charge =  0 Multiplicity = 1

 SCF Done:  E(RB3LYP) =  -753.603836852     A.U. after   15 cycles
 SCF Done:  E(RB3LYP) =  -753.607319564     A.U. after   14 cycles
 SCF Done:  E(RB3LYP) =  -753.600659910     A.U. after   14 cycles
 SCF Done:  E(RB3LYP) =  -753.607906897     A.U. after   13 cycles
 SCF Done:  E(RB3LYP) =  -753.606724552     A.U. after   14 cycles
 SCF Done:  E(RB3LYP) =  -753.610937384     A.U. after   12 cycles
 SCF Done:  E(RB3LYP) =  -753.611455578     A.U. after   12 cycles
 SCF Done:  E(RB3LYP) =  -753.611755432     A.U. after   12 cycles
 SCF Done:  E(RB3LYP) =  -753.611830874     A.U. after   11 cycles
 SCF Done:  E(RB3LYP) =  -753.611861228     A.U. after   11 cycles
 SCF Done:  E(RB3LYP) =  -753.611905505     A.U. after    7 cycles
 SCF Done:  E(RB3LYP) =  -753.611905575     A.U. after    7 cycles
 SCF Done:  E(RB3LYP) =  -753.611905637     A.U. after    7 cycles
 SCF Done:  E(RB3LYP) =  -753.611905687     A.U. after    7 cycles
 SCF Done:  E(RB3LYP) =  -753.611905705     A.U. after    6 cycles
 Optimization completed.
    -- Stationary point found.
 Normal termination of Gaussian 16 at Fri Dec 11 23:31:52 2020.

 --------------------------------------------------------------------
 #N Geom=AllCheck Guess=TCheck SCRF=Check GenChk RB3LYP/6-31G(d) Freq
 --------------------------------------------------------------------

 Structure from the checkpoint file:  "JID_8954.chk"
 ------------------------------
 CID_82051341_JID_8954_neutraal
 ------------------------------
 Charge =  0 Multiplicity = 1

 SCF Done:  E(RB3LYP) =  -753.611905705     A.U. after    1 cycles

  Exact polarizability: 166.914 -10.297 191.097  17.959   5.489 147.783
 Approx polarizability: 233.474 -13.590 289.837  36.700   8.996 237.651

                      1                      2                      3
                      A                      A                      A
 Frequencies --     23.4705                32.7693                44.7230
 Red. masses --      3.5108                 1.0437                 3.7486
 Frc consts  --      0.0011                 0.0007                 0.0044
 IR Inten    --      1.3768                 0.3148                 0.7328

                      4                      5                      6
                      A                      A                      A
 Frequencies --     54.8831                59.4325                77.9380
 Red. masses --      3.9623                 2.5778                 3.4260
 Frc consts  --      0.0070                 0.0054                 0.0123
 IR Inten    --      1.1405                 0.1097                 0.3489

                      7                      8                      9
                      A                      A                      A
 Frequencies --     91.8659               120.4821               139.1745
 Red. masses --      1.8949                 1.1742                 2.3925
 Frc consts  --      0.0094                 0.0100                 0.0273
 IR Inten    --      0.0224                 0.5024                 1.8683

                     10                     11                     12
                      A                      A                      A
 Frequencies --    148.5476               153.7351               189.2677
 Red. masses --      2.4662                 1.3138                 2.8783
 Frc consts  --      0.0321                 0.0183                 0.0607
 IR Inten    --      0.9762                 0.2353                 4.7751

                     13                     14                     15
                      A                      A                      A
 Frequencies --    191.4759               227.2192               232.4886
 Red. masses --      2.7309                 3.3675                 2.9475
 Frc consts  --      0.0590                 0.1024                 0.0939
 IR Inten    --      1.3383                 0.6696                 0.1344

                     16                     17                     18
                      A                      A                      A
 Frequencies --    272.5668               278.3326               315.9660
 Red. masses --      3.9761                 2.5899                 2.5598
 Frc consts  --      0.1740                 0.1182                 0.1506
 IR Inten    --      2.9293                 0.7373                 3.0041

                     19                     20                     21
                      A                      A                      A
 Frequencies --    330.8441               366.1626               412.2303
 Red. masses --      3.1068                 2.0439                 4.9726
 Frc consts  --      0.2004                 0.1615                 0.4979
 IR Inten    --      0.1426                 4.0678                 0.8712

                     22                     23                     24
                      A                      A                      A
 Frequencies --    443.8129               502.6878               515.3697
 Red. masses --      2.6103                 3.3985                 2.9634
 Frc consts  --      0.3029                 0.5060                 0.4637
 IR Inten    --      1.1158                 4.3361                 2.6124

                     25                     26                     27
                      A                      A                      A
 Frequencies --    524.4102               544.3368               575.5683
 Red. masses --      3.0820                 3.6908                 3.4493
 Frc consts  --      0.4994                 0.6443                 0.6732
 IR Inten    --      6.0598                 4.8882                 0.4226

                     28                     29                     30
                      A                      A                      A
 Frequencies --    582.9638               602.4063               650.7420
 Red. masses --      3.9703                 3.4001                 2.8111
 Frc consts  --      0.7950                 0.7270                 0.7014
 IR Inten    --      0.1560                 4.7344                 0.7839

                     31                     32                     33
                      A                      A                      A
 Frequencies --    662.7157               685.1317               766.6229
 Red. masses --      3.9498                 3.5893                 3.8966
 Frc consts  --      1.0221                 0.9927                 1.3493
 IR Inten    --      1.7638                 0.8595                 2.4828

                     34                     35                     36
                      A                      A                      A
 Frequencies --    771.1101               867.7853               869.8181
 Red. masses --      1.3746                 1.4696                 1.7214
 Frc consts  --      0.4816                 0.6520                 0.7674
 IR Inten    --      1.3262                30.0417                 0.4871

                     37                     38                     39
                      A                      A                      A
 Frequencies --    883.2688               894.1386               909.8360
 Red. masses --      1.7351                 1.3040                 2.9198
 Frc consts  --      0.7975                 0.6142                 1.4241
 IR Inten    --     13.1908                 0.0446                 3.0631

                     40                     41                     42
                      A                      A                      A
 Frequencies --    917.3984               947.4910               967.3695
 Red. masses --      2.2795                 2.4311                 2.3791
 Frc consts  --      1.1303                 1.2859                 1.3118
 IR Inten    --     10.6197                 5.0090                 3.6542

                     43                     44                     45
                      A                      A                      A
 Frequencies --    973.9884               980.2679               995.3125
 Red. masses --      2.1621                 3.1197                 1.6975
 Frc consts  --      1.2085                 1.7663                 0.9908
 IR Inten    --      1.0468                 0.9249                 4.6422

                     46                     47                     48
                      A                      A                      A
 Frequencies --   1045.2386              1047.7509              1049.0042
 Red. masses --      1.6956                 1.8391                 1.6828
 Frc consts  --      1.0914                 1.1895                 1.0910
 IR Inten    --      1.7456                 4.0366                 1.6520

                     49                     50                     51
                      A                      A                      A
 Frequencies --   1062.1342              1067.5794              1069.5068
 Red. masses --      2.6665                 1.6993                 1.8542
 Frc consts  --      1.7724                 1.1411                 1.2496
 IR Inten    --      8.8611                 4.0464                 5.4277

                     52                     53                     54
                      A                      A                      A
 Frequencies --   1073.9875              1074.8864              1077.9895
 Red. masses --      1.5834                 1.6873                 1.9223
 Frc consts  --      1.0761                 1.1486                 1.3161
 IR Inten    --     20.5802                15.4530                 1.0076

                     55                     56                     57
                      A                      A                      A
 Frequencies --   1141.6853              1155.7702              1180.0909
 Red. masses --      1.5959                 1.8990                 2.1916
 Frc consts  --      1.2256                 1.4946                 1.7983
 IR Inten    --      0.3018                 9.7459                33.8395

                     58                     59                     60
                      A                      A                      A
 Frequencies --   1196.4706              1227.6559              1232.5836
 Red. masses --      1.8373                 1.2581                 1.4016
 Frc consts  --      1.5496                 1.1172                 1.2546
 IR Inten    --     27.5847                 3.0032                 0.5113

                     61                     62                     63
                      A                      A                      A
 Frequencies --   1246.5994              1269.4273              1290.1248
 Red. masses --      1.4731                 1.5202                 1.4514
 Frc consts  --      1.3488                 1.4434                 1.4234
 IR Inten    --     14.4548                36.9106                 3.0522

                     64                     65                     66
                      A                      A                      A
 Frequencies --   1294.4685              1295.4898              1315.4698
 Red. masses --      1.6909                 1.6653                 1.3921
 Frc consts  --      1.6694                 1.6467                 1.4193
 IR Inten    --     46.5750                14.6614                 2.9353

                     67                     68                     69
                      A                      A                      A
 Frequencies --   1332.6286              1335.2364              1341.5954
 Red. masses --      5.1093                 1.3398                 1.3492
 Frc consts  --      5.3460                 1.4074                 1.4307
 IR Inten    --      4.8565                 1.6176                 4.1930

                     70                     71                     72
                      A                      A                      A
 Frequencies --   1342.4397              1362.0192              1385.6979
 Red. masses --      6.5757                 1.3824                 1.4465
 Frc consts  --      6.9820                 1.5109                 1.6365
 IR Inten    --      0.2081                 1.4900                23.8264

                     73                     74                     75
                      A                      A                      A
 Frequencies --   1408.5322              1427.0622              1432.6394
 Red. masses --      1.5329                 1.2784                 1.3573
 Frc consts  --      1.7919                 1.5339                 1.6413
 IR Inten    --     27.6849                 2.0330                 8.6766

                     76                     77                     78
                      A                      A                      A
 Frequencies --   1441.5154              1445.7057              1461.4674
 Red. masses --      1.2463                 1.2698                 2.6797
 Frc consts  --      1.5258                 1.5636                 3.3722
 IR Inten    --      0.5813                 2.5583                 1.8652

                     79                     80                     81
                      A                      A                      A
 Frequencies --   1481.0487              1493.2611              1513.2068
 Red. masses --      1.1409                 1.9142                 1.0573
 Frc consts  --      1.4744                 2.5148                 1.4264
 IR Inten    --     13.5963                 3.5063                 2.1652

                     82                     83                     84
                      A                      A                      A
 Frequencies --   1516.4033              1517.9178              1519.5530
 Red. masses --      1.0786                 1.0514                 1.0695
 Frc consts  --      1.4614                 1.4273                 1.4550
 IR Inten    --      0.6601                 5.3288                 9.8386

                     85                     86                     87
                      A                      A                      A
 Frequencies --   1521.5810              1523.6044              1530.2873
 Red. masses --      1.0729                 1.0957                 1.1458
 Frc consts  --      1.4635                 1.4986                 1.5809
 IR Inten    --      2.7549                 3.3102                24.6994

                     88                     89                     90
                      A                      A                      A
 Frequencies --   1535.9985              1540.1222              1544.6386
 Red. masses --      1.1230                 1.0917                 1.3148
 Frc consts  --      1.5610                 1.5257                 1.8482
 IR Inten    --      3.4702                 0.7390                 3.5154

                     91                     92                     93
                      A                      A                      A
 Frequencies --   1560.3086              1628.1913              1667.9040
 Red. masses --      1.1081                 6.6460                 5.5529
 Frc consts  --      1.5895                10.3805                 9.1015
 IR Inten    --      2.3657                 8.5273                32.9181

                     94                     95                     96
                      A                      A                      A
 Frequencies --   1782.6268              2910.4895              2919.5077
 Red. masses --     11.8657                 1.0742                 1.0741
 Frc consts  --     22.2159                 5.3613                 5.3941
 IR Inten    --    180.9063                46.2086               137.3645

                     97                     98                     99
                      A                      A                      A
 Frequencies --   2958.9276              3042.0777              3048.8394
 Red. masses --      1.0735                 1.0399                 1.0416
 Frc consts  --      5.5378                 5.6699                 5.7046
 IR Inten    --    103.3170                35.3078                23.4709

                    100                    101                    102
                      A                      A                      A
 Frequencies --   3055.3556              3059.7770              3064.5337
 Red. masses --      1.0432                 1.0568                 1.0819
 Frc consts  --      5.7380                 5.8295                 5.9862
 IR Inten    --     13.6586                10.2300                26.6537

                    103                    104                    105
                      A                      A                      A
 Frequencies --   3075.7186              3086.0629              3087.8112
 Red. masses --      1.0619                 1.0639                 1.0859
 Frc consts  --      5.9189                 5.9699                 6.1002
 IR Inten    --     40.1485                31.7118                26.3180

                    106                    107                    108
                      A                      A                      A
 Frequencies --   3098.8617              3107.1403              3109.2367
 Red. masses --      1.0963                 1.0938                 1.0951
 Frc consts  --      6.2028                 6.2216                 6.2373
 IR Inten    --     19.4621                17.8351                20.8436

                    109                    110                    111
                      A                      A                      A
 Frequencies --   3110.1802              3111.5209              3121.3094
 Red. masses --      1.1000                 1.1005                 1.1011
 Frc consts  --      6.2692                 6.2773                 6.3205
 IR Inten    --     13.3560                 7.5541                13.1270

                    112                    113                    114
                      A                      A                      A
 Frequencies --   3125.2018              3128.5203              3132.5084
 Red. masses --      1.1027                 1.1017                 1.1067
 Frc consts  --      6.3452                 6.3529                 6.3982
 IR Inten    --     15.6057                15.5909                59.4429

                    115                    116                    117
                      A                      A                      A
 Frequencies --   3137.9780              3166.9380              3172.8552
 Red. masses --      1.1032                 1.0897                 1.0899
 Frc consts  --      6.4005                 6.4390                 6.4647
 IR Inten    --     11.8004                21.4950                19.4781

 - Thermochemistry -
 -------------------
 Temperature   298.150 Kelvin.  Pressure   1.00000 Atm.
 Atom     1 has atomic number  6 and mass  12.00000

 Molecular mass:   245.17796 amu.
 Principal axes and moments of inertia in atomic units:
                           1         2         3
     Eigenvalues --  3637.462874387.365696077.02884
           X            0.99864  -0.04933   0.01712
           Y            0.04902   0.99863   0.01839
           Z           -0.01800  -0.01752   0.99968
 This molecule is an asymmetric top.
 Rotational symmetry number  1.
 Warning -- assumption of classical behavior for rotation
           may cause significant error
 Rotational temperatures (Kelvin)      0.02381     0.01974     0.01425
 Rotational constants (GHZ):           0.49615     0.41135     0.29698
 Zero-point vibrational energy     948857.5 (Joules/Mol)
                                  226.78239 (Kcal/Mol)
 Warning -- explicit consideration of  29 degrees of freedom as
           vibrations may cause significant error
 Vibrational temperatures:     33.77    47.15    64.35    78.96    85.51
          (Kelvin)            112.14   132.17   173.35   200.24   213.73
                              221.19   272.31   275.49   326.92   334.50
                              392.16   400.46   454.60   476.01   526.83
                              593.11   638.55   723.26   741.50   754.51
                              783.18   828.11   838.75   866.73   936.27
                              953.50   985.75  1103.00  1109.46  1248.55
                             1251.47  1270.83  1286.47  1309.05  1319.93
                             1363.23  1391.83  1401.35  1410.39  1432.03
                             1503.87  1507.48  1509.28  1528.17  1536.01
                             1538.78  1545.23  1546.52  1550.99  1642.63
                             1662.90  1697.89  1721.45  1766.32  1773.41
                             1793.58  1826.42  1856.20  1862.45  1863.92
                             1892.67  1917.36  1921.11  1930.26  1931.47
                             1959.64  1993.71  2026.56  2053.22  2061.25
                             2074.02  2080.05  2102.73  2130.90  2148.47
                             2177.17  2181.77  2183.95  2186.30  2189.22
                             2192.13  2201.74  2209.96  2215.89  2222.39
                             2244.94  2342.60  2399.74  2564.80  4187.55
                             4200.52  4257.24  4376.87  4386.60  4395.98
                             4402.34  4409.18  4425.27  4440.16  4442.67
                             4458.57  4470.48  4473.50  4474.86  4476.78
                             4490.87  4496.47  4501.24  4506.98  4514.85
                             4556.52  4565.03

 Zero-point correction=                           0.361401 (Hartree/Particle)
 Thermal correction to Energy=                    0.380464
 Thermal correction to Enthalpy=                  0.381408
 Thermal correction to Gibbs Free Energy=         0.312413
 Sum of electronic and zero-point Energies=           -753.250505
 Sum of electronic and thermal Energies=              -753.231442
 Sum of electronic and thermal Enthalpies=            -753.230498
 Sum of electronic and thermal Free Energies=         -753.299493

                     E (Thermal)             CV                S
                      KCal/Mol        Cal/Mol-Kelvin    Cal/Mol-Kelvin
 Total                  238.745             70.351            145.213
 Electronic               0.000              0.000              0.000
 Translational            0.889              2.981             42.391
 Rotational               0.889              2.981             32.939
 Vibrational            236.967             64.389             69.883
 Vibration     1          0.593              1.985              6.317
 Vibration     2          0.594              1.983              5.654
 Vibration     3          0.595              1.980              5.038
 Vibration     4          0.596              1.976              4.633
 Vibration     5          0.597              1.974              4.476
 Vibration     6          0.599              1.964              3.942
 Vibration     7          0.602              1.955              3.620
 Vibration     8          0.609              1.932              3.093
 Vibration     9          0.615              1.914              2.815
 Vibration    10          0.618              1.904              2.691
 Vibration    11          0.619              1.899              2.625
 Vibration    12          0.633              1.855              2.235
 Vibration    13          0.634              1.852              2.213
 Vibration    14          0.651              1.800              1.901
 Vibration    15          0.653              1.791              1.860
 Vibration    16          0.676              1.724              1.580
 Vibration    17          0.679              1.714              1.544
 Vibration    18          0.703              1.643              1.331
 Vibration    19          0.713              1.614              1.256
 Vibration    20          0.739              1.542              1.096
 Vibration    21          0.776              1.444              0.919
 Vibration    22          0.803              1.375              0.815
 Vibration    23          0.858              1.244              0.651
 Vibration    24          0.870              1.216              0.621
 Vibration    25          0.879              1.196              0.600
 Vibration    26          0.899              1.152              0.556
 Vibration    27          0.932              1.084              0.494
 Vibration    28          0.940              1.068              0.480
 Vibration    29          0.961              1.027              0.446

 Optimization completed.
    -- Stationary point found.
 Normal termination of Gaussian 16 at Fri Dec 11 23:54:35 2020.

 ----------------------------------------------------------------------
 # B3LYP/6-311++G(d,p) empiricaldispersion=gd3bj scf=xqc pop=npa geom=c
 heck
 ----------------------------------------------------------------------

 --------------------------------------
 CID_82051341_JID_8954_Energie_neutraal
 --------------------------------------
 Structure from the checkpoint file:  "JID_8954.chk"
 Charge =  0 Multiplicity = 1

 SCF Done:  E(RB3LYP) =  -753.812190595     A.U. after   16 cycles
 Normal termination of Gaussian 16 at Sat Dec 12 00:04:11 2020.

 ----------------------------------------------------------------------
 # B3LYP/6-311++G(d,p) empiricaldispersion=gd3bj scf=xqc pop=npa geom=c
 heck
 ----------------------------------------------------------------------

 ------------------------------------
 CID_82051341_JID_8954_Energie_kation
 ------------------------------------
 Structure from the checkpoint file:  "JID_8954.chk"
 Charge =  1 Multiplicity = 2

 SCF Done:  E(UB3LYP) =  -753.532777254     A.U. after   29 cycles
 Normal termination of Gaussian 16 at Sat Dec 12 00:27:20 2020.
 Gaussian 16:  ES64L-G16RevA.03 25-Dec-2016

 ----------------------------------------------------------------------
 # B3LYP/6-311++G(d,p) empiricaldispersion=gd3bj scf=xqc pop=npa geom=c
 heck
 ----------------------------------------------------------------------

 -----------------------------------
 CID_82051341_JID_8954_Energie_anion
 -----------------------------------
 Structure from the checkpoint file:  "JID_8954.chk"
 Charge = -1 Multiplicity = 2

                         Standard orientation:
 ---------------------------------------------------------------------
 Center     Atomic      Atomic             Coordinates (Angstroms)
 Number     Number       Type             X           Y           Z
 ---------------------------------------------------------------------
      1          6           0       -2.707123    3.157491   -0.025127
      2          6           0       -2.118394    1.774784    0.111006
      3          6           0       -2.455113    0.758475   -0.786166
      4          6           0       -1.946717   -0.537133   -0.655189
      5          6           0       -1.044176   -0.808200    0.389281
      6          6           0       -0.696856    0.193365    1.310816
      7          6           0       -1.248270    1.467155    1.160247
      8          6           0        0.258981   -0.076891    2.446535
      9          6           0       -0.462374   -2.197550    0.490224
     10          8           0       -1.168349   -3.150169    0.775249
     11          6           0        1.012140   -2.405548    0.147657
     12          6           0        1.524950   -1.491739   -0.980580
     13          7           0        1.847339   -0.162953   -0.494641
     14          6           0        3.216804    0.032061   -0.034855
     15          6           0        3.311315    1.553679    0.206608
     16          6           0        2.137438    2.152735   -0.619868
     17          6           0        1.567099    0.953700   -1.390062
     18          6           0       -2.365837   -1.612682   -1.631061
     19          1           0       -2.990064    3.371096   -1.060950
     20          1           0       -3.610442    3.266008    0.589521
     21          1           0       -1.999323    3.927331    0.300460
     22          1           0       -3.137786    0.975168   -1.605002
     23          1           0       -0.987418    2.240653    1.879975
     24          1           0        0.143183    0.667922    3.239843
     25          1           0        0.098953   -1.065366    2.890363
     26          1           0        1.291922   -0.031638    2.086026
     27          1           0        1.614319   -2.232344    1.048457
     28          1           0        1.121804   -3.464172   -0.109748
     29          1           0        2.395557   -1.966964   -1.467769
     30          1           0        0.753055   -1.400877   -1.752302
     31          1           0        3.949868   -0.285447   -0.803908
     32          1           0        3.416625   -0.561103    0.865367
     33          1           0        3.198317    1.790990    1.268543
     34          1           0        4.284033    1.940558   -0.110966
     35          1           0        1.368707    2.552855    0.047019
     36          1           0        2.457056    2.958172   -1.287346
     37          1           0        0.490737    1.029598   -1.570279
     38          1           0        2.076080    0.840860   -2.368641
     39          1           0       -2.915198   -2.410315   -1.121815
     40          1           0       -3.003833   -1.196532   -2.415930
     41          1           0       -1.503940   -2.086647   -2.117221
 ---------------------------------------------------------------------

 SCF Done:  E(UB3LYP) =  -753.803631864     A.U. after   33 cycles
 SCF Done:  E(UB3LYP) =  -753.803631863     a.u. after    1 cycles

 The electronic state is 2-A.
 Alpha  occ. eigenvalues --  -18.97136 -14.19311 -10.11342 -10.08741 -10.08392
 Alpha  occ. eigenvalues --  -10.08303 -10.07150 -10.06945 -10.06797 -10.06740
 Alpha  occ. eigenvalues --  -10.06469 -10.06282 -10.06093 -10.05561 -10.05494
 Alpha  occ. eigenvalues --  -10.05476 -10.05413 -10.05311  -0.90745  -0.82940
 Alpha  occ. eigenvalues --   -0.75253  -0.69170  -0.67618  -0.67287  -0.63172
 Alpha  occ. eigenvalues --   -0.61996  -0.59625  -0.58333  -0.57125  -0.53409
 Alpha  occ. eigenvalues --   -0.48285  -0.47791  -0.46802  -0.46447  -0.42619
 Alpha  occ. eigenvalues --   -0.39593  -0.38521  -0.37551  -0.36935  -0.34218
 Alpha  occ. eigenvalues --   -0.33564  -0.32600  -0.32389  -0.31633  -0.30906
 Alpha  occ. eigenvalues --   -0.30524  -0.30364  -0.30028  -0.29615  -0.29368
 Alpha  occ. eigenvalues --   -0.28957  -0.28697  -0.27179  -0.26100  -0.25332
 Alpha  occ. eigenvalues --   -0.25050  -0.24195  -0.23778  -0.23058  -0.22933
 Alpha  occ. eigenvalues --   -0.22292  -0.22123  -0.21658  -0.13471  -0.13158
 Alpha  occ. eigenvalues --   -0.11660  -0.10535   0.04569
 Alpha virt. eigenvalues --    0.06515   0.06790   0.07676   0.08069   0.08731
 Alpha virt. eigenvalues --    0.09047   0.09237   0.09584   0.10103   0.10379
 Alpha virt. eigenvalues --    0.10958   0.11030   0.11443   0.11894   0.12661

  Beta  occ. eigenvalues --  -18.96869 -14.19309 -10.11085 -10.08711 -10.08356
  Beta  occ. eigenvalues --  -10.08295 -10.07127 -10.06938 -10.06706 -10.06668
  Beta  occ. eigenvalues --  -10.06453 -10.06274 -10.06089 -10.05555 -10.05511
  Beta  occ. eigenvalues --  -10.05493 -10.05412 -10.05267  -0.90222  -0.82927
  Beta  occ. eigenvalues --   -0.75135  -0.69087  -0.67497  -0.67195  -0.63046
  Beta  occ. eigenvalues --   -0.61953  -0.59596  -0.58179  -0.57101  -0.53277
  Beta  occ. eigenvalues --   -0.48084  -0.47722  -0.46707  -0.46371  -0.42382
  Beta  occ. eigenvalues --   -0.39518  -0.38447  -0.37443  -0.36791  -0.34060
  Beta  occ. eigenvalues --   -0.33473  -0.32510  -0.32279  -0.31531  -0.30821
  Beta  occ. eigenvalues --   -0.30404  -0.30276  -0.29952  -0.29567  -0.29181
  Beta  occ. eigenvalues --   -0.28875  -0.28613  -0.26975  -0.26055  -0.25214
  Beta  occ. eigenvalues --   -0.25003  -0.24132  -0.23497  -0.22987  -0.22820
  Beta  occ. eigenvalues --   -0.22162  -0.21830  -0.21113  -0.13206  -0.12971
  Beta  occ. eigenvalues --   -0.11317  -0.10441
  Beta virt. eigenvalues --    0.06500   0.07309   0.07751   0.08065   0.08489
  Beta virt. eigenvalues --    0.09140   0.09299   0.09594   0.09757   0.10152
  Beta virt. eigenvalues --    0.10558   0.11097   0.11258   0.11826   0.12407

 Mulliken charges and spin densities:
               1          2
     1  C    0.454243  -0.922107
     2  C    0.060901   0.471734
     3  C   -0.891798   0.399933
     4  C    0.150821  -0.133056
     5  C    0.328269   0.065112
     6  C    0.137279   0.527665
     7  C   -0.209825  -0.400177
     8  C   -0.159123  -0.501633
     9  C   -0.758283   0.090382
    10  O   -0.269728   0.090861
    11  C    0.212365  -0.337099
    12  C   -0.673417   0.303534
    13  N    0.378237  -0.009407
    14  C    0.497827  -0.771422
    15  C    0.117626  -0.495319
    16  C   -0.219726  -0.260266
    17  C   -0.137999  -0.029663
    18  C   -0.418424  -0.028957
    19  H    0.063906   0.071332
    20  H   -0.033518   0.200678
    21  H   -0.068689   0.210583
    22  H    0.074612   0.049730
    23  H    0.016066   0.129240
    24  H    0.003236   0.124662
    25  H    0.138622   0.050560
    26  H    0.482922  -0.302072
    27  H   -0.118957   0.243883
    28  H    0.162800   0.020361
    29  H   -0.270459   0.394041
    30  H    0.050627   0.087498
    31  H   -0.208194   0.328776
    32  H   -0.312356   0.460834
    33  H   -0.166560   0.304827
    34  H   -0.145351   0.282185
    35  H    0.301096  -0.172083
    36  H   -0.133839   0.281365
    37  H    0.179930  -0.023671
    38  H   -0.038001   0.159784
    39  H    0.204269  -0.006896
    40  H    0.085356   0.037801
    41  H    0.133239   0.006468
 Sum of Mulliken charges =  -1.00000   1.00000

 Dipole moment (field-independent basis, Debye):
    X=             -2.3083    Y=              2.0344    Z=             -1.7530  Tot=              3.5412
 Quadrupole moment (field-independent basis, Debye-Ang):
   XX=           -173.0281   YY=           -160.2765   ZZ=           -136.3270
   XY=             -0.9143   XZ=              7.2970   YZ=              5.3410

 Summary of Natural Population Analysis:

                                       Natural Population
                Natural  -----------------------------------------------
    Atom  No    Charge         Core      Valence    Rydberg      Total
 -----------------------------------------------------------------------
      C    1   -0.29017      0.99964     2.28581    0.00473     3.29017
      C    2   -0.00204      0.99951     1.99351    0.00902     3.00204
      C    3   -0.11328      0.99947     2.10492    0.00889     3.11328
      C    4    0.00058      0.99948     1.99124    0.00871     2.99942
      C    5   -0.05113      0.99937     2.04032    0.01144     3.05113
      C    6    0.01745      0.99947     1.97367    0.00941     2.98255
      C    7   -0.11464      0.99947     2.10616    0.00901     3.11464
      C    8   -0.29721      0.99963     2.29207    0.00551     3.29721
      C    9    0.32193      0.99962     1.65617    0.02227     2.67807
      O   10   -0.27001      0.99988     3.26386    0.00627     4.27001
      C   11   -0.24004      0.99958     2.23101    0.00945     3.24004
      C   12   -0.07819      0.99961     2.06777    0.01081     3.07819
      N   13   -0.29516      0.99970     2.77937    0.01608     3.79516
      C   14   -0.08079      0.99963     2.07007    0.01109     3.08079
      C   15   -0.19415      0.99963     2.18706    0.00746     3.19415
      C   16   -0.19489      0.99963     2.18749    0.00777     3.19489
      C   17   -0.07934      0.99962     2.07037    0.00935     3.07934
      C   18   -0.29323      0.99964     2.28873    0.00486     3.29323
      H   19    0.09865      0.00000     0.40053    0.00082     0.40135
      H   20    0.10291      0.00000     0.39564    0.00145     0.39709
      H   21    0.10055      0.00000     0.39854    0.00091     0.39945
      H   22    0.09186      0.00000     0.40682    0.00133     0.40814
      H   23    0.09347      0.00000     0.40522    0.00131     0.40653
      H   24    0.09760      0.00000     0.40166    0.00075     0.40240
      H   25    0.10414      0.00000     0.39508    0.00078     0.39586
      H   26    0.11155      0.00000     0.38689    0.00156     0.38845
      H   27    0.11275      0.00000     0.38549    0.00176     0.38725
      H   28    0.10444      0.00000     0.39454    0.00102     0.39556
      H   29    0.08658      0.00000     0.41180    0.00161     0.41342
      H   30    0.09534      0.00000     0.40335    0.00131     0.40466
      H   31    0.07909      0.00000     0.41870    0.00221     0.42091
      H   32    0.09739      0.00000     0.40104    0.00157     0.40261
      H   33    0.09742      0.00000     0.40144    0.00114     0.40258
      H   34    0.09672      0.00000     0.40217    0.00111     0.40328
      H   35    0.10168      0.00000     0.39690    0.00142     0.39832
      H   36    0.09544      0.00000     0.40365    0.00091     0.40456
      H   37    0.10316      0.00000     0.39523    0.00161     0.39684
      H   38    0.07503      0.00000     0.42367    0.00130     0.42497
      H   39    0.11260      0.00000     0.38643    0.00096     0.38740
      H   40    0.09495      0.00000     0.40426    0.00079     0.40505
      H   41    0.10101      0.00000     0.39801    0.00098     0.39899
 =======================================================================
   * Total *   -0.00000     17.99258    48.80668    0.20074    67.00000

 Normal termination of Gaussian 16 at Sat Dec 12 00:53:34 2020.
