 Gaussian 16, Revision A.03,

 -----------------------------------------------------------
 # opt freq B3LYP/6-31G(d) empiricaldispersion=gd3bj scf=xqc
 -----------------------------------------------------------

 ------------------------------
 CID_62705425_JID_2282_neutraal
 ------------------------------
 Symbolic Z-matrix:
 Charge =  0 Multiplicity = 1

 SCF Done:  E(RB3LYP) =  -588.056266556     A.U. after   15 cycles
 SCF Done:  E(RB3LYP) =  -588.078545789     A.U. after   13 cycles
 SCF Done:  E(RB3LYP) =  -588.080371408     A.U. after   13 cycles
 SCF Done:  E(RB3LYP) =  -588.079395269     A.U. after   13 cycles
 SCF Done:  E(RB3LYP) =  -588.079152909     A.U. after   13 cycles
 SCF Done:  E(RB3LYP) =  -588.077494927     A.U. after   13 cycles
 SCF Done:  E(RB3LYP) =  -588.080441428     A.U. after   11 cycles
 SCF Done:  E(RB3LYP) =  -588.081742898     A.U. after   12 cycles
 SCF Done:  E(RB3LYP) =  -588.082159359     A.U. after   13 cycles
 SCF Done:  E(RB3LYP) =  -588.083254832     A.U. after   13 cycles
 SCF Done:  E(RB3LYP) =  -588.085900926     A.U. after   11 cycles
 SCF Done:  E(RB3LYP) =  -588.085902100     A.U. after    8 cycles
 SCF Done:  E(RB3LYP) =  -588.085902724     A.U. after    9 cycles
 SCF Done:  E(RB3LYP) =  -588.085902879     A.U. after    8 cycles
 SCF Done:  E(RB3LYP) =  -588.085902874     A.U. after    6 cycles
 SCF Done:  E(RB3LYP) =  -588.085902885     A.U. after    6 cycles
 Optimization completed.
    -- Stationary point found.
 Normal termination of Gaussian 16 at Wed Dec  9 17:07:38 2020.

 --------------------------------------------------------------------
 #N Geom=AllCheck Guess=TCheck SCRF=Check GenChk RB3LYP/6-31G(d) Freq
 --------------------------------------------------------------------

 Structure from the checkpoint file:  "JID_2282.chk"
 ------------------------------
 CID_62705425_JID_2282_neutraal
 ------------------------------
 Charge =  0 Multiplicity = 1

 SCF Done:  E(RB3LYP) =  -588.085902885     A.U. after    1 cycles

  Exact polarizability: 120.545   7.250  80.031  11.275  -3.141  83.009
 Approx polarizability: 162.941  15.679 117.316  21.581 -13.971 137.927

                      1                      2                      3
                      A                      A                      A
 Frequencies --     27.8982                43.3999                65.5337
 Red. masses --      1.0155                 4.4005                 4.4547
 Frc consts  --      0.0005                 0.0049                 0.0113
 IR Inten    --      0.0008                 0.1209                 0.9903

                      4                      5                      6
                      A                      A                      A
 Frequencies --     77.3424                91.1225               177.1638
 Red. masses --      7.4876                 5.6095                 4.9884
 Frc consts  --      0.0264                 0.0274                 0.0922
 IR Inten    --      4.5810                 0.9648                 1.2627

                      7                      8                      9
                      A                      A                      A
 Frequencies --    192.3621               244.5711               284.4903
 Red. masses --      4.8553                 3.1636                 4.0665
 Frc consts  --      0.1059                 0.1115                 0.1939
 IR Inten    --      1.4202                 6.2453                10.0234

                     10                     11                     12
                      A                      A                      A
 Frequencies --    294.6378               313.8892               372.3218
 Red. masses --      2.3391                 1.3928                 3.1668
 Frc consts  --      0.1196                 0.0809                 0.2586
 IR Inten    --     25.4465                19.1665                38.6546

                     13                     14                     15
                      A                      A                      A
 Frequencies --    384.2898               386.3002               421.6746
 Red. masses --      4.1393                 2.8316                 4.6671
 Frc consts  --      0.3602                 0.2490                 0.4889
 IR Inten    --      9.0869                 8.6245                 1.5464

                     16                     17                     18
                      A                      A                      A
 Frequencies --    426.4341               441.3960               482.9617
 Red. masses --      4.5561                 1.3556                 1.2571
 Frc consts  --      0.4881                 0.1556                 0.1728
 IR Inten    --      9.6660               144.5708               178.9666

                     19                     20                     21
                      A                      A                      A
 Frequencies --    549.2273               575.2771               630.0155
 Red. masses --      3.5274                 3.1942                 4.4775
 Frc consts  --      0.6269                 0.6228                 1.0471
 IR Inten    --     28.0131                53.8886                32.1693

                     22                     23                     24
                      A                      A                      A
 Frequencies --    665.6285               704.4649               750.1972
 Red. masses --      2.5580                 2.3516                 1.7796
 Frc consts  --      0.6677                 0.6876                 0.5901
 IR Inten    --     15.0067                15.6926                14.6026

                     25                     26                     27
                      A                      A                      A
 Frequencies --    759.7576               779.8763               804.7598
 Red. masses --      2.3606                 1.5134                 4.0432
 Frc consts  --      0.8028                 0.5423                 1.5428
 IR Inten    --      1.3966                 5.8485                 0.6915

                     28                     29                     30
                      A                      A                      A
 Frequencies --    889.7465               957.3142               979.0721
 Red. masses --      2.3928                 1.8627                 1.9281
 Frc consts  --      1.1161                 1.0058                 1.0890
 IR Inten    --     31.6510                86.0401                39.0990

                     31                     32                     33
                      A                      A                      A
 Frequencies --   1068.8694              1071.3263              1089.8690
 Red. masses --      1.3987                 1.4372                 3.9955
 Frc consts  --      0.9415                 0.9719                 2.7962
 IR Inten    --      3.4328                 2.7041                23.2923

                     34                     35                     36
                      A                      A                      A
 Frequencies --   1126.1482              1153.2615              1181.9812
 Red. masses --      1.8689                 2.0084                 3.4729
 Frc consts  --      1.3965                 1.5739                 2.8587
 IR Inten    --     15.8564                 6.6733                 0.6471

                     37                     38                     39
                      A                      A                      A
 Frequencies --   1187.8489              1300.1791              1309.3406
 Red. masses --      2.0889                 1.4134                 1.4586
 Frc consts  --      1.7365                 1.4077                 1.4733
 IR Inten    --      8.9447                18.2538                60.8891

                     40                     41                     42
                      A                      A                      A
 Frequencies --   1352.3105              1383.5260              1400.0237
 Red. masses --      1.7743                 2.1706                 2.5325
 Frc consts  --      1.9117                 2.4479                 2.9246
 IR Inten    --     17.3630                61.2944                25.0816

                     43                     44                     45
                      A                      A                      A
 Frequencies --   1444.4898              1493.5541              1508.0904
 Red. masses --      1.2448                 1.0982                 1.0401
 Frc consts  --      1.5303                 1.4434                 1.3937
 IR Inten    --      5.8370                 6.0921                 6.3154

                     46                     47                     48
                      A                      A                      A
 Frequencies --   1508.6098              1583.8786              1633.8371
 Red. masses --      1.0403                 1.4709                 1.3304
 Frc consts  --      1.3950                 2.1740                 2.0924
 IR Inten    --      6.5761               177.9545               230.0174

                     49                     50                     51
                      A                      A                      A
 Frequencies --   1661.4832              1774.7776              1806.4347
 Red. masses --      1.1403                 6.7585                 7.5078
 Frc consts  --      1.8547                12.5427                14.4348
 IR Inten    --    175.4625               143.3356               316.2892

                     52                     53                     54
                      A                      A                      A
 Frequencies --   2371.8150              3040.9183              3052.0506
 Red. masses --     11.8050                 1.0346                 1.0651
 Frc consts  --     39.1271                 5.6366                 5.8458
 IR Inten    --      2.9160                31.7611                15.0346

                     55                     56                     57
                      A                      A                      A
 Frequencies --   3101.9696              3103.6050              3113.7040
 Red. masses --      1.1016                 1.1015                 1.0968
 Frc consts  --      6.2455                 6.2513                 6.2653
 IR Inten    --     12.2618                10.8955                 2.6577

                     58                     59                     60
                      A                      A                      A
 Frequencies --   3459.4188              3493.5394              3532.7485
 Red. masses --      1.0498                 1.0539                 1.0485
 Frc consts  --      7.4023                 7.5788                 7.7101
 IR Inten    --     15.7312               106.9724                80.8211

                     61                     62                     63
                      A                      A                      A
 Frequencies --   3553.0090              3673.0084              3700.2929
 Red. masses --      1.0927                 1.0973                 1.1011
 Frc consts  --      8.1276                 8.7225                 8.8828
 IR Inten    --     44.6772                82.0121                80.8528

 - Thermochemistry -
 -------------------
 Temperature   298.150 Kelvin.  Pressure   1.00000 Atm.
 Atom     1 has atomic number  6 and mass  12.00000

 Molecular mass:   169.08513 amu.
 Principal axes and moments of inertia in atomic units:
                           1         2         3
     Eigenvalues --  1268.160743019.321213339.45100
           X            0.99989  -0.00756   0.01237
           Y            0.00695   0.99882   0.04811
           Z           -0.01272  -0.04802   0.99877
 This molecule is an asymmetric top.
 Rotational symmetry number  1.
 Warning -- assumption of classical behavior for rotation
           may cause significant error
 Rotational temperatures (Kelvin)      0.06830     0.02869     0.02594
 Rotational constants (GHZ):           1.42312     0.59773     0.54043
 Zero-point vibrational energy     490523.0 (Joules/Mol)
                                  117.23782 (Kcal/Mol)
 Warning -- explicit consideration of  20 degrees of freedom as
           vibrations may cause significant error
 Vibrational temperatures:     40.14    62.44    94.29   111.28   131.11
          (Kelvin)            254.90   276.77   351.88   409.32   423.92
                              451.62   535.69   552.91   555.80   606.70
                              613.54   635.07   694.87   790.22   827.70
                              906.45   957.69  1013.57  1079.37  1093.12
                             1122.07  1157.87  1280.15  1377.36  1408.67
                             1537.86  1541.40  1568.08  1620.28  1659.29
                             1700.61  1709.05  1870.67  1883.85  1945.67
                             1990.59  2014.32  2078.30  2148.89  2169.81
                             2170.55  2278.85  2350.73  2390.50  2553.51
                             2599.06  3412.51  4375.20  4391.22  4463.04
                             4465.40  4479.93  4977.33  5026.42  5082.84
                             5111.99  5284.64  5323.90

 Zero-point correction=                           0.186830 (Hartree/Particle)
 Thermal correction to Energy=                    0.200200
 Thermal correction to Enthalpy=                  0.201144
 Thermal correction to Gibbs Free Energy=         0.145965
 Sum of electronic and zero-point Energies=           -587.899073
 Sum of electronic and thermal Energies=              -587.885703
 Sum of electronic and thermal Enthalpies=            -587.884759
 Sum of electronic and thermal Free Energies=         -587.939938

                     E (Thermal)             CV                S
                      KCal/Mol        Cal/Mol-Kelvin    Cal/Mol-Kelvin
 Total                  125.627             48.389            116.134
 Electronic               0.000              0.000              0.000
 Translational            0.889              2.981             41.284
 Rotational               0.889              2.981             30.926
 Vibrational            123.850             42.427             43.925
 Vibration     1          0.593              1.984              5.974
 Vibration     2          0.595              1.980              5.098
 Vibration     3          0.597              1.971              4.283
 Vibration     4          0.599              1.964              3.957
 Vibration     5          0.602              1.955              3.636
 Vibration     6          0.628              1.870              2.358
 Vibration     7          0.634              1.850              2.205
 Vibration     8          0.660              1.772              1.769
 Vibration     9          0.683              1.702              1.507
 Vibration    10          0.689              1.684              1.447
 Vibration    11          0.702              1.647              1.342
 Vibration    12          0.744              1.529              1.070
 Vibration    13          0.753              1.504              1.022
 Vibration    14          0.755              1.499              1.014
 Vibration    15          0.784              1.423              0.886
 Vibration    16          0.788              1.413              0.870
 Vibration    17          0.801              1.380              0.822
 Vibration    18          0.839              1.288              0.702
 Vibration    19          0.904              1.141              0.546
 Vibration    20          0.932              1.085              0.494

 Optimization completed.
    -- Stationary point found.
 Normal termination of Gaussian 16 at Wed Dec  9 17:13:05 2020.

 ----------------------------------------------------------------------
 # B3LYP/6-311++G(d,p) empiricaldispersion=gd3bj scf=xqc pop=npa geom=c
 heck
 ----------------------------------------------------------------------

 --------------------------------------
 CID_62705425_JID_2282_Energie_neutraal
 --------------------------------------
 Structure from the checkpoint file:  "JID_2282.chk"
 Charge =  0 Multiplicity = 1

 SCF Done:  E(RB3LYP) =  -588.281204109     A.U. after   14 cycles
 Normal termination of Gaussian 16 at Wed Dec  9 17:15:25 2020.

 ----------------------------------------------------------------------
 # B3LYP/6-311++G(d,p) empiricaldispersion=gd3bj scf=xqc pop=npa geom=c
 heck
 ----------------------------------------------------------------------

 ------------------------------------
 CID_62705425_JID_2282_Energie_kation
 ------------------------------------
 Structure from the checkpoint file:  "JID_2282.chk"
 Charge =  1 Multiplicity = 2

 SCF Done:  E(UB3LYP) =  -587.958227867     A.U. after   28 cycles
 Normal termination of Gaussian 16 at Wed Dec  9 17:21:27 2020.
 Gaussian 16:  ES64L-G16RevA.03 25-Dec-2016

 ----------------------------------------------------------------------
 # B3LYP/6-311++G(d,p) empiricaldispersion=gd3bj scf=xqc pop=npa geom=c
 heck
 ----------------------------------------------------------------------

 -----------------------------------
 CID_62705425_JID_2282_Energie_anion
 -----------------------------------
 Structure from the checkpoint file:  "JID_2282.chk"
 Charge = -1 Multiplicity = 2

                         Standard orientation:
 ---------------------------------------------------------------------
 Center     Atomic      Atomic             Coordinates (Angstroms)
 Number     Number       Type             X           Y           Z
 ---------------------------------------------------------------------
      1          6           0        4.337135   -0.261359   -0.056046
      2          6           0        2.923971   -0.471376   -0.356929
      3          6           0        1.759353   -0.639054   -0.637567
      4          6           0        0.336329   -0.827101   -0.904668
      5          6           0       -0.551023   -0.199365    0.221952
      6          6           0       -0.488418    1.341254    0.066882
      7          8           0       -0.745395    1.892249   -1.007605
      8          7           0       -0.139491    1.986939    1.191491
      9          6           0       -2.005295   -0.698823   -0.021811
     10          8           0       -2.488989   -1.572773    0.688965
     11          7           0       -2.620270   -0.161242   -1.099134
     12          7           0       -0.155770   -0.612128    1.562458
     13          1           0        4.891650    0.031756   -0.955446
     14          1           0        4.802382   -1.171737    0.340454
     15          1           0        4.470016    0.532821    0.688336
     16          1           0        0.060282   -0.371702   -1.860270
     17          1           0        0.099851   -1.897048   -0.965749
     18          1           0       -0.007602    1.421038    2.023682
     19          1           0       -0.105406    2.995299    1.200498
     20          1           0       -2.224477    0.678702   -1.515304
     21          1           0       -3.585869   -0.410002   -1.262247
     22          1           0       -0.787791   -1.359044    1.852984
     23          1           0        0.798453   -0.965925    1.547603
 ---------------------------------------------------------------------

 SCF Done:  E(UB3LYP) =  -588.268392553     A.U. after   30 cycles

 The electronic state is 2-A.
 Alpha  occ. eigenvalues --  -19.01018 -18.99949 -14.24199 -14.23462 -14.20382
 Alpha  occ. eigenvalues --  -10.19266 -10.18242 -10.13977 -10.10725 -10.08457
 Alpha  occ. eigenvalues --  -10.07109 -10.06413  -0.96109  -0.94616  -0.82743
 Alpha  occ. eigenvalues --   -0.82276  -0.79588  -0.69774  -0.66560  -0.61412
 Alpha  occ. eigenvalues --   -0.56838  -0.52526  -0.48118  -0.45606  -0.44346
 Alpha  occ. eigenvalues --   -0.41997  -0.39773  -0.39375  -0.35978  -0.35454
 Alpha  occ. eigenvalues --   -0.34773  -0.33756  -0.32641  -0.32495  -0.31998
 Alpha  occ. eigenvalues --   -0.30499  -0.29834  -0.28571  -0.19898  -0.19267
 Alpha  occ. eigenvalues --   -0.18339  -0.18059  -0.16528  -0.16123  -0.15017
 Alpha  occ. eigenvalues --    0.04381
 Alpha virt. eigenvalues --    0.06042   0.07017   0.08103   0.08582   0.09414
 Alpha virt. eigenvalues --    0.10200   0.10829   0.10997   0.11637   0.12098
 Alpha virt. eigenvalues --    0.12900   0.13545   0.14046   0.15141   0.15245

  Beta  occ. eigenvalues --  -19.01012 -18.99940 -14.24166 -14.23410 -14.20362
  Beta  occ. eigenvalues --  -10.19264 -10.18234 -10.13971 -10.10713 -10.08386
  Beta  occ. eigenvalues --  -10.07105 -10.06408  -0.96096  -0.94599  -0.82702
  Beta  occ. eigenvalues --   -0.82235  -0.79538  -0.69742  -0.66502  -0.61351
  Beta  occ. eigenvalues --   -0.56776  -0.52457  -0.48070  -0.45568  -0.44297
  Beta  occ. eigenvalues --   -0.41957  -0.39736  -0.39343  -0.35923  -0.35427
  Beta  occ. eigenvalues --   -0.34747  -0.33720  -0.32580  -0.32427  -0.31965
  Beta  occ. eigenvalues --   -0.30472  -0.29818  -0.28541  -0.19866  -0.19242
  Beta  occ. eigenvalues --   -0.18324  -0.18010  -0.16508  -0.16098  -0.14990
  Beta virt. eigenvalues --    0.06701   0.07241   0.08104   0.08330   0.08978
  Beta virt. eigenvalues --    0.09846   0.10913   0.11061   0.11656   0.11786
  Beta virt. eigenvalues --    0.12464   0.13146   0.13721   0.14198   0.15230

 Mulliken charges and spin densities:
               1          2
     1  C    2.234669  -2.733706
     2  C   -0.954032   0.861872
     3  C    0.006643  -0.065269
     4  C   -0.461337   0.053740
     5  C    1.760148  -1.112279
     6  C    0.252875  -0.640681
     7  O   -0.376634   0.010393
     8  N   -0.341519   0.009230
     9  C   -0.820340   0.867689
    10  O   -0.356197  -0.004532
    11  N   -0.265711  -0.139894
    12  N   -0.580199   0.183662
    13  H   -0.343651   0.500442
    14  H   -0.487052   0.645384
    15  H   -0.488266   0.669812
    16  H    0.043058   0.156835
    17  H    0.087940   0.097137
    18  H   -0.020130   0.328557
    19  H   -0.287168   0.597060
    20  H    0.272228   0.011845
    21  H   -0.202079   0.512446
    22  H    0.207198   0.066921
    23  H    0.119557   0.123338
 Sum of Mulliken charges =  -1.00000   1.00000

 Dipole moment (field-independent basis, Debye):
    X=             -4.7842    Y=             -1.8372    Z=             -1.6115  Tot=              5.3722
 Quadrupole moment (field-independent basis, Debye-Ang):
   XX=           -149.1267   YY=           -109.9602   ZZ=           -101.7514
   XY=             -2.6176   XZ=             -3.1950   YZ=             -1.3114

 Summary of Natural Population Analysis:

                                       Natural Population
                Natural  -----------------------------------------------
    Atom  No    Charge         Core      Valence    Rydberg      Total
 -----------------------------------------------------------------------
      C    1   -0.32028      0.99961     2.31441    0.00626     3.32028
      C    2    0.01214      0.99923     1.98214    0.00650     2.98786
      C    3   -0.03439      0.99925     2.02589    0.00925     3.03439
      C    4   -0.22281      0.99954     2.21333    0.00994     3.22281
      C    5   -0.00308      0.99952     1.98753    0.01603     3.00308
      C    6    0.33915      0.99963     1.63569    0.02554     2.66085
      O    7   -0.34511      0.99987     3.33901    0.00623     4.34511
      N    8   -0.38595      0.99968     2.87782    0.00845     3.88595
      C    9    0.34386      0.99964     1.63256    0.02394     2.65614
      O   10   -0.32694      0.99987     3.32100    0.00606     4.32694
      N   11   -0.40115      0.99969     2.89380    0.00767     3.90115
      N   12   -0.43916      0.99974     2.92797    0.01145     3.93916
      H   13    0.11284      0.00000     0.38558    0.00157     0.38716
      H   14    0.11311      0.00000     0.38471    0.00218     0.38689
      H   15    0.11757      0.00000     0.37949    0.00294     0.38243
      H   16    0.12275      0.00000     0.37556    0.00169     0.37725
      H   17    0.11349      0.00000     0.38502    0.00149     0.38651
      H   18    0.21367      0.00000     0.28274    0.00359     0.28633
      H   19    0.19912      0.00000     0.29677    0.00412     0.30088
      H   20    0.21283      0.00000     0.28469    0.00248     0.28717
      H   21    0.19565      0.00000     0.30137    0.00298     0.30435
      H   22    0.19469      0.00000     0.30300    0.00231     0.30531
      H   23    0.18801      0.00000     0.31015    0.00184     0.31199
 =======================================================================
   * Total *    0.00000     11.99529    32.84022    0.16449    45.00000

 Normal termination of Gaussian 16 at Wed Dec  9 17:28:08 2020.
