 Gaussian 16, Revision A.03,

 -----------------------------------------------------------
 # opt freq B3LYP/6-31G(d) empiricaldispersion=gd3bj scf=xqc
 -----------------------------------------------------------

 -------------------------------
 CID_150864264_JID_2281_neutraal
 -------------------------------
 Symbolic Z-matrix:
 Charge =  0 Multiplicity = 1

 SCF Done:  E(RB3LYP) =  -501.415698692     A.U. after   13 cycles
 SCF Done:  E(RB3LYP) =  -501.419447671     A.U. after   11 cycles
 SCF Done:  E(RB3LYP) =  -501.419984242     A.U. after   10 cycles
 SCF Done:  E(RB3LYP) =  -501.420960320     A.U. after   12 cycles
 SCF Done:  E(RB3LYP) =  -501.419430609     A.U. after   14 cycles
 SCF Done:  E(RB3LYP) =  -501.422141388     A.U. after   11 cycles
 SCF Done:  E(RB3LYP) =  -501.422678652     A.U. after   11 cycles
 SCF Done:  E(RB3LYP) =  -501.422933607     A.U. after   10 cycles
 SCF Done:  E(RB3LYP) =  -501.422987652     A.U. after   10 cycles
 SCF Done:  E(RB3LYP) =  -501.423011830     A.U. after    9 cycles
 SCF Done:  E(RB3LYP) =  -501.423198319     A.U. after   11 cycles
 SCF Done:  E(RB3LYP) =  -501.423224428     A.U. after   10 cycles
 SCF Done:  E(RB3LYP) =  -501.423225893     A.U. after    8 cycles
 SCF Done:  E(RB3LYP) =  -501.423227505     A.U. after    8 cycles
 SCF Done:  E(RB3LYP) =  -501.423227847     A.U. after    8 cycles
 SCF Done:  E(RB3LYP) =  -501.423227941     A.U. after    7 cycles
 Optimization completed.
    -- Stationary point found.
 Normal termination of Gaussian 16 at Wed Dec  9 17:11:44 2020.

 --------------------------------------------------------------------
 #N Geom=AllCheck Guess=TCheck SCRF=Check GenChk RB3LYP/6-31G(d) Freq
 --------------------------------------------------------------------

 Structure from the checkpoint file:  "JID_2281.chk"
 -------------------------------
 CID_150864264_JID_2281_neutraal
 -------------------------------
 Charge =  0 Multiplicity = 1

 SCF Done:  E(RB3LYP) =  -501.423227941     A.U. after    1 cycles

  Exact polarizability: 121.529   4.991 117.197  -5.472  -1.906  97.071
 Approx polarizability: 161.634  14.605 169.700  -8.953  -6.417 145.964

                      1                      2                      3
                      A                      A                      A
 Frequencies --     53.2656                72.9687               108.7998
 Red. masses --      2.6257                 2.2873                 2.0281
 Frc consts  --      0.0044                 0.0072                 0.0141
 IR Inten    --      1.6545                 5.8282                 1.8966

                      4                      5                      6
                      A                      A                      A
 Frequencies --    149.5586               182.8674               201.8571
 Red. masses --      2.6426                 1.1806                 2.2398
 Frc consts  --      0.0348                 0.0233                 0.0538
 IR Inten    --      0.6272                 0.4856                 1.6580

                      7                      8                      9
                      A                      A                      A
 Frequencies --    231.1934               247.4339               281.8704
 Red. masses --      1.7150                 2.0030                 2.3241
 Frc consts  --      0.0540                 0.0723                 0.1088
 IR Inten    --      0.5329                 0.8367                 2.2232

                     10                     11                     12
                      A                      A                      A
 Frequencies --    297.0124               333.3773               367.4516
 Red. masses --      2.7248                 2.2507                 2.6407
 Frc consts  --      0.1416                 0.1474                 0.2101
 IR Inten    --      1.0042                 0.1096                 0.9611

                     13                     14                     15
                      A                      A                      A
 Frequencies --    424.3161               498.9874               508.2828
 Red. masses --      3.2437                 3.1994                 3.6380
 Frc consts  --      0.3441                 0.4694                 0.5538
 IR Inten    --      9.0082                 3.6601                13.2807

                     16                     17                     18
                      A                      A                      A
 Frequencies --    552.1559               573.9920               675.0840
 Red. masses --      3.8178                 2.2681                 2.6656
 Frc consts  --      0.6858                 0.4403                 0.7157
 IR Inten    --      9.3921                76.5661                17.0839

                     19                     20                     21
                      A                      A                      A
 Frequencies --    724.8392               790.0542               800.1653
 Red. masses --      2.2392                 1.6904                 2.5653
 Frc consts  --      0.6932                 0.6217                 0.9677
 IR Inten    --     44.3536                24.8466                11.7062

                     22                     23                     24
                      A                      A                      A
 Frequencies --    818.2231               848.4993               885.1441
 Red. masses --      1.2859                 2.7297                 2.8794
 Frc consts  --      0.5072                 1.1579                 1.3292
 IR Inten    --      8.6656                 2.5893                 0.9205

                     25                     26                     27
                      A                      A                      A
 Frequencies --    899.3049               928.1639               951.0628
 Red. masses --      2.5572                 2.1962                 2.3182
 Frc consts  --      1.2185                 1.1147                 1.2354
 IR Inten    --      6.0510                11.2002                 2.8657

                     28                     29                     30
                      A                      A                      A
 Frequencies --    993.1861              1007.9243              1022.9988
 Red. masses --      1.7096                 1.9963                 1.6135
 Frc consts  --      0.9936                 1.1949                 0.9949
 IR Inten    --      2.1675                 2.9199                 0.5760

                     31                     32                     33
                      A                      A                      A
 Frequencies --   1035.5697              1056.8798              1068.3011
 Red. masses --      2.0404                 1.8101                 1.8574
 Frc consts  --      1.2892                 1.1913                 1.2489
 IR Inten    --      3.2456                 3.3604                 1.8896

                     34                     35                     36
                      A                      A                      A
 Frequencies --   1091.3067              1108.6615              1133.9496
 Red. masses --      1.7382                 1.8810                 2.9144
 Frc consts  --      1.2196                 1.3622                 2.2080
 IR Inten    --      0.5622                 7.3600                23.0644

                     37                     38                     39
                      A                      A                      A
 Frequencies --   1146.0450              1159.8291              1173.0705
 Red. masses --      2.1704                 1.8291                 1.9707
 Frc consts  --      1.6796                 1.4497                 1.5978
 IR Inten    --      9.6894                17.4132                12.6368

                     40                     41                     42
                      A                      A                      A
 Frequencies --   1189.6063              1193.4807              1226.5295
 Red. masses --      1.4768                 1.8884                 1.2748
 Frc consts  --      1.2313                 1.5848                 1.1299
 IR Inten    --      4.1141                 3.1382                 0.5760

                     43                     44                     45
                      A                      A                      A
 Frequencies --   1229.9555              1266.6187              1288.9638
 Red. masses --      1.1997                 1.3491                 1.5483
 Frc consts  --      1.0693                 1.2752                 1.5156
 IR Inten    --      8.2837                 3.8521                 1.4125

                     46                     47                     48
                      A                      A                      A
 Frequencies --   1317.2704              1328.8897              1348.8433
 Red. masses --      1.3632                 1.2523                 1.4268
 Frc consts  --      1.3936                 1.3029                 1.5295
 IR Inten    --      1.3151                 2.5804                 5.9269

                     49                     50                     51
                      A                      A                      A
 Frequencies --   1366.3927              1381.5635              1394.4857
 Red. masses --      1.3497                 1.3761                 1.4381
 Frc consts  --      1.4847                 1.5475                 1.6477
 IR Inten    --      8.4311                 2.8118                 3.3744

                     52                     53                     54
                      A                      A                      A
 Frequencies --   1406.4887              1420.3538              1428.1925
 Red. masses --      1.7043                 1.4045                 1.6613
 Frc consts  --      1.9864                 1.6694                 1.9965
 IR Inten    --      1.8967                24.3129                 8.9678

                     55                     56                     57
                      A                      A                      A
 Frequencies --   1444.1448              1454.1067              1485.2549
 Red. masses --      1.2877                 1.2879                 1.1953
 Frc consts  --      1.5823                 1.6045                 1.5535
 IR Inten    --      2.5227                 5.4513                 1.7808

                     58                     59                     60
                      A                      A                      A
 Frequencies --   1505.3424              1509.2863              1517.1935
 Red. masses --      1.1087                 1.0470                 1.1750
 Frc consts  --      1.4802                 1.4052                 1.5936
 IR Inten    --      7.8991                 7.7928                 9.3847

                     61                     62                     63
                      A                      A                      A
 Frequencies --   1523.4701              1527.9404              1547.8784
 Red. masses --      1.0608                 1.0691                 1.0564
 Frc consts  --      1.4505                 1.4705                 1.4912
 IR Inten    --      2.6673                 3.0955                11.0327

                     64                     65                     66
                      A                      A                      A
 Frequencies --   1550.9291              1560.4530              1759.7650
 Red. masses --      1.0858                 1.0875                 7.0181
 Frc consts  --      1.5388                 1.5603                12.8049
 IR Inten    --      2.6558                 4.2285                 1.8911

                     67                     68                     69
                      A                      A                      A
 Frequencies --   2900.2233              2946.6283              3003.3711
 Red. masses --      1.0819                 1.0619                 1.0828
 Frc consts  --      5.3615                 5.4324                 5.7547
 IR Inten    --     77.0984               113.4638                18.5788

                     70                     71                     72
                      A                      A                      A
 Frequencies --   3011.3604              3017.3083              3026.8829
 Red. masses --      1.0731                 1.0604                 1.0393
 Frc consts  --      5.7336                 5.6882                 5.6103
 IR Inten    --     44.8919                86.2198                26.6330

                     73                     74                     75
                      A                      A                      A
 Frequencies --   3036.6565              3042.2891              3067.0342
 Red. masses --      1.0564                 1.1049                 1.0869
 Frc consts  --      5.7397                 6.0253                 6.0239
 IR Inten    --     61.0525                37.1049                39.8072

                     76                     77                     78
                      A                      A                      A
 Frequencies --   3071.6001              3072.2569              3073.8944
 Red. masses --      1.1005                 1.0876                 1.1061
 Frc consts  --      6.1174                 6.0482                 6.1575
 IR Inten    --     55.4130                12.7478                42.1661

                     79                     80                     81
                      A                      A                      A
 Frequencies --   3087.1000              3119.7000              3124.9289
 Red. masses --      1.0721                 1.0997                 1.1032
 Frc consts  --      6.0198                 6.3061                 6.3470
 IR Inten    --     50.2720                23.8149                28.9344

                     82                     83                     84
                      A                      A                      A
 Frequencies --   3152.0351              3521.6973              3547.8992
 Red. masses --      1.0894                 1.0734                 1.0761
 Frc consts  --      6.3773                 7.8436                 7.9810
 IR Inten    --     39.4288                 1.3624                 0.2507

 - Thermochemistry -
 -------------------
 Temperature   298.150 Kelvin.  Pressure   1.00000 Atm.
 Atom     1 has atomic number  6 and mass  12.00000

 Molecular mass:   166.14700 amu.
 Principal axes and moments of inertia in atomic units:
                           1         2         3
     Eigenvalues --  1635.965171865.638342727.25458
           X            0.99960   0.02764  -0.00570
           Y           -0.02760   0.99960   0.00649
           Z            0.00588  -0.00633   0.99996
 This molecule is an asymmetric top.
 Rotational symmetry number  1.
 Warning -- assumption of classical behavior for rotation
           may cause significant error
 Rotational temperatures (Kelvin)      0.05294     0.04643     0.03176
 Rotational constants (GHZ):           1.10317     0.96736     0.66174
 Zero-point vibrational energy     720151.4 (Joules/Mol)
                                  172.12033 (Kcal/Mol)
 Warning -- explicit consideration of  17 degrees of freedom as
           vibrations may cause significant error
 Vibrational temperatures:     76.64   104.99   156.54   215.18   263.11
          (Kelvin)            290.43   332.64   356.00   405.55   427.33
                              479.66   528.68   610.50   717.93   731.31
                              794.43   825.85   971.30  1042.88  1136.71
                             1151.26  1177.24  1220.80  1273.52  1293.90
                             1335.42  1368.37  1428.97  1450.18  1471.87
                             1489.95  1520.61  1537.05  1570.15  1595.12
                             1631.50  1648.90  1668.74  1687.79  1711.58
                             1717.15  1764.70  1769.63  1822.38  1854.53
                             1895.26  1911.98  1940.68  1965.93  1987.76
                             2006.35  2023.62  2043.57  2054.85  2077.80
                             2092.14  2136.95  2165.85  2171.53  2182.90
                             2191.93  2198.37  2227.05  2231.44  2245.14
                             2531.91  4172.77  4239.54  4321.18  4332.68
                             4341.23  4355.01  4369.07  4377.18  4412.78
                             4419.35  4420.29  4422.65  4441.65  4488.55
                             4496.08  4535.08  5066.94  5104.64

 Zero-point correction=                           0.274291 (Hartree/Particle)
 Thermal correction to Energy=                    0.286207
 Thermal correction to Enthalpy=                  0.287151
 Thermal correction to Gibbs Free Energy=         0.236655
 Sum of electronic and zero-point Energies=           -501.148937
 Sum of electronic and thermal Energies=              -501.137021
 Sum of electronic and thermal Enthalpies=            -501.136076
 Sum of electronic and thermal Free Energies=         -501.186573

                     E (Thermal)             CV                S
                      KCal/Mol        Cal/Mol-Kelvin    Cal/Mol-Kelvin
 Total                  179.598             46.326            106.279
 Electronic               0.000              0.000              0.000
 Translational            0.889              2.981             41.231
 Rotational               0.889              2.981             30.499
 Vibrational            177.820             40.364             34.549
 Vibration     1          0.596              1.976              4.692
 Vibration     2          0.599              1.967              4.072
 Vibration     3          0.606              1.942              3.290
 Vibration     4          0.618              1.903              2.678
 Vibration     5          0.630              1.863              2.299
 Vibration     6          0.639              1.837              2.116
 Vibration     7          0.653              1.793              1.870
 Vibration     8          0.661              1.767              1.749
 Vibration     9          0.681              1.707              1.522
 Vibration    10          0.691              1.679              1.434
 Vibration    11          0.715              1.609              1.244
 Vibration    12          0.740              1.539              1.090
 Vibration    13          0.786              1.417              0.877
 Vibration    14          0.854              1.252              0.661
 Vibration    15          0.863              1.232              0.638
 Vibration    16          0.908              1.135              0.540
 Vibration    17          0.930              1.088              0.497

                           ! Non-Optimized Parameters !
 Normal termination of Gaussian 16 at Wed Dec  9 17:20:46 2020.

 ----------------------------------------------------------------------
 # B3LYP/6-311++G(d,p) empiricaldispersion=gd3bj scf=xqc pop=npa geom=c
 heck
 ----------------------------------------------------------------------

 ---------------------------------------
 CID_150864264_JID_2281_Energie_neutraal
 ---------------------------------------
 Structure from the checkpoint file:  "JID_2281.chk"
 Charge =  0 Multiplicity = 1

 SCF Done:  E(RB3LYP) =  -501.565554792     A.U. after   15 cycles
 Normal termination of Gaussian 16 at Wed Dec  9 17:25:09 2020.

 ----------------------------------------------------------------------
 # B3LYP/6-311++G(d,p) empiricaldispersion=gd3bj scf=xqc pop=npa geom=c
 heck
 ----------------------------------------------------------------------

 -------------------------------------
 CID_150864264_JID_2281_Energie_kation
 -------------------------------------
 Structure from the checkpoint file:  "JID_2281.chk"
 Charge =  1 Multiplicity = 2

 SCF Done:  E(UB3LYP) =  -501.280568210     A.U. after   26 cycles
 Normal termination of Gaussian 16 at Wed Dec  9 17:35:59 2020.
 Gaussian 16:  ES64L-G16RevA.03 25-Dec-2016

 ----------------------------------------------------------------------
 # B3LYP/6-311++G(d,p) empiricaldispersion=gd3bj scf=xqc pop=npa geom=c
 heck
 ----------------------------------------------------------------------

 ------------------------------------
 CID_150864264_JID_2281_Energie_anion
 ------------------------------------
 Structure from the checkpoint file:  "JID_2281.chk"
 Charge = -1 Multiplicity = 2

                         Standard orientation:
 ---------------------------------------------------------------------
 Center     Atomic      Atomic             Coordinates (Angstroms)
 Number     Number       Type             X           Y           Z
 ---------------------------------------------------------------------
      1          6           0        3.011890   -0.852314   -0.624108
      2          6           0        1.646115   -0.782347    0.005037
      3          6           0        0.918174   -1.874146    0.260998
      4          6           0       -0.461757   -1.848604    0.865351
      5          6           0       -1.165345   -0.494014    0.681209
      6          6           0       -0.199883    0.623841    1.115613
      7          6           0        1.135906    0.595923    0.342059
      8          6           0        0.870435    1.495871   -0.885762
      9          7           0       -0.089095    2.507850   -0.405664
     10          6           0       -0.706492    2.055692    0.858903
     11          7           0       -1.600517   -0.321377   -0.708438
     12          6           0       -2.755663   -1.129402   -1.077456
     13          1           0        3.767381   -0.366478    0.009064
     14          1           0        3.032120   -0.329515   -1.590019
     15          1           0        3.323879   -1.887378   -0.795839
     16          1           0        1.332006   -2.853408    0.022483
     17          1           0       -1.071164   -2.651205    0.433922
     18          1           0       -0.408706   -2.072669    1.942228
     19          1           0       -2.037876   -0.466424    1.365274
     20          1           0       -0.015901    0.470474    2.185241
     21          1           0        1.890658    1.101627    0.963504
     22          1           0        1.790606    1.976376   -1.240499
     23          1           0        0.463018    0.881763   -1.698411
     24          1           0       -0.781721    2.728891   -1.112146
     25          1           0       -0.394771    2.715732    1.680129
     26          1           0       -1.803500    2.106690    0.819306
     27          1           0       -1.832210    0.656752   -0.855537
     28          1           0       -3.595876   -1.064057   -0.359819
     29          1           0       -3.117025   -0.811544   -2.060573
     30          1           0       -2.473909   -2.183936   -1.160664
 ---------------------------------------------------------------------

 SCF Done:  E(UB3LYP) =  -501.550454055     A.U. after   31 cycles

 The electronic state is 2-A.
 Alpha  occ. eigenvalues --  -14.18602 -14.18569 -10.08966 -10.08328 -10.07919
 Alpha  occ. eigenvalues --  -10.07570 -10.06903 -10.06786 -10.06625 -10.06492
 Alpha  occ. eigenvalues --  -10.06120 -10.05543  -0.81516  -0.78989  -0.72147
 Alpha  occ. eigenvalues --   -0.66260  -0.64236  -0.61020  -0.57845  -0.55067
 Alpha  occ. eigenvalues --   -0.50253  -0.48606  -0.46153  -0.41812  -0.39311
 Alpha  occ. eigenvalues --   -0.37606  -0.37337  -0.35277  -0.32854  -0.32069
 Alpha  occ. eigenvalues --   -0.31789  -0.31345  -0.30076  -0.29066  -0.28082
 Alpha  occ. eigenvalues --   -0.27608  -0.26821  -0.26108  -0.25330  -0.24682
 Alpha  occ. eigenvalues --   -0.22795  -0.20545  -0.20163  -0.13618  -0.11793
 Alpha  occ. eigenvalues --   -0.11035   0.04604
 Alpha virt. eigenvalues --    0.06789   0.07434   0.07522   0.08961   0.09302
 Alpha virt. eigenvalues --    0.09755   0.09924   0.10211   0.11834   0.11979
 Alpha virt. eigenvalues --    0.12343   0.12523   0.13019   0.13209   0.13874

  Beta  occ. eigenvalues --  -14.18586 -14.18542 -10.08954 -10.08302 -10.07911
  Beta  occ. eigenvalues --  -10.07531 -10.06892 -10.06786 -10.06618 -10.06473
  Beta  occ. eigenvalues --  -10.06104 -10.05533  -0.81484  -0.78954  -0.72126
  Beta  occ. eigenvalues --   -0.66231  -0.64203  -0.60984  -0.57793  -0.54995
  Beta  occ. eigenvalues --   -0.50196  -0.48571  -0.46099  -0.41763  -0.39268
  Beta  occ. eigenvalues --   -0.37557  -0.37288  -0.35240  -0.32816  -0.32037
  Beta  occ. eigenvalues --   -0.31756  -0.31301  -0.30050  -0.29035  -0.28045
  Beta  occ. eigenvalues --   -0.27570  -0.26795  -0.26070  -0.25297  -0.24648
  Beta  occ. eigenvalues --   -0.22760  -0.20516  -0.20137  -0.13598  -0.11742
  Beta  occ. eigenvalues --   -0.11011
  Beta virt. eigenvalues --    0.06732   0.07644   0.08039   0.08263   0.09501
  Beta virt. eigenvalues --    0.09829   0.10026   0.10311   0.10714   0.12141
  Beta virt. eigenvalues --    0.12334   0.12625   0.12880   0.13308   0.13633

 Mulliken charges and spin densities:
               1          2
     1  C    0.781976  -1.287560
     2  C   -0.292817   0.379343
     3  C   -0.369226   0.013444
     4  C    1.238409  -1.990519
     5  C   -0.010540  -0.128840
     6  C   -0.640840   0.739754
     7  C   -0.568825   1.061490
     8  C    0.012941  -0.704311
     9  N   -0.327071   0.134434
    10  C    0.730748  -1.383566
    11  N   -0.279477   0.162877
    12  C    1.080189  -1.407267
    13  H   -0.039871   0.181169
    14  H    0.031472   0.127742
    15  H   -0.138145   0.279987
    16  H   -0.408842   0.566625
    17  H    0.083242   0.050188
    18  H   -0.175230   0.314615
    19  H   -0.075186   0.235131
    20  H   -0.252012   0.495841
    21  H    0.023989   0.198965
    22  H    0.053076   0.107381
    23  H    0.069149   0.106980
    24  H   -0.037815   0.273954
    25  H   -0.056235   0.210136
    26  H   -0.624808   0.797885
    27  H    0.120122   0.158966
    28  H   -0.325001   0.448728
    29  H   -0.461562   0.589961
    30  H   -0.141814   0.266468
 Sum of Mulliken charges =  -1.00000   1.00000

 Dipole moment (field-independent basis, Debye):
    X=              3.6909    Y=             -0.5367    Z=              0.1208  Tot=              3.7317
 Quadrupole moment (field-independent basis, Debye-Ang):
   XX=           -131.7869   YY=           -123.1151   ZZ=           -112.1514
   XY=              4.3084   XZ=             -3.3469   YZ=             -0.4016

 Summary of Natural Population Analysis:

                                       Natural Population
                Natural  -----------------------------------------------
    Atom  No    Charge         Core      Valence    Rydberg      Total
 -----------------------------------------------------------------------
      C    1   -0.29078      0.99963     2.28628    0.00487     3.29078
      C    2   -0.00629      0.99947     1.99544    0.01139     3.00629
      C    3   -0.08927      0.99945     2.08013    0.00969     3.08927
      C    4   -0.20710      0.99960     2.19751    0.00999     3.20710
      C    5    0.00021      0.99957     1.98630    0.01392     2.99979
      C    6   -0.11176      0.99957     2.10042    0.01177     3.11176
      C    7   -0.12204      0.99954     2.11101    0.01150     3.12204
      C    8   -0.08480      0.99960     2.07566    0.00954     3.08480
      N    9   -0.34918      0.99976     2.83771    0.01171     3.84918
      C   10   -0.08884      0.99961     2.07724    0.01198     3.08884
      N   11   -0.34504      0.99973     2.83310    0.01221     3.84504
      C   12   -0.17628      0.99966     2.16792    0.00870     3.17628
      H   13    0.09864      0.00000     0.40010    0.00126     0.40136
      H   14    0.10064      0.00000     0.39813    0.00123     0.39936
      H   15    0.10101      0.00000     0.39801    0.00098     0.39899
      H   16    0.09284      0.00000     0.40614    0.00102     0.40716
      H   17    0.10330      0.00000     0.39543    0.00127     0.39670
      H   18    0.10240      0.00000     0.39621    0.00139     0.39760
      H   19    0.08320      0.00000     0.41429    0.00251     0.41680
      H   20    0.10528      0.00000     0.39334    0.00138     0.39472
      H   21    0.10174      0.00000     0.39652    0.00174     0.39826
      H   22    0.08664      0.00000     0.41180    0.00156     0.41336
      H   23    0.09484      0.00000     0.40313    0.00203     0.40516
      H   24    0.17768      0.00000     0.31924    0.00308     0.32232
      H   25    0.08884      0.00000     0.40960    0.00155     0.41116
      H   26    0.09464      0.00000     0.40318    0.00218     0.40536
      H   27    0.17493      0.00000     0.32032    0.00475     0.32507
      H   28    0.07935      0.00000     0.41883    0.00182     0.42065
      H   29    0.09635      0.00000     0.40250    0.00115     0.40365
      H   30    0.08886      0.00000     0.40978    0.00136     0.41114
 =======================================================================
   * Total *    0.00000     11.99517    33.84529    0.15954    46.00000

 Normal termination of Gaussian 16 at Wed Dec  9 17:49:23 2020.
