 Gaussian 16, Revision A.03,

 -----------------------------------------------------------
 # opt freq B3LYP/6-31G(d) empiricaldispersion=gd3bj scf=xqc
 -----------------------------------------------------------

 ------------------------------
 CID_80368468_JID_8713_neutraal
 ------------------------------
 Symbolic Z-matrix:
 Charge =  0 Multiplicity = 1

 SCF Done:  E(RB3LYP) =  -851.240513951     A.U. after   15 cycles
 SCF Done:  E(RB3LYP) =  -851.246011942     A.U. after   13 cycles
 SCF Done:  E(RB3LYP) =  -851.247059291     A.U. after   12 cycles
 SCF Done:  E(RB3LYP) =  -851.247442604     A.U. after   13 cycles
 SCF Done:  E(RB3LYP) =  -851.248358399     A.U. after   12 cycles
 SCF Done:  E(RB3LYP) =  -851.248771073     A.U. after   12 cycles
 SCF Done:  E(RB3LYP) =  -851.248862385     A.U. after   12 cycles
 SCF Done:  E(RB3LYP) =  -851.248990388     A.U. after   11 cycles
 SCF Done:  E(RB3LYP) =  -851.249014130     A.U. after   11 cycles
 SCF Done:  E(RB3LYP) =  -851.249024540     A.U. after   10 cycles
 SCF Done:  E(RB3LYP) =  -851.249037364     A.U. after    8 cycles
 SCF Done:  E(RB3LYP) =  -851.249037776     A.U. after    8 cycles
 SCF Done:  E(RB3LYP) =  -851.249037893     A.U. after    9 cycles
 SCF Done:  E(RB3LYP) =  -851.249037928     A.U. after    7 cycles
 SCF Done:  E(RB3LYP) =  -851.249037949     A.U. after    7 cycles
 Optimization completed.
    -- Stationary point found.
 Normal termination of Gaussian 16 at Fri Dec 11 22:25:51 2020.

 --------------------------------------------------------------------
 #N Geom=AllCheck Guess=TCheck SCRF=Check GenChk RB3LYP/6-31G(d) Freq
 --------------------------------------------------------------------

 Structure from the checkpoint file:  "JID_8713.chk"
 ------------------------------
 CID_80368468_JID_8713_neutraal
 ------------------------------
 Charge =  0 Multiplicity = 1

 SCF Done:  E(RB3LYP) =  -851.249037949     A.U. after    1 cycles

  Exact polarizability: 186.818 -22.662 139.897  10.923  13.753 122.561
 Approx polarizability: 280.305 -47.414 218.888  27.500  35.089 202.505

                      1                      2                      3
                      A                      A                      A
 Frequencies --     17.1052                31.7454                36.2373
 Red. masses --      4.7586                 1.2543                 2.8934
 Frc consts  --      0.0008                 0.0007                 0.0022
 IR Inten    --      0.5764                 0.5013                 0.6137

                      4                      5                      6
                      A                      A                      A
 Frequencies --     38.0232                64.2906                78.3941
 Red. masses --      4.2568                 3.2579                 6.0361
 Frc consts  --      0.0036                 0.0079                 0.0219
 IR Inten    --      0.2166                 2.1500                 3.3089

                      7                      8                      9
                      A                      A                      A
 Frequencies --    115.8171               147.4038               167.7109
 Red. masses --      5.2431                 3.5907                 3.9140
 Frc consts  --      0.0414                 0.0460                 0.0649
 IR Inten    --      1.3597                 3.9719                 5.9009

                     10                     11                     12
                      A                      A                      A
 Frequencies --    178.5391               196.3942               262.2845
 Red. masses --      1.1265                 4.8868                 4.9306
 Frc consts  --      0.0212                 0.1111                 0.1998
 IR Inten    --      1.3328                 5.0312                 3.3656

                     13                     14                     15
                      A                      A                      A
 Frequencies --    301.0386               311.1698               331.1943
 Red. masses --      4.9222                 3.5729                 5.1502
 Frc consts  --      0.2628                 0.2038                 0.3328
 IR Inten    --      0.6391                10.2063                 4.3731

                     16                     17                     18
                      A                      A                      A
 Frequencies --    350.4868               356.3921               364.9071
 Red. masses --      5.0597                 3.3776                 1.3715
 Frc consts  --      0.3662                 0.2528                 0.1076
 IR Inten    --      4.6571                 3.7019                21.8258

                     19                     20                     21
                      A                      A                      A
 Frequencies --    390.6297               452.6989               477.7367
 Red. masses --      3.0743                 5.3272                 3.5387
 Frc consts  --      0.2764                 0.6432                 0.4758
 IR Inten    --      5.9930                 1.9269                 9.9255

                     22                     23                     24
                      A                      A                      A
 Frequencies --    504.6243               534.9213               542.6294
 Red. masses --      4.9190                 1.3742                 1.5067
 Frc consts  --      0.7380                 0.2317                 0.2614
 IR Inten    --      6.6413                97.6093                23.7965

                     25                     26                     27
                      A                      A                      A
 Frequencies --    574.4097               591.7521               646.3455
 Red. masses --      4.8012                 4.4127                 6.0259
 Frc consts  --      0.9333                 0.9104                 1.4832
 IR Inten    --      1.2195                 5.7883                45.3564

                     28                     29                     30
                      A                      A                      A
 Frequencies --    669.6906               694.5920               706.8404
 Red. masses --      4.3979                 2.5294                 2.6540
 Frc consts  --      1.1621                 0.7190                 0.7813
 IR Inten    --     47.4724                27.3275                66.0090

                     31                     32                     33
                      A                      A                      A
 Frequencies --    707.2446               728.4507               752.1899
 Red. masses --      2.3147                 6.0971                 2.9360
 Frc consts  --      0.6822                 1.9062                 0.9787
 IR Inten    --    152.6980                28.5144                64.1823

                     34                     35                     36
                      A                      A                      A
 Frequencies --    788.8763               811.9465               828.2993
 Red. masses --      5.3257                 5.8831                 1.7175
 Frc consts  --      1.9527                 2.2851                 0.6943
 IR Inten    --      8.8884                15.4662                37.4128

                     37                     38                     39
                      A                      A                      A
 Frequencies --    846.5264               898.8581               928.9397
 Red. masses --      3.2571                 1.6094                 1.2947
 Frc consts  --      1.3752                 0.7661                 0.6582
 IR Inten    --     13.1219                15.0254                 0.7668

                     40                     41                     42
                      A                      A                      A
 Frequencies --    974.1056              1000.9899              1019.2031
 Red. masses --      3.8059                 1.5252                 7.9667
 Frc consts  --      2.1277                 0.9004                 4.8759
 IR Inten    --      1.1259                 0.2851                 3.3105

                     43                     44                     45
                      A                      A                      A
 Frequencies --   1051.5655              1077.0210              1081.6972
 Red. masses --      4.0174                 1.7266                 3.5617
 Frc consts  --      2.6174                 1.1800                 2.4554
 IR Inten    --     71.6097                 5.6389                12.8881

                     46                     47                     48
                      A                      A                      A
 Frequencies --   1102.8985              1160.4852              1178.7795
 Red. masses --      1.7019                 3.3956                 1.7038
 Frc consts  --      1.2197                 2.6943                 1.3949
 IR Inten    --     15.9964                41.7313                83.8822

                     49                     50                     51
                      A                      A                      A
 Frequencies --   1189.1496              1193.1179              1225.5108
 Red. masses --      1.2712                 1.3780                 1.5055
 Frc consts  --      1.0591                 1.1558                 1.3322
 IR Inten    --      1.1035                28.2476                10.6330

                     52                     53                     54
                      A                      A                      A
 Frequencies --   1265.4152              1279.2921              1310.7118
 Red. masses --      2.9332                 3.2966                 3.3429
 Frc consts  --      2.7673                 3.1787                 3.3837
 IR Inten    --     85.5483               112.4765                96.2706

                     55                     56                     57
                      A                      A                      A
 Frequencies --   1325.3275              1337.7244              1382.7926
 Red. masses --      1.8099                 3.2821                 3.8392
 Frc consts  --      1.8731                 3.4605                 4.3252
 IR Inten    --     59.1556                34.9846                10.8838

                     58                     59                     60
                      A                      A                      A
 Frequencies --   1401.3270              1434.9112              1436.4601
 Red. masses --      3.9304                 2.1399                 1.8184
 Frc consts  --      4.5474                 2.5960                 2.2107
 IR Inten    --     59.6921                26.4706                42.7387

                     61                     62                     63
                      A                      A                      A
 Frequencies --   1447.0238              1489.3997              1511.8697
 Red. masses --      1.8821                 1.4299                 1.1937
 Frc consts  --      2.3219                 1.8689                 1.6076
 IR Inten    --     34.6013                 7.6058                 6.5902

                     64                     65                     66
                      A                      A                      A
 Frequencies --   1512.4140              1516.9165              1522.7550
 Red. masses --      1.7184                 1.0680                 1.7822
 Frc consts  --      2.3159                 1.4479                 2.4349
 IR Inten    --      1.9531                 5.6165                46.2359

                     67                     68                     69
                      A                      A                      A
 Frequencies --   1527.0458              1535.9903              1563.4322
 Red. masses --      2.4699                 1.0548                 3.1793
 Frc consts  --      3.3934                 1.4661                 4.5787
 IR Inten    --     45.7973                 4.2198               207.8241

                     70                     71                     72
                      A                      A                      A
 Frequencies --   1603.2861              1642.9945              1658.3970
 Red. masses --      4.7325                 6.3561                 1.7205
 Frc consts  --      7.1674                10.1092                 2.7880
 IR Inten    --     43.1626                18.8635                42.5527

                     73                     74                     75
                      A                      A                      A
 Frequencies --   1690.3819              1786.8686              3034.1234
 Red. masses --      2.2888                 9.2182                 1.0314
 Frc consts  --      3.8533                17.3414                 5.5944
 IR Inten    --     51.5421               451.2542                47.5078

                     76                     77                     78
                      A                      A                      A
 Frequencies --   3057.1186              3098.4536              3112.0021
 Red. masses --      1.0396                 1.1072                 1.1011
 Frc consts  --      5.7248                 6.2629                 6.2830
 IR Inten    --     18.1057                27.7325                11.0926

                     79                     80                     81
                      A                      A                      A
 Frequencies --   3148.8349              3167.7794              3180.3976
 Red. masses --      1.1031                 1.0991                 1.0888
 Frc consts  --      6.4440                 6.4985                 6.4886
 IR Inten    --     40.5288                 3.0128                17.6658

                     82                     83                     84
                      A                      A                      A
 Frequencies --   3212.0093              3213.2331              3535.0444
 Red. masses --      1.0917                 1.0932                 1.0476
 Frc consts  --      6.6359                 6.6502                 7.7130
 IR Inten    --      6.1132                 4.6645                17.0185

                     85                     86                     87
                      A                      A                      A
 Frequencies --   3575.9621              3638.3124              3648.0697
 Red. masses --      1.0752                 1.0976                 1.0816
 Frc consts  --      8.1006                 8.5606                 8.4810
 IR Inten    --     31.5882                14.0540                70.0881

 - Thermochemistry -
 -------------------
 Temperature   298.150 Kelvin.  Pressure   1.00000 Atm.
 Atom     1 has atomic number  6 and mass  12.00000

 Molecular mass:   247.10692 amu.
 Principal axes and moments of inertia in atomic units:
                           1         2         3
     Eigenvalues --  2749.185616768.623987825.52889
           X            0.99995   0.00795   0.00519
           Y           -0.00786   0.99983  -0.01666
           Z           -0.00532   0.01662   0.99985
 This molecule is an asymmetric top.
 Rotational symmetry number  1.
 Warning -- assumption of classical behavior for rotation
           may cause significant error
 Rotational temperatures (Kelvin)      0.03151     0.01280     0.01107
 Rotational constants (GHZ):           0.65646     0.26663     0.23062
 Zero-point vibrational energy     642908.7 (Joules/Mol)
                                  153.65886 (Kcal/Mol)
 Warning -- explicit consideration of  26 degrees of freedom as
           vibrations may cause significant error
 Vibrational temperatures:     24.61    45.67    52.14    54.71    92.50
          (Kelvin)            112.79   166.63   212.08   241.30   256.88
                              282.57   377.37   433.13   447.70   476.51
                              504.27   512.77   525.02   562.03   651.33
                              687.36   726.04   769.63   780.72   826.45
                              851.40   929.95   963.54   999.36  1016.99
                             1017.57  1048.08  1082.23  1135.02  1168.21
                             1191.74  1217.96  1293.26  1336.54  1401.52
                             1440.20  1466.41  1512.97  1549.59  1556.32
                             1586.82  1669.68  1696.00  1710.92  1716.63
                             1763.24  1820.65  1840.62  1885.82  1906.85
                             1924.69  1989.53  2016.20  2064.52  2066.75
                             2081.94  2142.91  2175.24  2176.03  2182.50
                             2190.90  2197.08  2209.95  2249.43  2306.77
                             2363.90  2386.06  2432.08  2570.91  4365.43
                             4398.51  4457.98  4477.48  4530.47  4557.73
                             4575.88  4621.37  4623.13  5086.14  5145.01
                             5234.72  5248.76

 Zero-point correction=                           0.244871 (Hartree/Particle)
 Thermal correction to Energy=                    0.262062
 Thermal correction to Enthalpy=                  0.263007
 Thermal correction to Gibbs Free Energy=         0.196991
 Sum of electronic and zero-point Energies=           -851.004167
 Sum of electronic and thermal Energies=              -850.986976
 Sum of electronic and thermal Enthalpies=            -850.986031
 Sum of electronic and thermal Free Energies=         -851.052047

                     E (Thermal)             CV                S
                      KCal/Mol        Cal/Mol-Kelvin    Cal/Mol-Kelvin
 Total                  164.447             63.114            138.942
 Electronic               0.000              0.000              0.000
 Translational            0.889              2.981             42.415
 Rotational               0.889              2.981             33.343
 Vibrational            162.669             57.152             63.185
 Vibration     1          0.593              1.986              6.945
 Vibration     2          0.594              1.983              5.717
 Vibration     3          0.594              1.982              5.455
 Vibration     4          0.594              1.982              5.360
 Vibration     5          0.597              1.971              4.321
 Vibration     6          0.600              1.964              3.931
 Vibration     7          0.608              1.936              3.169
 Vibration     8          0.617              1.905              2.705
 Vibration     9          0.624              1.882              2.461
 Vibration    10          0.629              1.869              2.344
 Vibration    11          0.636              1.845              2.167
 Vibration    12          0.670              1.742              1.647
 Vibration    13          0.693              1.672              1.411
 Vibration    14          0.700              1.652              1.356
 Vibration    15          0.714              1.613              1.254
 Vibration    16          0.727              1.574              1.164
 Vibration    17          0.732              1.562              1.138
 Vibration    18          0.738              1.544              1.101
 Vibration    19          0.758              1.490              0.998
 Vibration    20          0.811              1.355              0.788
 Vibration    21          0.834              1.299              0.716
 Vibration    22          0.860              1.240              0.647
 Vibration    23          0.890              1.173              0.576
 Vibration    24          0.898              1.156              0.560
 Vibration    25          0.931              1.087              0.496
 Vibration    26          0.949              1.049              0.464

 Optimization completed.
    -- Stationary point found.
 Normal termination of Gaussian 16 at Fri Dec 11 22:38:31 2020.

 ----------------------------------------------------------------------
 # B3LYP/6-311++G(d,p) empiricaldispersion=gd3bj scf=xqc pop=npa geom=c
 heck
 ----------------------------------------------------------------------

 --------------------------------------
 CID_80368468_JID_8713_Energie_neutraal
 --------------------------------------
 Structure from the checkpoint file:  "JID_8713.chk"
 Charge =  0 Multiplicity = 1

 SCF Done:  E(RB3LYP) =  -851.495312626     A.U. after   16 cycles
 Normal termination of Gaussian 16 at Fri Dec 11 22:44:55 2020.

 ----------------------------------------------------------------------
 # B3LYP/6-311++G(d,p) empiricaldispersion=gd3bj scf=xqc pop=npa geom=c
 heck
 ----------------------------------------------------------------------

 ------------------------------------
 CID_80368468_JID_8713_Energie_kation
 ------------------------------------
 Structure from the checkpoint file:  "JID_8713.chk"
 Charge =  1 Multiplicity = 2

 SCF Done:  E(UB3LYP) =  -851.222254549     A.U. after   24 cycles
 Normal termination of Gaussian 16 at Fri Dec 11 22:58:02 2020.
 Gaussian 16:  ES64L-G16RevA.03 25-Dec-2016

 ----------------------------------------------------------------------
 # B3LYP/6-311++G(d,p) empiricaldispersion=gd3bj scf=xqc pop=npa geom=c
 heck
 ----------------------------------------------------------------------

 -----------------------------------
 CID_80368468_JID_8713_Energie_anion
 -----------------------------------
 Structure from the checkpoint file:  "JID_8713.chk"
 Charge = -1 Multiplicity = 2

                         Standard orientation:
 ---------------------------------------------------------------------
 Center     Atomic      Atomic             Coordinates (Angstroms)
 Number     Number       Type             X           Y           Z
 ---------------------------------------------------------------------
      1          6           0       -2.090202   -3.187330    0.712056
      2          6           0       -2.383365   -1.775287    0.332186
      3          7           0       -1.710965   -0.699984    0.705862
      4          6           0       -2.393093    0.328154    0.110850
      5          7           0       -3.446280   -0.042211   -0.607861
      6          7           0       -3.417807   -1.388618   -0.460826
      7          6           0       -2.050296    1.774571    0.285193
      8          8           0       -2.913789    2.627814    0.429840
      9          7           0       -0.710489    2.077136    0.327147
     10          6           0        0.377683    1.294171   -0.146231
     11          6           0        1.520762    1.151604    0.645153
     12          6           0        2.598090    0.407078    0.186494
     13          6           0        2.562124   -0.234513   -1.066867
     14          6           0        1.410177   -0.084067   -1.849089
     15          6           0        0.336901    0.681332   -1.401495
     16          7           0        3.649112   -1.020525   -1.458313
     17          8           0        3.747399    0.286202    0.949990
     18          6           0        3.716808   -0.839335    1.833519
     19          1           0       -2.821292   -3.568765    1.434824
     20          1           0       -2.100376   -3.849887   -0.160440
     21          1           0       -1.100636   -3.227181    1.170489
     22          1           0       -4.122969   -1.951562   -0.915108
     23          1           0       -0.537240    3.050904    0.549812
     24          1           0        1.575352    1.613582    1.625754
     25          1           0        1.363888   -0.560274   -2.825398
     26          1           0       -0.539156    0.807604   -2.029241
     27          1           0        4.512556   -0.726932   -1.014442
     28          1           0        3.755427   -1.113477   -2.461301
     29          1           0        2.893583   -0.747521    2.552835
     30          1           0        3.603048   -1.776204    1.274201
     31          1           0        4.670410   -0.841267    2.366701
 ---------------------------------------------------------------------

 SCF Done:  E(UB3LYP) =  -851.490671831     A.U. after   33 cycles
 SCF Done:  E(UB3LYP) =  -851.490671831     a.u. after    1 cycles

 The electronic state is 2-A.
 Alpha  occ. eigenvalues --  -19.06084 -19.00233 -14.30038 -14.25717 -14.25062
 Alpha  occ. eigenvalues --  -14.23146 -14.21335 -10.19083 -10.15706 -10.13918
 Alpha  occ. eigenvalues --  -10.13745 -10.13390 -10.12805 -10.12574 -10.09143
 Alpha  occ. eigenvalues --  -10.08881 -10.08797 -10.08719  -0.98856  -0.97553
 Alpha  occ. eigenvalues --   -0.95265  -0.85060  -0.83239  -0.80676  -0.75273
 Alpha  occ. eigenvalues --   -0.74928  -0.67001  -0.64873  -0.64129  -0.60649
 Alpha  occ. eigenvalues --   -0.58907  -0.53923  -0.53011  -0.52612  -0.47658
 Alpha  occ. eigenvalues --   -0.45900  -0.45214  -0.43596  -0.42523  -0.40137
 Alpha  occ. eigenvalues --   -0.38877  -0.38270  -0.37700  -0.37055  -0.35732
 Alpha  occ. eigenvalues --   -0.35049  -0.34847  -0.33163  -0.32605  -0.31843
 Alpha  occ. eigenvalues --   -0.31307  -0.30857  -0.29568  -0.28736  -0.26487
 Alpha  occ. eigenvalues --   -0.24797  -0.23656  -0.20870  -0.20325  -0.19288
 Alpha  occ. eigenvalues --   -0.18651  -0.18021  -0.16638  -0.16474  -0.11825
 Alpha  occ. eigenvalues --    0.03544
 Alpha virt. eigenvalues --    0.04984   0.05646   0.06289   0.07319   0.07642
 Alpha virt. eigenvalues --    0.07898   0.08084   0.09020   0.09264   0.09697
 Alpha virt. eigenvalues --    0.10179   0.10959   0.11051   0.12253   0.12541

  Beta  occ. eigenvalues --  -19.06081 -19.00215 -14.29972 -14.25717 -14.25040
  Beta  occ. eigenvalues --  -14.23105 -14.21326 -10.19067 -10.15709 -10.13918
  Beta  occ. eigenvalues --  -10.13726 -10.13388 -10.12795 -10.12572 -10.09142
  Beta  occ. eigenvalues --  -10.08874 -10.08739 -10.08709  -0.98810  -0.97548
  Beta  occ. eigenvalues --   -0.95232  -0.85046  -0.83181  -0.80629  -0.75227
  Beta  occ. eigenvalues --   -0.74890  -0.66987  -0.64841  -0.64045  -0.60616
  Beta  occ. eigenvalues --   -0.58843  -0.53893  -0.52935  -0.52587  -0.47629
  Beta  occ. eigenvalues --   -0.45878  -0.45152  -0.43559  -0.42480  -0.40119
  Beta  occ. eigenvalues --   -0.38823  -0.38248  -0.37655  -0.37027  -0.35695
  Beta  occ. eigenvalues --   -0.35025  -0.34812  -0.33131  -0.32544  -0.31802
  Beta  occ. eigenvalues --   -0.31248  -0.30801  -0.29539  -0.28708  -0.26466
  Beta  occ. eigenvalues --   -0.24754  -0.23614  -0.20817  -0.20310  -0.19270
  Beta  occ. eigenvalues --   -0.18612  -0.17983  -0.16619  -0.16423  -0.11789
  Beta virt. eigenvalues --    0.05527   0.05796   0.06792   0.06840   0.07406
  Beta virt. eigenvalues --    0.07632   0.08572   0.08796   0.09246   0.09475
  Beta virt. eigenvalues --    0.10064   0.10242   0.11264   0.11411   0.12476

 Mulliken charges and spin densities:
               1          2
     1  C    1.787108  -2.229098
     2  C   -0.325703   0.777019
     3  N    0.000619   0.015845
     4  C   -0.536391   0.079078
     5  N   -0.013174   0.152845
     6  N   -0.031900  -0.168204
     7  C   -0.095816  -0.135894
     8  O   -0.322546   0.007725
     9  N   -0.163337   0.001152
    10  C   -0.006272  -0.313852
    11  C    0.047470   0.361297
    12  C   -0.632858   0.181913
    13  C    0.750610  -1.001517
    14  C   -0.058391  -0.073815
    15  C    0.124747  -0.067466
    16  N   -0.366442   0.051416
    17  O   -0.201577   0.008969
    18  C    0.122542  -0.436608
    19  H   -0.370343   0.550182
    20  H   -0.461533   0.634244
    21  H    0.045139   0.124067
    22  H   -0.363058   0.718402
    23  H    0.318286  -0.005999
    24  H    0.143477   0.039935
    25  H   -0.386749   0.562984
    26  H    0.174052   0.022858
    27  H    0.011216   0.253653
    28  H   -0.166115   0.416311
    29  H    0.090404   0.043039
    30  H   -0.072568   0.240111
    31  H   -0.040899   0.189406
 Sum of Mulliken charges =  -1.00000   1.00000

 Dipole moment (field-independent basis, Debye):
    X=              5.0188    Y=              4.8860    Z=              2.7681  Tot=              7.5315
 Quadrupole moment (field-independent basis, Debye-Ang):
   XX=           -194.6446   YY=           -157.7530   ZZ=           -134.5216
   XY=             -1.1244   XZ=              5.2669   YZ=             -6.1077

 Summary of Natural Population Analysis:

                                       Natural Population
                Natural  -----------------------------------------------
    Atom  No    Charge         Core      Valence    Rydberg      Total
 -----------------------------------------------------------------------
      C    1   -0.30858      0.99963     2.30314    0.00581     3.30858
      C    2    0.19826      0.99963     1.78624    0.01587     2.80174
      N    3   -0.25855      0.99968     2.74979    0.00908     3.75855
      C    4    0.11928      0.99959     1.86151    0.01962     2.88072
      N    5   -0.13632      0.99970     2.62463    0.01199     3.63632
      N    6   -0.17258      0.99965     2.65976    0.01317     3.67258
      C    7    0.32719      0.99962     1.65044    0.02274     2.67281
      O    8   -0.30478      0.99988     3.29966    0.00524     4.30478
      N    9   -0.31022      0.99965     2.80139    0.00918     3.81022
      C   10    0.06046      0.99947     1.92880    0.01127     2.93954
      C   11   -0.11234      0.99946     2.10496    0.00792     3.11234
      C   12    0.13323      0.99933     1.85303    0.01442     2.86677
      C   13    0.06803      0.99944     1.92086    0.01167     2.93197
      C   14   -0.11448      0.99953     2.10516    0.00979     3.11448
      C   15   -0.09716      0.99952     2.08909    0.00856     3.09716
      N   16   -0.39543      0.99972     2.88537    0.01033     3.89543
      O   17   -0.29660      0.99987     3.28714    0.00960     4.29660
      C   18   -0.09749      0.99959     2.09002    0.00788     3.09749
      H   19    0.11192      0.00000     0.38635    0.00174     0.38808
      H   20    0.11387      0.00000     0.38374    0.00239     0.38613
      H   21    0.11635      0.00000     0.38254    0.00111     0.38365
      H   22    0.20966      0.00000     0.28054    0.00980     0.29034
      H   23    0.19471      0.00000     0.30330    0.00198     0.30529
      H   24    0.10597      0.00000     0.39295    0.00108     0.39403
      H   25    0.10257      0.00000     0.39595    0.00149     0.39743
      H   26    0.10665      0.00000     0.39185    0.00151     0.39335
      H   27    0.18953      0.00000     0.30819    0.00228     0.31047
      H   28    0.18742      0.00000     0.30939    0.00318     0.31258
      H   29    0.08331      0.00000     0.41524    0.00145     0.41669
      H   30    0.08871      0.00000     0.40966    0.00163     0.41129
      H   31    0.08744      0.00000     0.41133    0.00123     0.41256
 =======================================================================
   * Total *    0.00000     17.99297    46.77203    0.23500    65.00000

 Normal termination of Gaussian 16 at Fri Dec 11 23:16:41 2020.
