 Gaussian 16, Revision A.03,

 -----------------------------------------------------------
 # opt freq B3LYP/6-31G(d) empiricaldispersion=gd3bj scf=xqc
 -----------------------------------------------------------

 -----------------------------
 CID_74053094_JID_616_neutraal
 -----------------------------
 Symbolic Z-matrix:
 Charge =  0 Multiplicity = 1

 SCF Done:  E(RB3LYP) =  -463.710164401     A.U. after   14 cycles
 SCF Done:  E(RB3LYP) =  -463.711906498     A.U. after   12 cycles
 SCF Done:  E(RB3LYP) =  -463.712068301     A.U. after   11 cycles
 SCF Done:  E(RB3LYP) =  -463.712131681     A.U. after   11 cycles
 SCF Done:  E(RB3LYP) =  -463.712157112     A.U. after   10 cycles
 SCF Done:  E(RB3LYP) =  -463.712165630     A.U. after   10 cycles
 SCF Done:  E(RB3LYP) =  -463.712168746     A.U. after    9 cycles
 SCF Done:  E(RB3LYP) =  -463.712170421     A.U. after    9 cycles
 SCF Done:  E(RB3LYP) =  -463.712171250     A.U. after    9 cycles
 SCF Done:  E(RB3LYP) =  -463.712171490     A.U. after    8 cycles
 SCF Done:  E(RB3LYP) =  -463.712171679     A.U. after    8 cycles
 SCF Done:  E(RB3LYP) =  -463.712171703     A.U. after    7 cycles
 Optimization completed.
    -- Stationary point found.

 1\1\GINC-NODE318\FOpt\RB3LYP\6-31G(d)\C8H14O2\VSC10255\08-Dec-2020\0\\
 # opt freq B3LYP/6-31G(d) empiricaldispersion=gd3bj scf=xqc\\CID_74053
 094_JID_616_neutraal\\0,1\C,1.1460650146,-0.0111976303,-0.0967329208\C
 ,0.5630393734,-0.0696959164,-1.5030941962\C,0.8713721587,-1.3760959449
 ,-2.2501043532\C,0.3758119183,-2.6854827385,-1.5975315404\C,-1.1193067
 657,-2.8020197498,-1.4934626364\C,-1.8664321896,-3.6218916548,-2.25240
 36249\C,-3.3115550845,-3.7311543942,-2.1820997514\C,-4.0269710242,-4.5
 622152331,-2.9589192257\O,-5.3785556947,-4.7219756374,-2.9520905421\O,

 Normal termination of Gaussian 16 at Tue Dec  8 12:16:18 2020.

 --------------------------------------------------------------------
 #N Geom=AllCheck Guess=TCheck SCRF=Check GenChk RB3LYP/6-31G(d) Freq
 --------------------------------------------------------------------

 Structure from the checkpoint file:  "JID_616.chk"
 -----------------------------
 CID_74053094_JID_616_neutraal
 -----------------------------
 Charge =  0 Multiplicity = 1

 SCF Done:  E(RB3LYP) =  -463.712171703     A.U. after    1 cycles

  Exact polarizability: 158.393  -7.067  80.361 -10.138  -7.732  65.643
 Approx polarizability: 220.986  -7.472 114.553 -24.398 -12.458  97.395

                      1                      2                      3
                      A                      A                      A
 Frequencies --     29.3391                39.9149               104.3161
 Red. masses --      3.6005                 3.4443                 3.1784
 Frc consts  --      0.0018                 0.0032                 0.0204
 IR Inten    --      1.5259                 1.1917                 7.8431

                      4                      5                      6
                      A                      A                      A
 Frequencies --    111.4867               152.3007               179.0397
 Red. masses --      2.9362                 2.6107                 2.3666
 Frc consts  --      0.0215                 0.0357                 0.0447
 IR Inten    --      3.1209                 3.7567                 2.8177

                      7                      8                      9
                      A                      A                      A
 Frequencies --    248.6116               258.3897               293.6459
 Red. masses --      1.6519                 1.9138                 1.4738
 Frc consts  --      0.0602                 0.0753                 0.0749
 IR Inten    --      6.3370                 2.4004                66.4566

                     10                     11                     12
                      A                      A                      A
 Frequencies --    319.9682               364.6655               371.3193
 Red. masses --      1.5445                 2.4580                 2.9228
 Frc consts  --      0.0932                 0.1926                 0.2374
 IR Inten    --    139.5237                 2.6113                 3.0565

                     13                     14                     15
                      A                      A                      A
 Frequencies --    390.5242               427.6315               478.0075
 Red. masses --      2.4357                 3.0270                 1.9388
 Frc consts  --      0.2189                 0.3261                 0.2610
 IR Inten    --      5.2881                 6.3987                35.5024

                     16                     17                     18
                      A                      A                      A
 Frequencies --    491.9115               581.1277               613.8592
 Red. masses --      1.8428                 2.7441                 2.1469
 Frc consts  --      0.2627                 0.5460                 0.4766
 IR Inten    --     73.7781                 3.5301                 0.1241

                     19                     20                     21
                      A                      A                      A
 Frequencies --    782.4175               819.6992               860.2516
 Red. masses --      2.9934                 1.5832                 1.8905
 Frc consts  --      1.0797                 0.6268                 0.8243
 IR Inten    --      2.4319                 0.1823                13.2373

                     22                     23                     24
                      A                      A                      A
 Frequencies --    870.9021               917.0787               951.5508
 Red. masses --      1.9839                 2.0628                 1.1177
 Frc consts  --      0.8866                 1.0221                 0.5963
 IR Inten    --      7.1230                 7.9676                12.4691

                     25                     26                     27
                      A                      A                      A
 Frequencies --    981.3793               997.1894              1019.9738
 Red. masses --      2.2464                 1.7987                 1.0942
 Frc consts  --      1.2747                 1.0538                 0.6707
 IR Inten    --     24.3306                 5.1977                59.3728

                     28                     29                     30
                      A                      A                      A
 Frequencies --   1039.1652              1083.1718              1121.5875
 Red. masses --      1.6649                 1.8758                 2.4808
 Frc consts  --      1.0593                 1.2967                 1.8387
 IR Inten    --     36.0135                27.9391               123.8239

                     31                     32                     33
                      A                      A                      A
 Frequencies --   1149.2525              1158.3410              1193.9602
 Red. masses --      1.9667                 1.7951                 2.4672
 Frc consts  --      1.5304                 1.4191                 2.0722
 IR Inten    --    149.0715                12.2938                31.5157

                     34                     35                     36
                      A                      A                      A
 Frequencies --   1217.7714              1244.7551              1269.6188
 Red. masses --      1.4384                 1.3126                 1.3127
 Frc consts  --      1.2567                 1.1983                 1.2467
 IR Inten    --      4.3413                40.9106                 5.7956

                     37                     38                     39
                      A                      A                      A
 Frequencies --   1306.8247              1342.2251              1347.4307
 Red. masses --      1.1573                 1.3751                 1.2918
 Frc consts  --      1.1645                 1.4596                 1.3819
 IR Inten    --     39.6547                 4.2138                 7.6804

                     40                     41                     42
                      A                      A                      A
 Frequencies --   1351.6614              1374.5638              1390.7796
 Red. masses --      1.3579                 1.4250                 1.3933
 Frc consts  --      1.4617                 1.5864                 1.5878
 IR Inten    --     17.6302                 9.3692                 9.1259

                     43                     44                     45
                      A                      A                      A
 Frequencies --   1412.3021              1425.6576              1434.5764
 Red. masses --      1.3080                 1.2571                 1.3661
 Frc consts  --      1.5371                 1.5054                 1.6565
 IR Inten    --      9.6511                 2.4408                36.8990

                     46                     47                     48
                      A                      A                      A
 Frequencies --   1467.2930              1507.7721              1514.4557
 Red. masses --      1.5612                 1.0914                 1.0850
 Frc consts  --      1.9803                 1.4619                 1.4662
 IR Inten    --     32.3548                 6.2897                 8.8475

                     49                     50                     51
                      A                      A                      A
 Frequencies --   1517.8333              1539.1097              1706.5063
 Red. masses --      1.0739                 1.0554                 5.4117
 Frc consts  --      1.4577                 1.4730                 9.2854
 IR Inten    --      2.4063                 4.4138                98.9692

                     52                     53                     54
                      A                      A                      A
 Frequencies --   1742.7409              2964.6528              3019.7514
 Red. masses --      5.3349                 1.0830                 1.0649
 Frc consts  --      9.5464                 5.6082                 5.7216
 IR Inten    --    155.6267                75.2520                45.9741

                     55                     56                     57
                      A                      A                      A
 Frequencies --   3031.6797              3059.6167              3063.3104
 Red. masses --      1.0616                 1.0624                 1.0693
 Frc consts  --      5.7487                 5.8596                 5.9122
 IR Inten    --     21.7381                10.1362                57.3302

                     58                     59                     60
                      A                      A                      A
 Frequencies --   3071.4636              3129.4150              3132.1046
 Red. masses --      1.1015                 1.0882                 1.1023
 Frc consts  --      6.1222                 6.2787                 6.3711
 IR Inten    --     47.4391                 6.1680                26.9395

                     61                     62                     63
                      A                      A                      A
 Frequencies --   3136.8874              3138.7041              3183.2651
 Red. masses --      1.1026                 1.0891                 1.0881
 Frc consts  --      6.3924                 6.3217                 6.4962
 IR Inten    --     33.8707                35.5433                14.7866

                     64                     65                     66
                      A                      A                      A
 Frequencies --   3213.9919              3725.3570              3739.6662
 Red. masses --      1.0915                 1.0653                 1.0661
 Frc consts  --      6.6430                 8.7105                 8.7843
 IR Inten    --     12.5250                37.2344                 5.8237

 - Thermochemistry -
 -------------------
 Temperature   298.150 Kelvin.  Pressure   1.00000 Atm.
 Atom     1 has atomic number  6 and mass  12.00000

 Molecular mass:   142.09938 amu.
 Principal axes and moments of inertia in atomic units:
                           1         2         3
     Eigenvalues --   546.821044206.294514468.65294
           X            0.99999  -0.00380  -0.00231
           Y            0.00369   0.99889  -0.04686
           Z            0.00248   0.04685   0.99890
 This molecule is an asymmetric top.
 Rotational symmetry number  1.
 Warning -- assumption of classical behavior for rotation
           may cause significant error
 Rotational temperatures (Kelvin)      0.15840     0.02059     0.01938
 Rotational constants (GHZ):           3.30042     0.42906     0.40387
 Zero-point vibrational energy     551034.2 (Joules/Mol)
                                  131.70033 (Kcal/Mol)
 Warning -- explicit consideration of  18 degrees of freedom as
           vibrations may cause significant error
 Vibrational temperatures:     42.21    57.43   150.09   160.40   219.13
          (Kelvin)            257.60   357.70   371.77   422.49   460.36
                              524.67   534.25   561.88   615.27   687.75
                              707.75   836.11   883.21  1125.72  1179.36
                             1237.71  1253.03  1319.47  1369.07  1411.99
                             1434.73  1467.51  1495.13  1558.44  1613.71
                             1653.52  1666.59  1717.84  1752.10  1790.93
                             1826.70  1880.23  1931.16  1938.65  1944.74
                             1977.69  2001.02  2031.99  2051.20  2064.04
                             2111.11  2169.35  2178.96  2183.82  2214.44
                             2455.28  2507.42  4265.47  4344.75  4361.91
                             4402.11  4407.42  4419.15  4502.53  4506.40
                             4513.28  4515.90  4580.01  4624.22  5359.96
                             5380.55

 Zero-point correction=                           0.209878 (Hartree/Particle)
 Thermal correction to Energy=                    0.221754
 Thermal correction to Enthalpy=                  0.222698
 Thermal correction to Gibbs Free Energy=         0.171058
 Sum of electronic and zero-point Energies=           -463.502294
 Sum of electronic and thermal Energies=              -463.490417
 Sum of electronic and thermal Enthalpies=            -463.489473
 Sum of electronic and thermal Free Energies=         -463.541113

                     E (Thermal)             CV                S
                      KCal/Mol        Cal/Mol-Kelvin    Cal/Mol-Kelvin
 Total                  139.153             43.059            108.686
 Electronic               0.000              0.000              0.000
 Translational            0.889              2.981             40.765
 Rotational               0.889              2.981             30.709
 Vibrational            137.375             37.097             37.212
 Vibration     1          0.593              1.984              5.874
 Vibration     2          0.594              1.981              5.263
 Vibration     3          0.605              1.946              3.372
 Vibration     4          0.607              1.940              3.243
 Vibration     5          0.619              1.900              2.643
 Vibration     6          0.629              1.868              2.338
 Vibration     7          0.662              1.765              1.740
 Vibration     8          0.667              1.749              1.673
 Vibration     9          0.688              1.686              1.453
 Vibration    10          0.706              1.635              1.310
 Vibration    11          0.738              1.545              1.102
 Vibration    12          0.743              1.531              1.074
 Vibration    13          0.758              1.490              0.998
 Vibration    14          0.789              1.410              0.866
 Vibration    15          0.835              1.299              0.715
 Vibration    16          0.848              1.268              0.679
 Vibration    17          0.938              1.072              0.483
 Vibration    18          0.973              1.003              0.426

 Optimization completed.
    -- Stationary point found.

 1\1\GINC-NODE318\Freq\RB3LYP\6-31G(d)\C8H14O2\VSC10255\08-Dec-2020\0\\
 #N Geom=AllCheck Guess=TCheck SCRF=Check GenChk RB3LYP/6-31G(d) Freq\\
 CID_74053094_JID_616_neutraal\\0,1\C,1.1460650146,-0.0111976303,-0.096
 7329208\C,0.5630393734,-0.0696959164,-1.5030941962\C,0.8713721587,-1.3
 760959449,-2.2501043532\C,0.3758119183,-2.6854827385,-1.5975315404\C,-
 1.1193067657,-2.8020197498,-1.4934626364\C,-1.8664321896,-3.6218916548
 ,-2.2524036249\C,-3.3115550845,-3.7311543942,-2.1820997514\C,-4.026971
 0242,-4.5622152331,-2.9589192257\O,-5.3785556947,-4.7219756374,-2.9520

 Normal termination of Gaussian 16 at Tue Dec  8 12:21:57 2020.

 ----------------------------------------------------------------------
 # B3LYP/6-311++G(d,p) empiricaldispersion=gd3bj scf=xqc pop=npa geom=c
 heck
 ----------------------------------------------------------------------

 -------------------------------------
 CID_74053094_JID_616_Energie_neutraal
 -------------------------------------
 Structure from the checkpoint file:  "JID_616.chk"
 Charge =  0 Multiplicity = 1

 SCF Done:  E(RB3LYP) =  -463.866151277     A.U. after   14 cycles
 Normal termination of Gaussian 16 at Tue Dec  8 12:25:45 2020.

 ----------------------------------------------------------------------
 # B3LYP/6-311++G(d,p) empiricaldispersion=gd3bj scf=xqc pop=npa geom=c
 heck
 ----------------------------------------------------------------------

 -----------------------------------
 CID_74053094_JID_616_Energie_kation
 -----------------------------------
 Structure from the checkpoint file:  "JID_616.chk"
 Charge =  1 Multiplicity = 2

 SCF Done:  E(UB3LYP) =  -463.584488213     A.U. after   20 cycles
 Normal termination of Gaussian 16 at Tue Dec  8 12:32:29 2020.
 Gaussian 16:  ES64L-G16RevA.03 25-Dec-2016

 ----------------------------------
 CID_74053094_JID_616_Energie_anion
 ----------------------------------
 Structure from the checkpoint file:  "JID_616.chk"
 Charge = -1 Multiplicity = 2

                         Standard orientation:
 ---------------------------------------------------------------------
 Center     Atomic      Atomic             Coordinates (Angstroms)
 Number     Number       Type             X           Y           Z
 ---------------------------------------------------------------------
      1          6           0       -3.657837   -0.407593    0.800545
      2          6           0       -2.834533   -0.447176   -0.480781
      3          6           0       -2.092096    0.863146   -0.783465
      4          6           0       -1.084953    1.354855    0.279461
      5          6           0        0.090914    0.442689    0.491781
      6          6           0        1.339918    0.713133    0.075577
      7          6           0        2.481888   -0.164572    0.251073
      8          6           0        3.718095    0.138482   -0.180067
      9          8           0        4.835558   -0.628018   -0.053166
     10          8           0       -1.948795   -1.564631   -0.354922
     11          1           0       -3.016431   -0.247249    1.672636
     12          1           0       -4.179478   -1.359642    0.937427
     13          1           0       -4.401850    0.395270    0.758638
     14          1           0       -3.523283   -0.626336   -1.324655
     15          1           0       -1.559708    0.748169   -1.739450
     16          1           0       -2.847308    1.644290   -0.946974
     17          1           0       -0.723158    2.342480   -0.034010
     18          1           0       -1.615174    1.509073    1.229186
     19          1           0       -0.111304   -0.503878    0.988050
     20          1           0        1.532007    1.659968   -0.433240
     21          1           0        2.311738   -1.114149    0.761739
     22          1           0        3.947024    1.067934   -0.693686
     23          1           0        4.600485   -1.447122    0.413487
     24          1           0       -1.276043   -1.485393   -1.049182
 ---------------------------------------------------------------------

 SCF Done:  E(UB3LYP) =  -463.852038336     A.U. after   33 cycles
 SCF Done:  E(UB3LYP) =  -463.852038337     a.u. after    1 cycles

 The electronic state is 2-A.
 Alpha  occ. eigenvalues --  -19.05444 -19.01563 -10.12869 -10.11791 -10.07031
 Alpha  occ. eigenvalues --  -10.07024 -10.06646 -10.06552 -10.06100 -10.05746
 Alpha  occ. eigenvalues --   -0.96258  -0.91821  -0.71377  -0.68541  -0.64818
 Alpha  occ. eigenvalues --   -0.60589  -0.55206  -0.51485  -0.47780  -0.45446
 Alpha  occ. eigenvalues --   -0.41036  -0.39731  -0.38916  -0.36387  -0.34793
 Alpha  occ. eigenvalues --   -0.31904  -0.30667  -0.29781  -0.29140  -0.28422
 Alpha  occ. eigenvalues --   -0.27544  -0.26943  -0.25713  -0.25226  -0.23556
 Alpha  occ. eigenvalues --   -0.21973  -0.20231  -0.16889  -0.10433   0.04538
 Alpha virt. eigenvalues --    0.05891   0.07883   0.08083   0.08497   0.09051
 Alpha virt. eigenvalues --    0.09524   0.10727   0.10991   0.11430   0.11667
 Alpha virt. eigenvalues --    0.12388   0.13933   0.14538   0.14792   0.15260

  Beta  occ. eigenvalues --  -19.05379 -19.01543 -10.12848 -10.11775 -10.07022
  Beta  occ. eigenvalues --  -10.07003 -10.06615 -10.06540 -10.06096 -10.05719
  Beta  occ. eigenvalues --   -0.96129  -0.91776  -0.71339  -0.68489  -0.64773
  Beta  occ. eigenvalues --   -0.60530  -0.55133  -0.51391  -0.47710  -0.45401
  Beta  occ. eigenvalues --   -0.40954  -0.39669  -0.38876  -0.36328  -0.34750
  Beta  occ. eigenvalues --   -0.31859  -0.30630  -0.29681  -0.29089  -0.28375
  Beta  occ. eigenvalues --   -0.27495  -0.26895  -0.25679  -0.25192  -0.23522
  Beta  occ. eigenvalues --   -0.21929  -0.20157  -0.16846  -0.10358
  Beta virt. eigenvalues --    0.06906   0.07848   0.08067   0.08564   0.08658
  Beta virt. eigenvalues --    0.09544   0.09925   0.11124   0.11262   0.11665
  Beta virt. eigenvalues --    0.12127   0.12731   0.13887   0.14690   0.15185

 Mulliken charges and spin densities:
               1          2
     1  C    0.713725  -1.312846
     2  C   -0.471008   0.404438
     3  C    0.820935  -1.270269
     4  C   -0.665848   0.584978
     5  C   -0.152259   0.263708
     6  C    1.570755  -2.018967
     7  C   -1.851676   2.034352
     8  C    1.574686  -2.112699
     9  O   -0.196560  -0.003373
    10  O   -0.205523  -0.012761
    11  H   -0.111998   0.258924
    12  H    0.050522   0.103311
    13  H   -0.279655   0.421136
    14  H   -0.573054   0.757284
    15  H   -0.130832   0.279763
    16  H   -0.469471   0.621830
    17  H   -0.165930   0.334089
    18  H    0.061641   0.064341
    19  H    0.392075  -0.200882
    20  H    0.082059  -0.010065
    21  H   -0.817832   0.956554
    22  H    0.058297   0.089869
    23  H   -0.369303   0.648141
    24  H    0.136257   0.119143
 Sum of Mulliken charges =  -1.00000   1.00000

 Dipole moment (field-independent basis, Debye):
    X=             -0.0386    Y=              2.7084    Z=              0.4685  Tot=              2.7489
 Quadrupole moment (field-independent basis, Debye-Ang):
   XX=           -159.6235   YY=            -97.9958   ZZ=            -88.2610
   XY=             19.0980   XZ=            -10.7211   YZ=              2.3649

 Summary of Natural Population Analysis:

                                       Natural Population
                Natural  -----------------------------------------------
    Atom  No    Charge         Core      Valence    Rydberg      Total
 -----------------------------------------------------------------------
      C    1   -0.29328      0.99964     2.28647    0.00717     3.29328
      C    2    0.06223      0.99958     1.92369    0.01450     2.93777
      C    3   -0.19646      0.99960     2.18746    0.00940     3.19646
      C    4   -0.20651      0.99961     2.19696    0.00994     3.20651
      C    5   -0.09490      0.99952     2.08575    0.00963     3.09490
      C    6   -0.10320      0.99950     2.09500    0.00870     3.10320
      C    7   -0.16412      0.99952     2.15373    0.01087     3.16412
      C    8    0.09647      0.99946     1.88892    0.01515     2.90353
      O    9   -0.33897      0.99989     3.33118    0.00790     4.33897
      O   10   -0.37556      0.99989     3.36883    0.00684     4.37556
      H   11    0.09760      0.00000     0.40138    0.00102     0.40240
      H   12    0.10219      0.00000     0.39692    0.00089     0.39781
      H   13    0.10176      0.00000     0.39690    0.00134     0.39824
      H   14    0.07778      0.00000     0.42006    0.00216     0.42222
      H   15    0.09559      0.00000     0.40289    0.00152     0.40441
      H   16    0.10503      0.00000     0.39211    0.00286     0.39497
      H   17    0.09767      0.00000     0.40066    0.00167     0.40233
      H   18    0.09955      0.00000     0.39928    0.00118     0.40045
      H   19    0.09889      0.00000     0.39962    0.00148     0.40111
      H   20    0.08840      0.00000     0.40973    0.00187     0.41160
      H   21    0.09903      0.00000     0.39927    0.00170     0.40097
      H   22    0.08053      0.00000     0.41828    0.00119     0.41947
      H   23    0.23939      0.00000     0.24132    0.01929     0.26061
      H   24    0.23086      0.00000     0.26589    0.00325     0.26914
 =======================================================================
   * Total *   -0.00000      9.99622    28.86229    0.14149    39.00000

 Normal termination of Gaussian 16 at Tue Dec  8 12:49:40 2020.
