 Gaussian 16, Revision A.03,

 -----------------------------------------------------------
 # opt freq B3LYP/6-31G(d) empiricaldispersion=gd3bj scf=xqc
 -----------------------------------------------------------

 -------------------------------
 CID_115015652_JID_1258_neutraal
 -------------------------------
 Symbolic Z-matrix:
 Charge =  0 Multiplicity = 1

 SCF Done:  E(RB3LYP) =  -934.914258169     A.U. after   15 cycles
 SCF Done:  E(RB3LYP) =  -934.916857386     A.U. after   12 cycles
 SCF Done:  E(RB3LYP) =  -934.917329701     A.U. after   11 cycles
 SCF Done:  E(RB3LYP) =  -934.917397681     A.U. after   11 cycles
 SCF Done:  E(RB3LYP) =  -934.917416635     A.U. after   10 cycles
 SCF Done:  E(RB3LYP) =  -934.917420821     A.U. after    9 cycles
 SCF Done:  E(RB3LYP) =  -934.917421812     A.U. after    8 cycles
 SCF Done:  E(RB3LYP) =  -934.917422257     A.U. after    7 cycles
 SCF Done:  E(RB3LYP) =  -934.917423463     A.U. after    8 cycles
 SCF Done:  E(RB3LYP) =  -934.917424681     A.U. after    8 cycles
 SCF Done:  E(RB3LYP) =  -934.917426083     A.U. after    9 cycles
 SCF Done:  E(RB3LYP) =  -934.917426712     A.U. after    8 cycles
 SCF Done:  E(RB3LYP) =  -934.917426765     A.U. after    7 cycles
 Optimization completed.
    -- Stationary point found.
 Normal termination of Gaussian 16 at Tue Dec  8 19:34:26 2020.

 --------------------------------------------------------------------
 #N Geom=AllCheck Guess=TCheck SCRF=Check GenChk RB3LYP/6-31G(d) Freq
 --------------------------------------------------------------------

 Structure from the checkpoint file:  "JID_1258.chk"
 -------------------------------
 CID_115015652_JID_1258_neutraal
 -------------------------------
 Charge =  0 Multiplicity = 1

 SCF Done:  E(RB3LYP) =  -934.917426765     A.U. after    1 cycles

  Exact polarizability: 103.572  -4.154  86.771  -0.005   1.307  75.998
 Approx polarizability: 129.770  -7.456 127.765  -3.313   3.053 128.503

                      1                      2                      3
                      A                      A                      A
 Frequencies --     41.9298                68.7392               115.6903
 Red. masses --      4.6247                 4.2237                 4.2437
 Frc consts  --      0.0048                 0.0118                 0.0335
 IR Inten    --      0.3579                 5.2198                 2.4094

                      4                      5                      6
                      A                      A                      A
 Frequencies --    142.7072               165.8299               234.3864
 Red. masses --      1.6931                 2.6406                 2.9255
 Frc consts  --      0.0203                 0.0428                 0.0947
 IR Inten    --     84.9009                16.2282                 9.2207

                      7                      8                      9
                      A                      A                      A
 Frequencies --    250.5069               262.1588               310.7026
 Red. masses --      2.1797                 9.9802                 2.6320
 Frc consts  --      0.0806                 0.4041                 0.1497
 IR Inten    --      2.4632                 1.9551                16.9661

                     10                     11                     12
                      A                      A                      A
 Frequencies --    359.0645               403.6805               427.9216
 Red. masses --      2.0637                 5.5445                 2.2320
 Frc consts  --      0.1568                 0.5323                 0.2408
 IR Inten    --      4.1672                15.8337                 1.4267

                     13                     14                     15
                      A                      A                      A
 Frequencies --    461.2403               465.3591               489.5136
 Red. masses --      2.9932                 7.0545                 3.1995
 Frc consts  --      0.3752                 0.9001                 0.4517
 IR Inten    --      0.5640                18.2584                15.5276

                     16                     17                     18
                      A                      A                      A
 Frequencies --    547.9469               607.3548               716.0901
 Red. masses --      7.2145                 2.2215                 6.8422
 Frc consts  --      1.2762                 0.4828                 2.0672
 IR Inten    --     76.1834                 5.2802                43.6160

                     19                     20                     21
                      A                      A                      A
 Frequencies --    791.2058               807.7940               871.2582
 Red. masses --      3.9694                 2.9742                 1.8596
 Frc consts  --      1.4640                 1.1435                 0.8317
 IR Inten    --     83.6542                59.1358                 3.5340

                     22                     23                     24
                      A                      A                      A
 Frequencies --    874.5239               895.8767               952.4491
 Red. masses --      1.5928                 2.1613                 2.2746
 Frc consts  --      0.7177                 1.0220                 1.2157
 IR Inten    --      5.9044                 9.9546                37.9945

                     25                     26                     27
                      A                      A                      A
 Frequencies --    983.6717              1007.7670              1058.2752
 Red. masses --      2.7449                 1.4287                 1.8827
 Frc consts  --      1.5649                 0.8549                 1.2423
 IR Inten    --      9.1281                 2.2496                11.8832

                     28                     29                     30
                      A                      A                      A
 Frequencies --   1084.5429              1120.7745              1130.9298
 Red. masses --      2.3808                 2.8527                 3.3624
 Frc consts  --      1.6500                 2.1113                 2.5338
 IR Inten    --      7.4525                42.0370                35.8514

                     31                     32                     33
                      A                      A                      A
 Frequencies --   1147.1325              1153.8377              1193.3140
 Red. masses --      2.4222                 1.9000                 1.9689
 Frc consts  --      1.8780                 1.4904                 1.6519
 IR Inten    --     44.7626                58.6798               132.3251

                     34                     35                     36
                      A                      A                      A
 Frequencies --   1209.5071              1232.4121              1268.4800
 Red. masses --      1.4756                 1.3870                 1.3914
 Frc consts  --      1.2719                 1.2412                 1.3191
 IR Inten    --     35.8243                21.9226                 5.1355

                     37                     38                     39
                      A                      A                      A
 Frequencies --   1296.1708              1323.7163              1343.9608
 Red. masses --      1.2425                 1.1960                 1.3496
 Frc consts  --      1.2299                 1.2347                 1.4362
 IR Inten    --     11.7796                29.1752                14.8927

                     40                     41                     42
                      A                      A                      A
 Frequencies --   1350.0922              1368.7895              1380.7700
 Red. masses --      2.3694                 1.2686                 1.9495
 Frc consts  --      2.5446                 1.4004                 2.1899
 IR Inten    --     98.0711                 0.4802                82.3342

                     43                     44                     45
                      A                      A                      A
 Frequencies --   1399.0900              1406.0789              1429.1981
 Red. masses --      1.3922                 1.2933                 1.4350
 Frc consts  --      1.6056                 1.5065                 1.7270
 IR Inten    --      0.0598                15.9521                 4.3492

                     46                     47                     48
                      A                      A                      A
 Frequencies --   1445.6691              1482.8326              1507.1157
 Red. masses --      1.3601                 1.0904                 1.0873
 Frc consts  --      1.6748                 1.4125                 1.4551
 IR Inten    --      7.2351                 5.9267                 5.6282

                     49                     50                     51
                      A                      A                      A
 Frequencies --   1514.9398              1520.6494              1533.8099
 Red. masses --      1.1057                 1.0822                 1.1028
 Frc consts  --      1.4951                 1.4744                 1.5286
 IR Inten    --      3.7854                 0.5492                 4.3884

                     52                     53                     54
                      A                      A                      A
 Frequencies --   2960.3146              2977.8818              3032.5320
 Red. masses --      1.0714                 1.0723                 1.0709
 Frc consts  --      5.5317                 5.6023                 5.8026
 IR Inten    --     39.8337                73.9742                18.4756

                     55                     56                     57
                      A                      A                      A
 Frequencies --   3051.2293              3072.7456              3082.2202
 Red. masses --      1.0601                 1.0812                 1.0608
 Frc consts  --      5.8151                 6.0144                 5.9375
 IR Inten    --     24.7924                 6.0531                 6.3723

                     58                     59                     60
                      A                      A                      A
 Frequencies --   3094.0920              3100.1555              3115.9791
 Red. masses --      1.1028                 1.0924                 1.0923
 Frc consts  --      6.2201                 6.1856                 6.2488
 IR Inten    --     39.5249                36.0296                46.4023

                     61                     62                     63
                      A                      A                      A
 Frequencies --   3118.5248              3137.4452              3698.2543
 Red. masses --      1.0948                 1.1057                 1.0659
 Frc consts  --      6.2730                 6.4127                 8.5894
 IR Inten    --     24.6948                 3.1590               100.8031

 - Thermochemistry -
 -------------------
 Temperature   298.150 Kelvin.  Pressure   1.00000 Atm.
 Atom     1 has atomic number  6 and mass  12.00000

 Molecular mass:   180.04563 amu.
 Principal axes and moments of inertia in atomic units:
                           1         2         3
     Eigenvalues --   795.716393560.290273878.26241
           X            0.99997  -0.00754   0.00170
           Y            0.00751   0.99986   0.01507
           Z           -0.00182  -0.01506   0.99989
 This molecule is an asymmetric top.
 Rotational symmetry number  1.
 Warning -- assumption of classical behavior for rotation
           may cause significant error
 Rotational temperatures (Kelvin)      0.10885     0.02433     0.02233
 Rotational constants (GHZ):           2.26807     0.50691     0.46535
 Zero-point vibrational energy     500032.1 (Joules/Mol)
                                  119.51053 (Kcal/Mol)
 Warning -- explicit consideration of  17 degrees of freedom as
           vibrations may cause significant error
 Vibrational temperatures:     60.33    98.90   166.45   205.32   238.59
          (Kelvin)            337.23   360.42   377.19   447.03   516.61
                              580.81   615.68   663.62   669.55   704.30
                              788.37   873.85  1030.29  1138.37  1162.24
                             1253.55  1258.24  1288.97  1370.36  1415.28
                             1449.95  1522.62  1560.42  1612.54  1627.16
                             1650.47  1660.12  1716.91  1740.21  1773.17
                             1825.06  1864.90  1904.53  1933.66  1942.48
                             1969.38  1986.62  2012.98  2023.03  2056.30
                             2080.00  2133.47  2168.40  2179.66  2187.88
                             2206.81  4259.23  4284.51  4363.14  4390.04
                             4421.00  4434.63  4451.71  4460.43  4483.20
                             4486.86  4514.08  5320.96

 Zero-point correction=                           0.190452 (Hartree/Particle)
 Thermal correction to Energy=                    0.201673
 Thermal correction to Enthalpy=                  0.202617
 Thermal correction to Gibbs Free Energy=         0.152754
 Sum of electronic and zero-point Energies=           -934.726975
 Sum of electronic and thermal Energies=              -934.715754
 Sum of electronic and thermal Enthalpies=            -934.714809
 Sum of electronic and thermal Free Energies=         -934.764673

                     E (Thermal)             CV                S
                      KCal/Mol        Cal/Mol-Kelvin    Cal/Mol-Kelvin
 Total                  126.552             41.886            104.947
 Electronic               0.000              0.000              0.000
 Translational            0.889              2.981             41.471
 Rotational               0.889              2.981             30.775
 Vibrational            124.774             35.924             32.701
 Vibration     1          0.595              1.980              5.166
 Vibration     2          0.598              1.969              4.189
 Vibration     3          0.608              1.936              3.171
 Vibration     4          0.616              1.910              2.767
 Vibration     5          0.624              1.884              2.482
 Vibration     6          0.654              1.788              1.845
 Vibration     7          0.663              1.762              1.727
 Vibration     8          0.669              1.742              1.647
 Vibration     9          0.700              1.653              1.359
 Vibration    10          0.734              1.557              1.126
 Vibration    11          0.769              1.462              0.949
 Vibration    12          0.789              1.409              0.865
 Vibration    13          0.819              1.336              0.763
 Vibration    14          0.823              1.327              0.751
 Vibration    15          0.845              1.273              0.685
 Vibration    16          0.903              1.144              0.548
 Vibration    17          0.966              1.016              0.437

 Optimization completed.
    -- Stationary point found.
 Normal termination of Gaussian 16 at Tue Dec  8 19:39:15 2020.

 ----------------------------------------------------------------------
 # B3LYP/6-311++G(d,p) empiricaldispersion=gd3bj scf=xqc pop=npa geom=c
 heck
 ----------------------------------------------------------------------

 ---------------------------------------
 CID_115015652_JID_1258_Energie_neutraal
 ---------------------------------------
 Structure from the checkpoint file:  "JID_1258.chk"
 Charge =  0 Multiplicity = 1

 SCF Done:  E(RB3LYP) =  -935.109307574     A.U. after   14 cycles
 Normal termination of Gaussian 16 at Tue Dec  8 19:41:23 2020.

 ----------------------------------------------------------------------
 # B3LYP/6-311++G(d,p) empiricaldispersion=gd3bj scf=xqc pop=npa geom=c
 heck
 ----------------------------------------------------------------------

 -------------------------------------
 CID_115015652_JID_1258_Energie_kation
 -------------------------------------
 Structure from the checkpoint file:  "JID_1258.chk"
 Charge =  1 Multiplicity = 2

 SCF Done:  E(UB3LYP) =  -934.759699502     A.U. after   24 cycles
 Normal termination of Gaussian 16 at Tue Dec  8 19:47:02 2020.
 Gaussian 16:  ES64L-G16RevA.03 25-Dec-2016

 ----------------------------------------------------------------------
 # B3LYP/6-311++G(d,p) empiricaldispersion=gd3bj scf=xqc pop=npa geom=c
 heck
 ----------------------------------------------------------------------

 ------------------------------------
 CID_115015652_JID_1258_Energie_anion
 ------------------------------------
 Structure from the checkpoint file:  "JID_1258.chk"
 Charge = -1 Multiplicity = 2

                         Standard orientation:
 ---------------------------------------------------------------------
 Center     Atomic      Atomic             Coordinates (Angstroms)
 Number     Number       Type             X           Y           Z
 ---------------------------------------------------------------------
      1          6           0       -2.444317    1.391448    0.210549
      2          6           0       -1.043260    1.012243   -0.286915
      3          6           0       -0.677512   -0.404578    0.183764
      4          6           0       -1.814513   -1.375071   -0.185335
      5          8           0       -3.058168   -0.961329    0.344271
      6          6           0       -3.455176    0.309052   -0.161006
      7          6           0        0.626023   -0.947077   -0.399784
      8         16           0        2.116646   -0.063052    0.114084
      9          8           0        1.947947    0.524372    1.444890
     10          8           0        3.270708   -0.896366   -0.195872
     11          8           0        2.068952    1.189055   -0.964810
     12          1           0       -2.431139    1.501184    1.302098
     13          1           0       -2.754904    2.354568   -0.212460
     14          1           0       -1.017524    1.043915   -1.385811
     15          1           0       -0.305389    1.736147    0.068840
     16          1           0       -0.588473   -0.399608    1.276487
     17          1           0       -1.879148   -1.463530   -1.285482
     18          1           0       -1.623956   -2.372305    0.224078
     19          1           0       -4.439149    0.509984    0.271414
     20          1           0       -3.566275    0.254419   -1.258288
     21          1           0        0.815313   -1.973400   -0.068021
     22          1           0        0.641033   -0.935876   -1.494275
     23          1           0        2.300297    1.991391   -0.459381
 ---------------------------------------------------------------------

 SCF Done:  E(UB3LYP) =  -935.100643575     A.U. after   29 cycles

 The electronic state is 2-A.
 Alpha  occ. eigenvalues --  -88.97625 -19.06563 -19.03151 -19.02683 -19.02592
 Alpha  occ. eigenvalues --  -10.12427 -10.11862 -10.11838 -10.09209 -10.06965
 Alpha  occ. eigenvalues --  -10.06793  -8.03767  -6.00153  -5.99958  -5.99788
 Alpha  occ. eigenvalues --   -1.04580  -0.94719  -0.93538  -0.91905  -0.73670
 Alpha  occ. eigenvalues --   -0.68547  -0.64784  -0.56155  -0.54940  -0.51616
 Alpha  occ. eigenvalues --   -0.47340  -0.44304  -0.41301  -0.40581  -0.38331
 Alpha  occ. eigenvalues --   -0.37984  -0.36300  -0.35661  -0.34865  -0.33165
 Alpha  occ. eigenvalues --   -0.30886  -0.30163  -0.28980  -0.27041  -0.26189
 Alpha  occ. eigenvalues --   -0.24987  -0.24276  -0.23754  -0.22667  -0.22184
 Alpha  occ. eigenvalues --   -0.21086  -0.20525  -0.16308   0.04387
 Alpha virt. eigenvalues --    0.06978   0.07168   0.08084   0.09669   0.10077
 Alpha virt. eigenvalues --    0.10530   0.11155   0.12045   0.13073   0.13331
 Alpha virt. eigenvalues --    0.14095   0.14365   0.14552   0.14996   0.16325

  Beta  occ. eigenvalues --  -88.97611 -19.06464 -19.03144 -19.02654 -19.02572
  Beta  occ. eigenvalues --  -10.12396 -10.11842 -10.11784 -10.09206 -10.06946
  Beta  occ. eigenvalues --  -10.06763  -8.03749  -6.00132  -5.99947  -5.99778
  Beta  occ. eigenvalues --   -1.04478  -0.94701  -0.93344  -0.91832  -0.73623
  Beta  occ. eigenvalues --   -0.68498  -0.64696  -0.56075  -0.54869  -0.51509
  Beta  occ. eigenvalues --   -0.47269  -0.44240  -0.41256  -0.40526  -0.38291
  Beta  occ. eigenvalues --   -0.37933  -0.36260  -0.35603  -0.34799  -0.33110
  Beta  occ. eigenvalues --   -0.30841  -0.30116  -0.28933  -0.26975  -0.26141
  Beta  occ. eigenvalues --   -0.24913  -0.24226  -0.23705  -0.22608  -0.22131
  Beta  occ. eigenvalues --   -0.21042  -0.20473  -0.16270
  Beta virt. eigenvalues --    0.06967   0.07877   0.08540   0.08685   0.10443
  Beta virt. eigenvalues --    0.10653   0.10841   0.11445   0.12418   0.13268
  Beta virt. eigenvalues --    0.13794   0.14279   0.14555   0.14808   0.15246

 Mulliken charges and spin densities:
               1          2
     1  C   -0.022932  -0.384389
     2  C    0.807473  -1.145229
     3  C   -1.373398   2.029724
     4  C    0.600099  -1.212226
     5  O   -0.180867   0.064548
     6  C    0.374674  -0.653993
     7  C    0.247362  -1.183918
     8  S    1.100906  -0.810565
     9  O   -0.291523   0.029401
    10  O   -0.166440   0.036403
    11  O   -0.220736   0.027461
    12  H    0.169209  -0.024332
    13  H   -0.509703   0.677943
    14  H   -0.246025   0.460575
    15  H   -0.188892   0.312345
    16  H    0.065675   0.162732
    17  H   -0.217822   0.387525
    18  H   -0.044708   0.212592
    19  H   -0.232138   0.412966
    20  H   -0.018967   0.134635
    21  H   -0.083956   0.324713
    22  H   -0.120921   0.383126
    23  H   -0.446369   0.757963
 Sum of Mulliken charges =  -1.00000   1.00000

 Dipole moment (field-independent basis, Debye):
    X=             -1.3477    Y=             -2.9940    Z=              1.6567  Tot=              3.6776
 Quadrupole moment (field-independent basis, Debye-Ang):
   XX=           -136.3681   YY=           -115.4142   ZZ=           -102.9115
   XY=             -2.1454   XZ=             -1.8003   YZ=              3.2381

 Summary of Natural Population Analysis:

                                       Natural Population
                Natural  -----------------------------------------------
    Atom  No    Charge         Core      Valence    Rydberg      Total
 -----------------------------------------------------------------------
      C    1   -0.20291      0.99963     2.19474    0.00854     3.20291
      C    2   -0.19346      0.99961     2.18317    0.01068     3.19346
      C    3   -0.13644      0.99958     2.12528    0.01158     3.13644
      C    4   -0.00485      0.99955     1.99134    0.01396     3.00485
      O    5   -0.29885      0.99989     3.28953    0.00943     4.29885
      C    6   -0.00908      0.99958     1.99689    0.01261     3.00908
      C    7   -0.28343      0.99954     2.27136    0.01254     3.28343
      S    8    1.12185      4.99938     1.77808    0.10069     6.87815
      O    9   -0.45756      0.99990     3.45194    0.00571     4.45756
      O   10   -0.45181      0.99990     3.44618    0.00574     4.45181
      O   11   -0.43633      0.99992     3.42956    0.00685     4.43633
      H   12    0.09609      0.00000     0.40266    0.00125     0.40391
      H   13    0.10434      0.00000     0.39418    0.00147     0.39566
      H   14    0.09906      0.00000     0.39868    0.00226     0.40094
      H   15    0.11039      0.00000     0.38744    0.00218     0.38961
      H   16    0.10728      0.00000     0.39085    0.00186     0.39272
      H   17    0.07847      0.00000     0.41977    0.00176     0.42153
      H   18    0.09233      0.00000     0.40627    0.00140     0.40767
      H   19    0.09056      0.00000     0.40821    0.00122     0.40944
      H   20    0.07780      0.00000     0.42067    0.00152     0.42220
      H   21    0.11890      0.00000     0.37972    0.00138     0.38110
      H   22    0.12258      0.00000     0.37597    0.00145     0.37742
      H   23    0.25505      0.00000     0.22437    0.02058     0.24495
 =======================================================================
   * Total *    0.00000     14.99646    32.76686    0.23668    48.00000

 Normal termination of Gaussian 16 at Tue Dec  8 19:53:39 2020.
