 Gaussian 16, Revision A.03,

 -----------------------------------------------------------
 # opt freq B3LYP/6-31G(d) empiricaldispersion=gd3bj scf=xqc
 -----------------------------------------------------------

 ------------------------------
 CID_80424800_JID_8695_neutraal
 ------------------------------
 Symbolic Z-matrix:
 Charge =  0 Multiplicity = 1

 SCF Done:  E(RB3LYP) =  -754.760697979     A.U. after   14 cycles
 SCF Done:  E(RB3LYP) =  -754.765602278     A.U. after   12 cycles
 SCF Done:  E(RB3LYP) =  -754.762323754     A.U. after   12 cycles
 SCF Done:  E(RB3LYP) =  -754.765174265     A.U. after   12 cycles
 SCF Done:  E(RB3LYP) =  -754.767372270     A.U. after    9 cycles
 SCF Done:  E(RB3LYP) =  -754.767720277     A.U. after   12 cycles
 SCF Done:  E(RB3LYP) =  -754.768591847     A.U. after   11 cycles
 SCF Done:  E(RB3LYP) =  -754.768881176     A.U. after   11 cycles
 SCF Done:  E(RB3LYP) =  -754.768871082     A.U. after   11 cycles
 SCF Done:  E(RB3LYP) =  -754.768938787     A.U. after   11 cycles
 SCF Done:  E(RB3LYP) =  -754.768991586     A.U. after    9 cycles
 SCF Done:  E(RB3LYP) =  -754.768992611     A.U. after    9 cycles
 SCF Done:  E(RB3LYP) =  -754.768992974     A.U. after    8 cycles
 SCF Done:  E(RB3LYP) =  -754.768993135     A.U. after    7 cycles
 SCF Done:  E(RB3LYP) =  -754.768993219     A.U. after    7 cycles
 Optimization completed.
    -- Stationary point found.
 Normal termination of Gaussian 16 at Fri Dec 11 21:40:50 2020.

 --------------------------------------------------------------------
 #N Geom=AllCheck Guess=TCheck SCRF=Check GenChk RB3LYP/6-31G(d) Freq
 --------------------------------------------------------------------

 Structure from the checkpoint file:  "JID_8695.chk"
 ------------------------------
 CID_80424800_JID_8695_neutraal
 ------------------------------
 Charge =  0 Multiplicity = 1

 SCF Done:  E(RB3LYP) =  -754.768993219     A.U. after    1 cycles

  Exact polarizability: 189.672  10.668 188.755 -16.365  12.067 139.363
 Approx polarizability: 258.896  17.950 275.533 -36.648  26.771 215.577

                      1                      2                      3
                      A                      A                      A
 Frequencies --     13.6488                43.4188                58.3768
 Red. masses --      3.9703                 3.3783                 3.2813
 Frc consts  --      0.0004                 0.0038                 0.0066
 IR Inten    --      0.0217                 0.1514                 0.7215

                      4                      5                      6
                      A                      A                      A
 Frequencies --     67.1942                72.7676                85.8114
 Red. masses --      4.0949                 2.9292                 2.5404
 Frc consts  --      0.0109                 0.0091                 0.0110
 IR Inten    --      0.8789                 0.0296                 0.7664

                      7                      8                      9
                      A                      A                      A
 Frequencies --    105.3275               123.6466               165.2080
 Red. masses --      2.1479                 3.1088                 3.6039
 Frc consts  --      0.0140                 0.0280                 0.0580
 IR Inten    --      0.9901                 0.8903                 1.4279

                     10                     11                     12
                      A                      A                      A
 Frequencies --    182.3138               211.1764               218.1237
 Red. masses --      2.7232                 1.8561                 1.1938
 Frc consts  --      0.0533                 0.0488                 0.0335
 IR Inten    --      0.8410                 0.6222                 0.1547

                     13                     14                     15
                      A                      A                      A
 Frequencies --    226.1612               251.3128               267.8480
 Red. masses --      1.9755                 1.9872                 1.6788
 Frc consts  --      0.0595                 0.0739                 0.0710
 IR Inten    --      0.2219                 0.0771                 0.6397

                     16                     17                     18
                      A                      A                      A
 Frequencies --    274.6916               296.2590               314.7413
 Red. masses --      1.8031                 3.3081                 2.3960
 Frc consts  --      0.0802                 0.1711                 0.1398
 IR Inten    --      1.6846                 0.2488                 0.8172

                     19                     20                     21
                      A                      A                      A
 Frequencies --    344.7894               355.4150               394.8068
 Red. masses --      2.4970                 2.8777                 2.9284
 Frc consts  --      0.1749                 0.2142                 0.2689
 IR Inten    --      1.2438                 1.3034                 3.5206

                     22                     23                     24
                      A                      A                      A
 Frequencies --    433.6461               455.1280               480.2128
 Red. masses --      3.3154                 2.7288                 3.2308
 Frc consts  --      0.3673                 0.3330                 0.4390
 IR Inten    --      0.2874                 2.9103                 3.4187

                     25                     26                     27
                      A                      A                      A
 Frequencies --    495.8442               519.8907               532.8088
 Red. masses --      3.1503                 2.9711                 2.8404
 Frc consts  --      0.4563                 0.4731                 0.4751
 IR Inten    --      1.2788                 4.4765                 1.0394

                     28                     29                     30
                      A                      A                      A
 Frequencies --    549.8189               600.5732               621.2780
 Red. masses --      3.1536                 3.4469                 6.0900
 Frc consts  --      0.5617                 0.7325                 1.3850
 IR Inten    --      1.3253                 2.7516                 2.5290

                     31                     32                     33
                      A                      A                      A
 Frequencies --    706.8151               735.7895               763.0842
 Red. masses --      1.8884                 2.7955                 1.5819
 Frc consts  --      0.5559                 0.8917                 0.5427
 IR Inten    --     16.9248                13.6467                39.1119

                     34                     35                     36
                      A                      A                      A
 Frequencies --    765.7748               803.0720               809.9136
 Red. masses --      2.3725                 1.7337                 1.6999
 Frc consts  --      0.8197                 0.6588                 0.6570
 IR Inten    --     25.2937                37.8947                 7.9514

                     37                     38                     39
                      A                      A                      A
 Frequencies --    816.3087               847.1143               855.0036
 Red. masses --      1.4712                 1.3099                 1.5403
 Frc consts  --      0.5776                 0.5538                 0.6634
 IR Inten    --     18.7441                 1.6341                 8.3627

                     40                     41                     42
                      A                      A                      A
 Frequencies --    870.4425               879.2906               926.7437
 Red. masses --      2.2179                 2.3897                 3.2839
 Frc consts  --      0.9901                 1.0886                 1.6617
 IR Inten    --      2.9733                 5.3965                 6.4537

                     43                     44                     45
                      A                      A                      A
 Frequencies --    935.5814               950.0807               963.8506
 Red. masses --      1.3995                 1.3011                 1.4423
 Frc consts  --      0.7218                 0.6919                 0.7894
 IR Inten    --      3.0081                 0.8265                 2.3762

                     46                     47                     48
                      A                      A                      A
 Frequencies --    965.0849               969.3454               973.6136
 Red. masses --      1.6123                 1.3614                 2.6625
 Frc consts  --      0.8847                 0.7537                 1.4870
 IR Inten    --      4.2218                 2.8010                 3.3089

                     49                     50                     51
                      A                      A                      A
 Frequencies --    990.2092              1010.0173              1057.1404
 Red. masses --      3.1777                 1.7138                 1.8336
 Frc consts  --      1.8358                 1.0301                 1.2073
 IR Inten    --     45.2173                 9.5426                12.3171

                     52                     53                     54
                      A                      A                      A
 Frequencies --   1067.5421              1071.3342              1090.2142
 Red. masses --      1.5071                 1.8421                 1.5201
 Frc consts  --      1.0119                 1.2457                 1.0645
 IR Inten    --      1.2905                 1.9971                 1.0187

                     55                     56                     57
                      A                      A                      A
 Frequencies --   1091.1914              1128.4054              1135.3921
 Red. masses --      1.8125                 2.3798                 1.9670
 Frc consts  --      1.2716                 1.7853                 1.4940
 IR Inten    --      5.4057                19.6845                10.0440

                     58                     59                     60
                      A                      A                      A
 Frequencies --   1155.5001              1164.4634              1171.3881
 Red. masses --      1.1417                 1.9581                 1.8212
 Frc consts  --      0.8981                 1.5643                 1.4723
 IR Inten    --      1.1029                78.9926                18.0627

                     61                     62                     63
                      A                      A                      A
 Frequencies --   1174.4462              1184.6453              1194.5473
 Red. masses --      1.9755                 1.6207                 1.7357
 Frc consts  --      1.6054                 1.3401                 1.4593
 IR Inten    --     36.2081                14.0677                 8.1070

                     64                     65                     66
                      A                      A                      A
 Frequencies --   1199.4726              1212.4159              1215.9875
 Red. masses --      1.1334                 1.9287                 1.3857
 Frc consts  --      0.9608                 1.6704                 1.2072
 IR Inten    --      6.3314                18.3581                 2.2286

                     67                     68                     69
                      A                      A                      A
 Frequencies --   1219.0136              1221.3831              1263.4800
 Red. masses --      1.3241                 1.9252                 1.8271
 Frc consts  --      1.1593                 1.6921                 1.7185
 IR Inten    --      5.8724                 2.3207                 3.4230

                     70                     71                     72
                      A                      A                      A
 Frequencies --   1277.9712              1282.9419              1329.8011
 Red. masses --      1.4976                 3.8730                 1.5210
 Frc consts  --      1.4411                 3.7559                 1.5847
 IR Inten    --      0.1420               226.7588                20.0881

                     73                     74                     75
                      A                      A                      A
 Frequencies --   1345.4833              1358.3241              1373.1522
 Red. masses --      3.1019                 1.3208                 1.3578
 Frc consts  --      3.3085                 1.4358                 1.5084
 IR Inten    --      4.5242                 3.0214                23.3629

                     76                     77                     78
                      A                      A                      A
 Frequencies --   1387.5771              1398.7248              1402.7124
 Red. masses --      1.3136                 1.6161                 1.2862
 Frc consts  --      1.4902                 1.8629                 1.4911
 IR Inten    --     14.7479                 7.3287                10.2669

                     79                     80                     81
                      A                      A                      A
 Frequencies --   1407.3529              1433.3721              1443.8292
 Red. masses --      1.5013                 1.3462                 1.4390
 Frc consts  --      1.7520                 1.6296                 1.7675
 IR Inten    --      2.8641                15.4280                 2.3150

                     82                     83                     84
                      A                      A                      A
 Frequencies --   1447.5056              1482.7526              1500.8490
 Red. masses --      1.2539                 1.1588                 1.6474
 Frc consts  --      1.5480                 1.5010                 2.1863
 IR Inten    --     18.8865                 2.3290                14.6026

                     85                     86                     87
                      A                      A                      A
 Frequencies --   1501.3620              1508.4222              1511.9595
 Red. masses --      1.3151                 1.2379                 1.0619
 Frc consts  --      1.7465                 1.6595                 1.4302
 IR Inten    --     18.9973                 8.2832                 1.9622

                     88                     89                     90
                      A                      A                      A
 Frequencies --   1518.9844              1522.8773              1524.2104
 Red. masses --      1.0632                 1.0677                 1.0690
 Frc consts  --      1.4454                 1.4589                 1.4632
 IR Inten    --      1.4110                 5.6554                 5.0131

                     91                     92                     93
                      A                      A                      A
 Frequencies --   1529.7556              1531.7680              1541.5245
 Red. masses --      1.1509                 1.1070                 1.1256
 Frc consts  --      1.5868                 1.5303                 1.5759
 IR Inten    --      4.2947                 7.9221                17.6374

                     94                     95                     96
                      A                      A                      A
 Frequencies --   1546.0585              1548.7289              1556.8262
 Red. masses --      2.0483                 1.0563                 1.2104
 Frc consts  --      2.8846                 1.4928                 1.7285
 IR Inten    --     68.6083                10.1670                 2.1265

                     97                     98                     99
                      A                      A                      A
 Frequencies --   1645.9270              1660.9845              2957.9219
 Red. masses --      6.0976                 5.7532                 1.0604
 Frc consts  --      9.7326                 9.3517                 5.4663
 IR Inten    --      7.3906                30.0026                87.7167

                    100                    101                    102
                      A                      A                      A
 Frequencies --   3025.1046              3036.4482              3042.7916
 Red. masses --      1.0745                 1.0843                 1.0777
 Frc consts  --      5.7934                 5.8899                 5.8786
 IR Inten    --     24.6246                29.9972                 5.9324

                    103                    104                    105
                      A                      A                      A
 Frequencies --   3052.6977              3058.8315              3063.9083
 Red. masses --      1.0741                 1.0353                 1.0363
 Frc consts  --      5.8972                 5.7072                 5.7315
 IR Inten    --     57.6704                13.4504                17.3091

                    106                    107                    108
                      A                      A                      A
 Frequencies --   3070.4283              3096.0877              3114.9824
 Red. masses --      1.0716                 1.0950                 1.1031
 Frc consts  --      5.9525                 6.1845                 6.3064
 IR Inten    --     47.2429                21.7166                38.7060

                    109                    110                    111
                      A                      A                      A
 Frequencies --   3127.7601              3135.1554              3140.0838
 Red. masses --      1.1024                 1.1019                 1.1013
 Frc consts  --      6.3539                 6.3813                 6.3977
 IR Inten    --      1.1434                60.8640                25.7947

                    112                    113                    114
                      A                      A                      A
 Frequencies --   3140.3500              3145.4995              3146.0603
 Red. masses --      1.0833                 1.0837                 1.0711
 Frc consts  --      6.2943                 6.3172                 6.2459
 IR Inten    --     10.1475                32.2360                 8.8216

                    115                    116                    117
                      A                      A                      A
 Frequencies --   3150.7134              3154.4104              3184.6645
 Red. masses --      1.0746                 1.0809                 1.0850
 Frc consts  --      6.2853                 6.3368                 6.4835
 IR Inten    --      6.1798                34.1681                 0.2199

                    118                    119                    120
                      A                      A                      A
 Frequencies --   3193.5795              3209.6161              3222.3222
 Red. masses --      1.0899                 1.0957                 1.1164
 Frc consts  --      6.5490                 6.6501                 6.8296
 IR Inten    --     19.8381                31.6055                19.2894

                    121                    122                    123
                      A                      A                      A
 Frequencies --   3230.8391              3256.9245              3476.3858
 Red. masses --      1.0916                 1.1082                 1.0735
 Frc consts  --      6.7136                 6.9260                 7.6435
 IR Inten    --     13.6627                 4.8169                 1.5540

 - Thermochemistry -
 -------------------
 Temperature   298.150 Kelvin.  Pressure   1.00000 Atm.
 Atom     1 has atomic number  6 and mass  12.00000

 Molecular mass:   247.19361 amu.
 Principal axes and moments of inertia in atomic units:
                           1         2         3
     Eigenvalues --  3475.821295897.750387860.57699
           X            0.99964   0.02680  -0.00053
           Y           -0.02679   0.99963   0.00377
           Z            0.00063  -0.00375   0.99999
 This molecule is an asymmetric top.
 Rotational symmetry number  1.
 Warning -- assumption of classical behavior for rotation
           may cause significant error
 Rotational temperatures (Kelvin)      0.02492     0.01469     0.01102
 Rotational constants (GHZ):           0.51923     0.30601     0.22959
 Zero-point vibrational energy    1012475.2 (Joules/Mol)
                                  241.98739 (Kcal/Mol)
 Warning -- explicit consideration of  29 degrees of freedom as
           vibrations may cause significant error
 Vibrational temperatures:     19.64    62.47    83.99    96.68   104.70
          (Kelvin)            123.46   151.54   177.90   237.70   262.31
                              303.84   313.83   325.40   361.58   385.37
                              395.22   426.25   452.84   496.07   511.36
                              568.04   623.92   654.83   690.92   713.41
                              748.01   766.59   791.07   864.09   893.88
                             1016.95  1058.64  1097.91  1101.78  1155.44
                             1165.28  1174.49  1218.81  1230.16  1252.37
                             1265.10  1333.38  1346.09  1366.95  1386.77
                             1388.54  1394.67  1400.81  1424.69  1453.19
                             1520.99  1535.95  1541.41  1568.58  1569.98
                             1623.52  1633.58  1662.51  1675.40  1685.37
                             1689.77  1704.44  1718.69  1725.77  1744.40
                             1749.53  1753.89  1757.30  1817.87  1838.72
                             1845.87  1913.29  1935.85  1954.33  1975.66
                             1996.41  2012.45  2018.19  2024.87  2062.30
                             2077.35  2082.64  2133.35  2159.39  2160.13
                             2170.28  2175.37  2185.48  2191.08  2193.00
                             2200.98  2203.87  2217.91  2224.43  2228.28
                             2239.93  2368.12  2389.79  4255.79  4352.45
                             4368.77  4377.90  4392.15  4400.98  4408.28
                             4417.66  4454.58  4481.76  4500.15  4510.79
                             4517.88  4518.26  4525.67  4526.48  4533.17
                             4538.49  4582.02  4594.85  4617.92  4636.20
                             4648.46  4685.99  5001.74

 Zero-point correction=                           0.385631 (Hartree/Particle)
 Thermal correction to Energy=                    0.404594
 Thermal correction to Enthalpy=                  0.405538
 Thermal correction to Gibbs Free Energy=         0.337466
 Sum of electronic and zero-point Energies=           -754.383362
 Sum of electronic and thermal Energies=              -754.364399
 Sum of electronic and thermal Enthalpies=            -754.363455
 Sum of electronic and thermal Free Energies=         -754.431527

                     E (Thermal)             CV                S
                      KCal/Mol        Cal/Mol-Kelvin    Cal/Mol-Kelvin
 Total                  253.886             72.822            143.269
 Electronic               0.000              0.000              0.000
 Translational            0.889              2.981             42.416
 Rotational               0.889              2.981             33.443
 Vibrational            252.109             66.861             67.410
 Vibration     1          0.593              1.986              7.393
 Vibration     2          0.595              1.980              5.097
 Vibration     3          0.596              1.974              4.511
 Vibration     4          0.598              1.970              4.234
 Vibration     5          0.599              1.967              4.077
 Vibration     6          0.601              1.959              3.753
 Vibration     7          0.605              1.945              3.353
 Vibration     8          0.610              1.929              3.043
 Vibration     9          0.624              1.885              2.489
 Vibration    10          0.630              1.864              2.305
 Vibration    11          0.643              1.824              2.033
 Vibration    12          0.646              1.813              1.975
 Vibration    13          0.650              1.801              1.909
 Vibration    14          0.663              1.761              1.721
 Vibration    15          0.673              1.732              1.610
 Vibration    16          0.677              1.720              1.567
 Vibration    17          0.690              1.681              1.438
 Vibration    18          0.702              1.646              1.337
 Vibration    19          0.723              1.586              1.190
 Vibration    20          0.731              1.564              1.142
 Vibration    21          0.762              1.481              0.982
 Vibration    22          0.794              1.397              0.847
 Vibration    23          0.813              1.350              0.780
 Vibration    24          0.837              1.294              0.709
 Vibration    25          0.851              1.259              0.669
 Vibration    26          0.875              1.206              0.610
 Vibration    27          0.888              1.177              0.581
 Vibration    28          0.905              1.140              0.545
 Vibration    29          0.959              1.031              0.449

 Optimization completed.
    -- Stationary point found.
 Normal termination of Gaussian 16 at Fri Dec 11 22:02:56 2020.

 ----------------------------------------------------------------------
 # B3LYP/6-311++G(d,p) empiricaldispersion=gd3bj scf=xqc pop=npa geom=c
 heck
 ----------------------------------------------------------------------

 --------------------------------------
 CID_80424800_JID_8695_Energie_neutraal
 --------------------------------------
 Structure from the checkpoint file:  "JID_8695.chk"
 Charge =  0 Multiplicity = 1

 SCF Done:  E(RB3LYP) =  -754.975851236     A.U. after   15 cycles
 Normal termination of Gaussian 16 at Fri Dec 11 22:13:36 2020.

 ----------------------------------------------------------------------
 # B3LYP/6-311++G(d,p) empiricaldispersion=gd3bj scf=xqc pop=npa geom=c
 heck
 ----------------------------------------------------------------------

 ------------------------------------
 CID_80424800_JID_8695_Energie_kation
 ------------------------------------
 Structure from the checkpoint file:  "JID_8695.chk"
 Charge =  1 Multiplicity = 2

 SCF Done:  E(UB3LYP) =  -754.700756380     A.U. after   24 cycles
 Normal termination of Gaussian 16 at Fri Dec 11 22:38:00 2020.
 Gaussian 16:  ES64L-G16RevA.03 25-Dec-2016

 ----------------------------------------------------------------------
 # B3LYP/6-311++G(d,p) empiricaldispersion=gd3bj scf=xqc pop=npa geom=c
 heck
 ----------------------------------------------------------------------

 -----------------------------------
 CID_80424800_JID_8695_Energie_anion
 -----------------------------------
 Structure from the checkpoint file:  "JID_8695.chk"
 Charge = -1 Multiplicity = 2

                         Standard orientation:
 ---------------------------------------------------------------------
 Center     Atomic      Atomic             Coordinates (Angstroms)
 Number     Number       Type             X           Y           Z
 ---------------------------------------------------------------------
      1          6           0       -3.579755   -2.223480   -0.689518
      2          6           0       -3.182323   -1.011815    0.142474
      3          6           0       -2.889258   -1.375237    1.597187
      4          8           0       -2.014501   -0.476303   -0.500801
      5          6           0       -1.583366    0.795401   -0.224987
      6          6           0       -2.288482    1.699584    0.577894
      7          6           0       -1.789884    2.986104    0.786225
      8          6           0       -0.590445    3.376506    0.198866
      9          6           0        0.104749    2.466819   -0.598969
     10          6           0       -0.363383    1.170472   -0.826044
     11          6           0        0.399695    0.206176   -1.713684
     12          6           0        1.916477    0.160537   -1.452351
     13          6           0        2.385414   -0.117344   -0.013388
     14          6           0        2.121647   -1.523069    0.536053
     15          6           0        0.773109   -2.192953    0.625663
     16          6           0        1.817994   -2.727250   -0.325547
     17          7           0        3.822267    0.217531    0.033277
     18          6           0        4.358259    0.447423    1.367938
     19          1           0       -2.773849   -2.965120   -0.685223
     20          1           0       -3.774945   -1.930859   -1.725343
     21          1           0       -4.482207   -2.688175   -0.278884
     22          1           0       -3.985676   -0.264846    0.092157
     23          1           0       -2.133981   -2.166351    1.640847
     24          1           0       -2.515166   -0.515734    2.159693
     25          1           0       -3.799639   -1.738009    2.087122
     26          1           0       -3.224067    1.413553    1.042249
     27          1           0       -2.347730    3.676927    1.412315
     28          1           0       -0.196363    4.375776    0.357547
     29          1           0        1.041608    2.770264   -1.057744
     30          1           0       -0.041744   -0.786846   -1.631718
     31          1           0        0.255206    0.503176   -2.762518
     32          1           0        2.364964   -0.578813   -2.129195
     33          1           0        2.365503    1.120171   -1.726598
     34          1           0        1.887040    0.605151    0.646158
     35          1           0        2.760486   -1.740139    1.390450
     36          1           0        0.561181   -2.765368    1.525818
     37          1           0       -0.094211   -1.695567    0.209560
     38          1           0        1.649651   -2.573374   -1.387544
     39          1           0        2.305737   -3.669806   -0.091528
     40          1           0        4.343517   -0.532658   -0.419362
     41          1           0        4.248484   -0.391328    2.079751
     42          1           0        5.425705    0.680452    1.290645
     43          1           0        3.857948    1.317988    1.807946
 ---------------------------------------------------------------------

 SCF Done:  E(UB3LYP) =  -754.961680698     A.U. after   33 cycles
 SCF Done:  E(UB3LYP) =  -754.961680698     a.u. after    1 cycles

 The electronic state is 2-A.
 Alpha  occ. eigenvalues --  -19.05832 -14.20636 -10.14473 -10.14116 -10.10714
 Alpha  occ. eigenvalues --  -10.09777 -10.08997 -10.08595 -10.08416 -10.08242
 Alpha  occ. eigenvalues --  -10.08164 -10.08125 -10.08044 -10.07730 -10.07640
 Alpha  occ. eigenvalues --  -10.07177 -10.07167 -10.06889  -0.97468  -0.81807
 Alpha  occ. eigenvalues --   -0.76988  -0.75895  -0.70838  -0.69948  -0.65429
 Alpha  occ. eigenvalues --   -0.64499  -0.60634  -0.60255  -0.55488  -0.54589
 Alpha  occ. eigenvalues --   -0.53462  -0.50635  -0.49527  -0.48371  -0.46511
 Alpha  occ. eigenvalues --   -0.44565  -0.41837  -0.39856  -0.39135  -0.38640
 Alpha  occ. eigenvalues --   -0.37549  -0.36766  -0.36063  -0.35587  -0.34290
 Alpha  occ. eigenvalues --   -0.33361  -0.32739  -0.32084  -0.30839  -0.30463
 Alpha  occ. eigenvalues --   -0.30259  -0.29419  -0.29223  -0.28284  -0.27430
 Alpha  occ. eigenvalues --   -0.27179  -0.26969  -0.26743  -0.25355  -0.24911
 Alpha  occ. eigenvalues --   -0.23424  -0.22768  -0.22511  -0.20550  -0.19361
 Alpha  occ. eigenvalues --   -0.16066  -0.13600  -0.13327   0.04072
 Alpha virt. eigenvalues --    0.05539   0.06154   0.06479   0.07269   0.07526
 Alpha virt. eigenvalues --    0.07701   0.08250   0.08572   0.08895   0.09068
 Alpha virt. eigenvalues --    0.09834   0.09974   0.10536   0.10691   0.11104

  Beta  occ. eigenvalues --  -19.05829 -14.20626 -10.14472 -10.14102 -10.10713
  Beta  occ. eigenvalues --  -10.09756 -10.08993 -10.08585 -10.08413 -10.08231
  Beta  occ. eigenvalues --  -10.08156 -10.08122 -10.08039 -10.07715 -10.07637
  Beta  occ. eigenvalues --  -10.07158 -10.07149 -10.06861  -0.97461  -0.81791
  Beta  occ. eigenvalues --   -0.76976  -0.75876  -0.70817  -0.69929  -0.65413
  Beta  occ. eigenvalues --   -0.64480  -0.60607  -0.60208  -0.55454  -0.54557
  Beta  occ. eigenvalues --   -0.53438  -0.50598  -0.49507  -0.48334  -0.46488
  Beta  occ. eigenvalues --   -0.44538  -0.41815  -0.39832  -0.39103  -0.38608
  Beta  occ. eigenvalues --   -0.37510  -0.36744  -0.36036  -0.35560  -0.34268
  Beta  occ. eigenvalues --   -0.33342  -0.32720  -0.32064  -0.30804  -0.30440
  Beta  occ. eigenvalues --   -0.30235  -0.29396  -0.29200  -0.28257  -0.27411
  Beta  occ. eigenvalues --   -0.27160  -0.26946  -0.26716  -0.25340  -0.24891
  Beta  occ. eigenvalues --   -0.23409  -0.22755  -0.22485  -0.20531  -0.19345
  Beta  occ. eigenvalues --   -0.16053  -0.13580  -0.13313
  Beta virt. eigenvalues --    0.05907   0.06480   0.06576   0.06716   0.07639
  Beta virt. eigenvalues --    0.07828   0.08132   0.08560   0.08837   0.08998
  Beta virt. eigenvalues --    0.09407   0.10098   0.10336   0.10709   0.10857

 Mulliken charges and spin densities:
               1          2
     1  C    0.353862  -0.943379
     2  C   -0.539750   0.637183
     3  C    0.792543  -1.269810
     4  O    0.037295  -0.015881
     5  C   -0.497875   0.538540
     6  C    0.335333  -0.577157
     7  C    0.298595  -0.749103
     8  C   -0.127927  -0.312010
     9  C   -0.286167   0.025239
    10  C    0.021709   0.716742
    11  C   -0.005999  -0.526287
    12  C   -0.144810  -0.092718
    13  C   -0.403102  -0.396998
    14  C    0.269007   0.002396
    15  C   -0.509324   0.191938
    16  C   -0.142375  -0.312646
    17  N   -0.023611   0.092120
    18  C    0.330045  -0.614357
    19  H   -0.192965   0.349095
    20  H    0.008199   0.140208
    21  H   -0.284167   0.442465
    22  H   -0.386187   0.540719
    23  H   -0.016314   0.172601
    24  H    0.065304   0.069071
    25  H   -0.527767   0.693949
    26  H   -0.232115   0.428678
    27  H   -0.302657   0.468579
    28  H   -0.009563   0.165030
    29  H    0.041039   0.097738
    30  H    0.305385  -0.144303
    31  H    0.060576   0.126067
    32  H    0.099894   0.054272
    33  H    0.265614  -0.083724
    34  H    0.248080  -0.105739
    35  H    0.007963   0.254704
    36  H   -0.150803   0.329013
    37  H    0.811593  -0.852323
    38  H    0.037787   0.095119
    39  H   -0.395312   0.560165
    40  H    0.083291   0.142005
    41  H   -0.170549   0.269249
    42  H   -0.104879   0.239310
    43  H   -0.018895   0.154244
 Sum of Mulliken charges =  -1.00000   1.00000

 Dipole moment (field-independent basis, Debye):
    X=              3.4564    Y=              2.7344    Z=             -3.6773  Tot=              5.7399
 Quadrupole moment (field-independent basis, Debye-Ang):
   XX=           -209.9296   YY=           -171.3258   ZZ=           -149.4746
   XY=             -0.9394   XZ=              2.9659   YZ=              3.2828

 Summary of Natural Population Analysis:

                                       Natural Population
                Natural  -----------------------------------------------
    Atom  No    Charge         Core      Valence    Rydberg      Total
 -----------------------------------------------------------------------
      C    1   -0.28761      0.99964     2.28180    0.00618     3.28761
      C    2    0.06336      0.99956     1.92410    0.01298     2.93664
      C    3   -0.29877      0.99963     2.29331    0.00583     3.29877
      O    4   -0.28816      0.99985     3.27743    0.01088     4.28816
      C    5    0.16582      0.99933     1.82200    0.01286     2.83418
      C    6   -0.13863      0.99952     2.13027    0.00884     3.13863
      C    7   -0.09519      0.99957     2.08541    0.01021     3.09519
      C    8   -0.11575      0.99956     2.10680    0.00939     3.11575
      C    9   -0.09674      0.99952     2.08941    0.00781     3.09674
      C   10   -0.03291      0.99948     2.02384    0.00960     3.03291
      C   11   -0.20207      0.99959     2.19399    0.00849     3.20207
      C   12   -0.18789      0.99961     2.17968    0.00861     3.18789
      C   13   -0.01374      0.99956     2.00107    0.01311     3.01374
      C   14   -0.12312      0.99958     2.11145    0.01209     3.12312
      C   15   -0.20211      0.99960     2.19301    0.00949     3.20211
      C   16   -0.20110      0.99962     2.19355    0.00792     3.20110
      N   17   -0.33801      0.99975     2.82709    0.01116     3.83801
      C   18   -0.17639      0.99966     2.16996    0.00677     3.17639
      H   19    0.10079      0.00000     0.39796    0.00126     0.39921
      H   20    0.10253      0.00000     0.39651    0.00096     0.39747
      H   21    0.10390      0.00000     0.39495    0.00115     0.39610
      H   22    0.08463      0.00000     0.41255    0.00281     0.41537
      H   23    0.10157      0.00000     0.39709    0.00134     0.39843
      H   24    0.10455      0.00000     0.39402    0.00143     0.39545
      H   25    0.10531      0.00000     0.39317    0.00152     0.39469
      H   26    0.10701      0.00000     0.39106    0.00193     0.39299
      H   27    0.10111      0.00000     0.39793    0.00096     0.39889
      H   28    0.09957      0.00000     0.39965    0.00078     0.40043
      H   29    0.09983      0.00000     0.39856    0.00161     0.40017
      H   30    0.11037      0.00000     0.38779    0.00183     0.38963
      H   31    0.10348      0.00000     0.39558    0.00094     0.39652
      H   32    0.09745      0.00000     0.40154    0.00101     0.40255
      H   33    0.10289      0.00000     0.39558    0.00153     0.39711
      H   34    0.09707      0.00000     0.40040    0.00253     0.40293
      H   35    0.10367      0.00000     0.39486    0.00147     0.39633
      H   36    0.10027      0.00000     0.39862    0.00110     0.39973
      H   37    0.10933      0.00000     0.38827    0.00240     0.39067
      H   38    0.09929      0.00000     0.39971    0.00100     0.40071
      H   39    0.10223      0.00000     0.39665    0.00112     0.39777
      H   40    0.16928      0.00000     0.32793    0.00279     0.33072
      H   41    0.07859      0.00000     0.41941    0.00199     0.42141
      H   42    0.09295      0.00000     0.40604    0.00101     0.40705
      H   43    0.09132      0.00000     0.40742    0.00126     0.40868
 =======================================================================
   * Total *    0.00000     17.99262    49.79744    0.20994    68.00000

 Normal termination of Gaussian 16 at Fri Dec 11 23:11:18 2020.
