 Gaussian 16, Revision A.03,

 -----------------------------------------------------------
 # opt freq B3LYP/6-31G(d) empiricaldispersion=gd3bj scf=xqc
 -----------------------------------------------------------

 --------------------------------
 CID_102456280_JID_10456_neutraal
 --------------------------------
 Symbolic Z-matrix:
 Charge =  0 Multiplicity = 1

 SCF Done:  E(RB3LYP) =  -897.799901648     A.U. after   15 cycles
 SCF Done:  E(RB3LYP) =  -897.808667395     A.U. after   13 cycles
 SCF Done:  E(RB3LYP) =  -897.808808219     A.U. after   12 cycles
 SCF Done:  E(RB3LYP) =  -897.813685792     A.U. after   13 cycles
 SCF Done:  E(RB3LYP) =  -897.814560772     A.U. after   12 cycles
 SCF Done:  E(RB3LYP) =  -897.815018751     A.U. after   12 cycles
 SCF Done:  E(RB3LYP) =  -897.815203095     A.U. after   12 cycles
 SCF Done:  E(RB3LYP) =  -897.815253688     A.U. after   11 cycles
 SCF Done:  E(RB3LYP) =  -897.815276638     A.U. after   10 cycles
 SCF Done:  E(RB3LYP) =  -897.815295929     A.U. after   10 cycles
 SCF Done:  E(RB3LYP) =  -897.815320520     A.U. after    9 cycles
 SCF Done:  E(RB3LYP) =  -897.815320956     A.U. after    8 cycles
 SCF Done:  E(RB3LYP) =  -897.815321124     A.U. after    7 cycles
 SCF Done:  E(RB3LYP) =  -897.815321202     A.U. after    6 cycles
 SCF Done:  E(RB3LYP) =  -897.815321236     A.U. after    6 cycles
 SCF Done:  E(RB3LYP) =  -897.815321257     A.U. after    6 cycles
 Optimization completed.
    -- Stationary point found.
 Normal termination of Gaussian 16 at Sun Dec 13 13:02:37 2020.

 --------------------------------------------------------------------
 #N Geom=AllCheck Guess=TCheck SCRF=Check GenChk RB3LYP/6-31G(d) Freq
 --------------------------------------------------------------------

 Structure from the checkpoint file:  "JID_10456.chk"
 --------------------------------
 CID_102456280_JID_10456_neutraal
 --------------------------------
 Charge =  0 Multiplicity = 1

 SCF Done:  E(RB3LYP) =  -897.815321257     A.U. after    1 cycles

  Exact polarizability: 368.483   8.429 193.421  -4.227   4.949  92.560
 Approx polarizability: 498.398   3.074 321.164 -12.932  10.747 141.900

                      1                      2                      3
                      A                      A                      A
 Frequencies --     26.4186                28.4094                48.9343
 Red. masses --      4.0777                 5.7173                 3.2505
 Frc consts  --      0.0017                 0.0027                 0.0046
 IR Inten    --      2.9080                 0.0883                 1.2503

                      4                      5                      6
                      A                      A                      A
 Frequencies --     59.2754                67.5093               100.8639
 Red. masses --      3.9409                 3.6081                 3.1775
 Frc consts  --      0.0082                 0.0097                 0.0190
 IR Inten    --      0.5001                 1.1517                 5.2608

                      7                      8                      9
                      A                      A                      A
 Frequencies --    113.4235               153.4584               158.7518
 Red. masses --      3.5658                 2.6434                 2.5232
 Frc consts  --      0.0270                 0.0367                 0.0375
 IR Inten    --      4.5088                 1.6882                 0.6493

                     10                     11                     12
                      A                      A                      A
 Frequencies --    166.7781               171.9664               174.8811
 Red. masses --      2.1887                 3.7421                 3.0964
 Frc consts  --      0.0359                 0.0652                 0.0558
 IR Inten    --      1.5799                 1.0106                 1.7572

                     13                     14                     15
                      A                      A                      A
 Frequencies --    205.6217               220.8805               227.6360
 Red. masses --      1.1862                 1.3115                 3.7120
 Frc consts  --      0.0295                 0.0377                 0.1133
 IR Inten    --      0.0281                 0.1978                 1.0661

                     16                     17                     18
                      A                      A                      A
 Frequencies --    256.9470               278.9215               306.6126
 Red. masses --      4.4220                 2.6475                 3.4572
 Frc consts  --      0.1720                 0.1214                 0.1915
 IR Inten    --      2.6746                 6.3271                 1.3822

                     19                     20                     21
                      A                      A                      A
 Frequencies --    318.5474               333.5452               370.5415
 Red. masses --      2.8653                 4.3192                 2.9835
 Frc consts  --      0.1713                 0.2831                 0.2414
 IR Inten    --      2.1016                15.3081                 0.0380

                     22                     23                     24
                      A                      A                      A
 Frequencies --    416.3666               448.8928               479.4809
 Red. masses --      3.0423                 3.5410                 2.6603
 Frc consts  --      0.3107                 0.4204                 0.3603
 IR Inten    --      0.4041                 2.8557                 3.1808

                     25                     26                     27
                      A                      A                      A
 Frequencies --    493.6606               498.9301               548.8082
 Red. masses --      3.8754                 3.6497                 4.2723
 Frc consts  --      0.5565                 0.5353                 0.7582
 IR Inten    --      0.6451                14.0377                46.0468

                     28                     29                     30
                      A                      A                      A
 Frequencies --    559.7711               596.7299               616.1834
 Red. masses --      3.6635                 4.6765                 3.7196
 Frc consts  --      0.6763                 0.9811                 0.8321
 IR Inten    --      9.0012                 5.7645                 2.6614

                     31                     32                     33
                      A                      A                      A
 Frequencies --    638.1791               662.1306               676.7098
 Red. masses --      4.8109                 1.2099                 3.3088
 Frc consts  --      1.1544                 0.3125                 0.8927
 IR Inten    --     24.2966               101.4290                49.4060

                     34                     35                     36
                      A                      A                      A
 Frequencies --    703.9623               713.3837               731.2385
 Red. masses --      2.2170                 6.1262                 5.4250
 Frc consts  --      0.6473                 1.8369                 1.7091
 IR Inten    --      4.1316                17.0946                 2.7460

                     37                     38                     39
                      A                      A                      A
 Frequencies --    774.3448               798.6004               802.4882
 Red. masses --      7.6588                 4.6971                 1.4656
 Frc consts  --      2.7057                 1.7650                 0.5561
 IR Inten    --      6.8338                 3.5390                29.4200

                     40                     41                     42
                      A                      A                      A
 Frequencies --    856.6669               879.8959               890.1627
 Red. masses --      1.6500                 2.5919                 4.4912
 Frc consts  --      0.7134                 1.1823                 2.0968
 IR Inten    --     18.1648                 1.4667                14.7608

                     43                     44                     45
                      A                      A                      A
 Frequencies --    899.8309               936.3217               964.3418
 Red. masses --      1.3551                 2.6305                 1.4527
 Frc consts  --      0.6465                 1.3587                 0.7960
 IR Inten    --      0.5908                31.2391                 7.8720

                     46                     47                     48
                      A                      A                      A
 Frequencies --    984.6296               997.7475              1017.5101
 Red. masses --      1.2820                 3.2453                 4.4050
 Frc consts  --      0.7323                 1.9035                 2.6871
 IR Inten    --      2.1147                 4.7702                26.2094

                     49                     50                     51
                      A                      A                      A
 Frequencies --   1032.7083              1047.4038              1072.3782
 Red. masses --      1.9441                 3.0663                 1.5488
 Frc consts  --      1.2216                 1.9820                 1.0494
 IR Inten    --     18.6736                 4.8667                 3.4763

                     52                     53                     54
                      A                      A                      A
 Frequencies --   1074.3838              1093.1922              1094.5921
 Red. masses --      2.7475                 1.5246                 2.4488
 Frc consts  --      1.8686                 1.0735                 1.7286
 IR Inten    --     33.9898                18.4432                37.4392

                     55                     56                     57
                      A                      A                      A
 Frequencies --   1140.3822              1144.2742              1153.1015
 Red. masses --      1.7500                 3.7662                 1.2349
 Frc consts  --      1.3409                 2.9054                 0.9674
 IR Inten    --      5.8587                83.7636                 0.6896

                     58                     59                     60
                      A                      A                      A
 Frequencies --   1158.0759              1173.2557              1204.0064
 Red. masses --      1.3569                 3.8255                 1.4569
 Frc consts  --      1.0722                 3.1026                 1.2443
 IR Inten    --     44.3889                84.2535                16.1985

                     61                     62                     63
                      A                      A                      A
 Frequencies --   1224.5058              1253.7782              1260.3473
 Red. masses --      1.1668                 1.6552                 1.2884
 Frc consts  --      1.0308                 1.5330                 1.2058
 IR Inten    --      2.2477                51.1744                29.8144

                     64                     65                     66
                      A                      A                      A
 Frequencies --   1290.0270              1294.9125              1339.5652
 Red. masses --      2.4444                 3.3837                 1.8089
 Frc consts  --      2.3967                 3.3429                 1.9124
 IR Inten    --     81.5694                 7.8949                94.5126

                     67                     68                     69
                      A                      A                      A
 Frequencies --   1368.8063              1380.9895              1394.6670
 Red. masses --      2.4261                 2.3597                 2.8914
 Frc consts  --      2.6782                 2.6515                 3.3136
 IR Inten    --     47.4792                42.9196               144.2939

                     70                     71                     72
                      A                      A                      A
 Frequencies --   1400.6290              1413.8610              1417.3763
 Red. masses --      1.4154                 2.0216                 1.9131
 Frc consts  --      1.6360                 2.3810                 2.2644
 IR Inten    --     46.2476               126.9175                23.2486

                     73                     74                     75
                      A                      A                      A
 Frequencies --   1421.4302              1446.3382              1471.8981
 Red. masses --      1.2968                 1.9477                 1.2188
 Frc consts  --      1.5438                 2.4006                 1.5558
 IR Inten    --     25.2723               194.7309                 3.7402

                     76                     77                     78
                      A                      A                      A
 Frequencies --   1488.7973              1501.2679              1506.0824
 Red. masses --      2.3849                 1.0820                 1.1322
 Frc consts  --      3.1145                 1.4368                 1.5131
 IR Inten    --     27.0859                18.7581                33.2147

                     79                     80                     81
                      A                      A                      A
 Frequencies --   1507.6425              1512.7355              1516.2435
 Red. masses --      1.1476                 1.0529                 1.2616
 Frc consts  --      1.5368                 1.4196                 1.7089
 IR Inten    --    121.1169                 3.9086                 6.1461

                     82                     83                     84
                      A                      A                      A
 Frequencies --   1517.8429              1520.1632              1530.0498
 Red. masses --      1.1084                 1.1030                 1.0917
 Frc consts  --      1.5045                 1.5018                 1.5057
 IR Inten    --     10.0455                13.3967                 1.8137

                     85                     86                     87
                      A                      A                      A
 Frequencies --   1543.1521              1554.3633              1561.0909
 Red. masses --      1.1338                 1.9427                 1.1209
 Frc consts  --      1.5907                 2.7654                 1.6095
 IR Inten    --      9.5464                19.6725               132.0219

                     88                     89                     90
                      A                      A                      A
 Frequencies --   1620.4152              1638.1164              1661.4538
 Red. masses --      5.1817                 5.5832                 5.1656
 Frc consts  --      8.0164                 8.8272                 8.4013
 IR Inten    --      6.3132               128.6748               131.8523

                     91                     92                     93
                      A                      A                      A
 Frequencies --   1713.9737              1772.8593              2979.7425
 Red. masses --      8.7319                10.7380                 1.0716
 Frc consts  --     15.1135                19.8848                 5.6061
 IR Inten    --    528.7916               267.5061                60.4330

                     94                     95                     96
                      A                      A                      A
 Frequencies --   2992.4200              3000.6812              3051.9958
 Red. masses --      1.0520                 1.0563                 1.0399
 Frc consts  --      5.5505                 5.6035                 5.7072
 IR Inten    --     71.9754                91.8833                17.7716

                     97                     98                     99
                      A                      A                      A
 Frequencies --   3064.5586              3076.2047              3077.8604
 Red. masses --      1.0654                 1.0859                 1.0875
 Frc consts  --      5.8950                 6.0545                 6.0697
 IR Inten    --     18.8099                22.3450                50.1516

                    100                    101                    102
                      A                      A                      A
 Frequencies --   3083.7400              3104.5057              3132.3580
 Red. masses --      1.0920                 1.1006                 1.0989
 Frc consts  --      6.1182                 6.2497                 6.3528
 IR Inten    --     89.3033                 9.4621                20.1526

                    103                    104                    105
                      A                      A                      A
 Frequencies --   3141.9097              3153.4047              3172.6731
 Red. masses --      1.0986                 1.0959                 1.0988
 Frc consts  --      6.3895                 6.4205                 6.5165
 IR Inten    --      2.3698                54.6626                 4.1654

                    106                    107                    108
                      A                      A                      A
 Frequencies --   3173.7819              3189.2845              3225.9784
 Red. masses --      1.0875                 1.0891                 1.0884
 Frc consts  --      6.4540                 6.5267                 6.6738
 IR Inten    --      2.5687                19.5748                 9.1237

                    109                    110                    111
                      A                      A                      A
 Frequencies --   3233.9857              3252.4938              3563.3497
 Red. masses --      1.0904                 1.0931                 1.0660
 Frc consts  --      6.7191                 6.8129                 7.9746
 IR Inten    --     16.3391                11.1888               538.6247

 - Thermochemistry -
 -------------------
 Temperature   298.150 Kelvin.  Pressure   1.00000 Atm.
 Atom     1 has atomic number  6 and mass  12.00000

 Molecular mass:   273.14773 amu.
 Principal axes and moments of inertia in atomic units:
                           1         2         3
     Eigenvalues --  2233.95805********************
           X            0.99991   0.01319   0.00193
           Y           -0.01319   0.99991   0.00138
           Z           -0.00191  -0.00140   1.00000
 This molecule is an asymmetric top.
 Rotational symmetry number  1.
 Warning -- assumption of classical behavior for rotation
           may cause significant error
 Rotational temperatures (Kelvin)      0.03877     0.00639     0.00554
 Rotational constants (GHZ):           0.80787     0.13307     0.11536
 Zero-point vibrational energy     858206.7 (Joules/Mol)
                                  205.11632 (Kcal/Mol)
 Warning -- explicit consideration of  30 degrees of freedom as
           vibrations may cause significant error
 Vibrational temperatures:     38.01    40.87    70.41    85.28    97.13
          (Kelvin)            145.12   163.19   220.79   228.41   239.96
                              247.42   251.61   295.84   317.80   327.52
                              369.69   401.31   441.15   458.32   479.90
                              533.13   599.06   645.86   689.87   710.27
                              717.85   789.61   805.39   858.56   886.55
                              918.20   952.66   973.63  1012.84  1026.40
                             1052.09  1114.11  1149.01  1154.60  1232.55
                             1265.97  1280.75  1294.66  1347.16  1387.47
                             1416.66  1435.54  1463.97  1485.84  1506.98
                             1542.91  1545.80  1572.86  1574.87  1640.76
                             1646.36  1659.06  1666.21  1688.05  1732.30
                             1761.79  1803.91  1813.36  1856.06  1863.09
                             1927.34  1969.41  1986.94  2006.61  2015.19
                             2034.23  2039.29  2045.12  2080.96  2117.73
                             2142.05  2159.99  2166.92  2169.16  2176.49
                             2181.54  2183.84  2187.18  2201.40  2220.25
                             2236.38  2246.06  2331.42  2356.88  2390.46
                             2466.03  2550.75  4287.18  4305.42  4317.31
                             4391.14  4409.22  4425.97  4428.35  4436.81
                             4466.69  4506.76  4520.51  4537.05  4564.77
                             4566.36  4588.67  4641.46  4652.98  4679.61
                             5126.87

 Zero-point correction=                           0.326874 (Hartree/Particle)
 Thermal correction to Energy=                    0.346320
 Thermal correction to Enthalpy=                  0.347265
 Thermal correction to Gibbs Free Energy=         0.277563
 Sum of electronic and zero-point Energies=           -897.488448
 Sum of electronic and thermal Energies=              -897.469001
 Sum of electronic and thermal Enthalpies=            -897.468057
 Sum of electronic and thermal Free Energies=         -897.537759

                     E (Thermal)             CV                S
                      KCal/Mol        Cal/Mol-Kelvin    Cal/Mol-Kelvin
 Total                  217.319             72.795            146.700
 Electronic               0.000              0.000              0.000
 Translational            0.889              2.981             42.713
 Rotational               0.889              2.981             34.515
 Vibrational            215.542             66.833             69.471
 Vibration     1          0.593              1.985              6.082
 Vibration     2          0.593              1.984              5.937
 Vibration     3          0.595              1.978              4.860
 Vibration     4          0.597              1.974              4.481
 Vibration     5          0.598              1.970              4.225
 Vibration     6          0.604              1.948              3.438
 Vibration     7          0.607              1.938              3.209
 Vibration     8          0.619              1.899              2.629
 Vibration     9          0.621              1.893              2.565
 Vibration    10          0.624              1.883              2.471
 Vibration    11          0.626              1.877              2.414
 Vibration    12          0.627              1.873              2.382
 Vibration    13          0.640              1.832              2.082
 Vibration    14          0.648              1.809              1.952
 Vibration    15          0.651              1.799              1.898
 Vibration    16          0.667              1.751              1.682
 Vibration    17          0.679              1.713              1.540
 Vibration    18          0.697              1.661              1.381
 Vibration    19          0.705              1.638              1.318
 Vibration    20          0.715              1.609              1.243
 Vibration    21          0.743              1.533              1.078
 Vibration    22          0.780              1.435              0.904
 Vibration    23          0.808              1.363              0.799
 Vibration    24          0.836              1.296              0.711
 Vibration    25          0.849              1.264              0.674
 Vibration    26          0.854              1.252              0.661
 Vibration    27          0.904              1.142              0.547
 Vibration    28          0.915              1.118              0.524
 Vibration    29          0.955              1.039              0.455
 Vibration    30          0.976              0.998              0.423

 Optimization completed.
    -- Stationary point found.
 Normal termination of Gaussian 16 at Sun Dec 13 13:18:11 2020.

 ----------------------------------------------------------------------
 # B3LYP/6-311++G(d,p) empiricaldispersion=gd3bj scf=xqc pop=npa geom=c
 heck
 ----------------------------------------------------------------------

 ----------------------------------------
 CID_102456280_JID_10456_Energie_neutraal
 ----------------------------------------
 Structure from the checkpoint file:  "JID_10456.chk"
 Charge =  0 Multiplicity = 1

 SCF Done:  E(RB3LYP) =  -898.064710034     A.U. after   16 cycles
 Normal termination of Gaussian 16 at Sun Dec 13 13:24:59 2020.

 ----------------------------------------------------------------------
 # B3LYP/6-311++G(d,p) empiricaldispersion=gd3bj scf=xqc pop=npa geom=c
 heck
 ----------------------------------------------------------------------

 --------------------------------------
 CID_102456280_JID_10456_Energie_kation
 --------------------------------------
 Structure from the checkpoint file:  "JID_10456.chk"
 Charge =  1 Multiplicity = 2

 SCF Done:  E(UB3LYP) =  -897.804476585     A.U. after   26 cycles
 Normal termination of Gaussian 16 at Sun Dec 13 13:40:40 2020.
 Gaussian 16:  ES64L-G16RevA.03 25-Dec-2016

 ----------------------------------------------------------------------
 # B3LYP/6-311++G(d,p) empiricaldispersion=gd3bj scf=xqc pop=npa geom=c
 heck
 ----------------------------------------------------------------------

 -------------------------------------
 CID_102456280_JID_10456_Energie_anion
 -------------------------------------
 Structure from the checkpoint file:  "JID_10456.chk"
 Charge = -1 Multiplicity = 2

                         Standard orientation:
 ---------------------------------------------------------------------
 Center     Atomic      Atomic             Coordinates (Angstroms)
 Number     Number       Type             X           Y           Z
 ---------------------------------------------------------------------
      1          6           0        3.551512    2.782884   -0.072455
      2          6           0        2.740004    1.533215   -0.102168
      3          7           0        1.441535    1.512214   -0.050744
      4          6           0        1.071726    0.160089   -0.106383
      5          6           0       -0.169515   -0.386103   -0.078603
      6          6           0       -1.465423    0.258942    0.014840
      7          6           0       -2.599495   -0.572918    0.021030
      8          6           0       -3.903504   -0.051650    0.112394
      9          6           0       -4.035064    1.353475    0.172380
     10          6           0       -2.909905    2.176911    0.166646
     11          6           0       -1.624439    1.656668    0.091512
     12          7           0       -5.015132   -0.886046    0.150152
     13          6           0       -4.846799   -2.292112   -0.169281
     14          6           0       -6.333550   -0.304189   -0.023310
     15          6           0        2.295220   -0.673755   -0.197293
     16          8           0        2.416906   -1.896767   -0.260709
     17          7           0        3.328975    0.264401   -0.183701
     18          6           0        4.753405   -0.037012   -0.336770
     19          6           0        5.286005   -1.095406    0.644096
     20          8           0        5.077891   -2.417328    0.218082
     21          1           0        4.234115    2.798589    0.785799
     22          1           0        4.157854    2.891300   -0.979706
     23          1           0        2.870263    3.631590    0.001842
     24          1           0       -0.176259   -1.473449   -0.134927
     25          1           0       -2.443240   -1.642535   -0.047561
     26          1           0       -5.015903    1.809416    0.223863
     27          1           0       -3.051028    3.253245    0.217560
     28          1           0       -0.750901    2.295263    0.084628
     29          1           0       -5.812842   -2.793662   -0.088166
     30          1           0       -4.453609   -2.456971   -1.185618
     31          1           0       -4.164900   -2.774221    0.540379
     32          1           0       -6.551872    0.413560    0.775635
     33          1           0       -6.450434    0.214429   -0.988874
     34          1           0       -7.082237   -1.096369    0.034347
     35          1           0        4.947691   -0.384573   -1.358502
     36          1           0        5.291575    0.902613   -0.191418
     37          1           0        6.371173   -0.961464    0.720992
     38          1           0        4.858524   -0.894831    1.642064
     39          1           0        4.114933   -2.507392    0.058931
 ---------------------------------------------------------------------

 SCF Done:  E(UB3LYP) =  -898.100363922     A.U. after   22 cycles

 The electronic state is 2-A.
 Alpha  occ. eigenvalues --  -18.99486 -18.94813 -14.22541 -14.22342 -14.15302
 Alpha  occ. eigenvalues --  -10.11473 -10.11219 -10.11039 -10.10732 -10.10703
 Alpha  occ. eigenvalues --  -10.09734 -10.08751 -10.06989 -10.04266 -10.03943
 Alpha  occ. eigenvalues --  -10.03608 -10.03565 -10.03096 -10.01939 -10.01004
 Alpha  occ. eigenvalues --   -0.91306  -0.89672  -0.85105  -0.84469  -0.75596
 Alpha  occ. eigenvalues --   -0.71807  -0.65676  -0.64201  -0.63674  -0.62949
 Alpha  occ. eigenvalues --   -0.61943  -0.57875  -0.54987  -0.53802  -0.50138
 Alpha  occ. eigenvalues --   -0.47174  -0.46322  -0.43579  -0.42081  -0.40427
 Alpha  occ. eigenvalues --   -0.39938  -0.37583  -0.36990  -0.36352  -0.35180
 Alpha  occ. eigenvalues --   -0.34611  -0.34109  -0.32734  -0.32514  -0.31702
 Alpha  occ. eigenvalues --   -0.31074  -0.30640  -0.30130  -0.29938  -0.28981
 Alpha  occ. eigenvalues --   -0.28503  -0.28014  -0.27331  -0.26547  -0.24818
 Alpha  occ. eigenvalues --   -0.24157  -0.22983  -0.22373  -0.20976  -0.20624
 Alpha  occ. eigenvalues --   -0.18461  -0.16535  -0.16391  -0.15635  -0.12861
 Alpha  occ. eigenvalues --   -0.10983  -0.08786  -0.07529   0.01833
 Alpha virt. eigenvalues --    0.06115   0.07065   0.08102   0.09000   0.09291
 Alpha virt. eigenvalues --    0.09861   0.10174   0.10635   0.11279   0.11625
 Alpha virt. eigenvalues --    0.11876   0.12308   0.12433   0.12777   0.12807

  Beta  occ. eigenvalues --  -18.99486 -18.94528 -14.22550 -14.22419 -14.15350
  Beta  occ. eigenvalues --  -10.11475 -10.11038 -10.10976 -10.10731 -10.10701
  Beta  occ. eigenvalues --  -10.09403 -10.08807 -10.07017 -10.04334 -10.03981
  Beta  occ. eigenvalues --  -10.03552 -10.03365 -10.02919 -10.01795 -10.00534
  Beta  occ. eigenvalues --   -0.91112  -0.89442  -0.84773  -0.84480  -0.75554
  Beta  occ. eigenvalues --   -0.71593  -0.65241  -0.64023  -0.63618  -0.62823
  Beta  occ. eigenvalues --   -0.61769  -0.57531  -0.54805  -0.53654  -0.49573
  Beta  occ. eigenvalues --   -0.47025  -0.46179  -0.43438  -0.41932  -0.40241
  Beta  occ. eigenvalues --   -0.39891  -0.37534  -0.36992  -0.36117  -0.35018
  Beta  occ. eigenvalues --   -0.34478  -0.33657  -0.32596  -0.32412  -0.31683
  Beta  occ. eigenvalues --   -0.30946  -0.30518  -0.30094  -0.29827  -0.28908
  Beta  occ. eigenvalues --   -0.28285  -0.27820  -0.26747  -0.26331  -0.24324
  Beta  occ. eigenvalues --   -0.23939  -0.22880  -0.22216  -0.20489  -0.19827
  Beta  occ. eigenvalues --   -0.17773  -0.16449  -0.16326  -0.14987  -0.12377
  Beta  occ. eigenvalues --   -0.10813  -0.08007  -0.05940
  Beta virt. eigenvalues --    0.06108   0.07050   0.07757   0.08094   0.08988
  Beta virt. eigenvalues --    0.09285   0.09862   0.10174   0.10624   0.11270
  Beta virt. eigenvalues --    0.11779   0.11880   0.12356   0.12537   0.12784

 Mulliken charges and spin densities:
               1          2
     1  C   -0.640144  -0.021685
     2  C    0.163978   0.180026
     3  N   -0.031164  -0.019626
     4  C    0.056983   0.018754
     5  C   -0.009380   0.369864
     6  C    0.782764  -0.049251
     7  C   -0.360949   0.127768
     8  C   -0.001623  -0.058848
     9  C   -0.031819   0.168836
    10  C   -0.434040  -0.045940
    11  C   -0.909385   0.122065
    12  N    0.067519   0.003807
    13  C   -0.367492  -0.000287
    14  C   -0.351528  -0.000457
    15  C   -0.344475   0.152614
    16  O   -0.442533   0.107802
    17  N   -0.037712  -0.038704
    18  C   -0.182767   0.001987
    19  C   -0.396323  -0.002734
    20  O   -0.262945   0.000788
    21  H    0.132403   0.014385
    22  H    0.136507   0.017222
    23  H    0.158863   0.000666
    24  H    0.214479  -0.024097
    25  H    0.069645  -0.006882
    26  H    0.089909  -0.012442
    27  H    0.143228   0.003485
    28  H    0.148679  -0.008910
    29  H    0.096190   0.000606
    30  H    0.148436   0.000158
    31  H    0.148589  -0.000137
    32  H    0.135038   0.002503
    33  H    0.137884  -0.002188
    34  H    0.108860  -0.000563
    35  H    0.201380   0.001153
    36  H    0.115424  -0.001040
    37  H    0.133187   0.000254
    38  H    0.145098   0.000629
    39  H    0.269237  -0.001581
 Sum of Mulliken charges =  -1.00000   1.00000

 Dipole moment (field-independent basis, Debye):
    X=             -2.9246    Y=              2.0650    Z=              0.0036  Tot=              3.5801
 Quadrupole moment (field-independent basis, Debye-Ang):
   XX=           -159.1848   YY=           -143.4691   ZZ=           -130.2235
   XY=             27.9874   XZ=              1.7494   YZ=             -0.1447

 Summary of Natural Population Analysis:

                                       Natural Population
                Natural  -----------------------------------------------
    Atom  No    Charge         Core      Valence    Rydberg      Total
 -----------------------------------------------------------------------
      C    1   -0.31235      0.99964     2.30890    0.00382     3.31235
      C    2    0.27538      0.99964     1.70927    0.01571     2.72462
      N    3   -0.28421      0.99967     2.77179    0.01275     3.78421
      C    4    0.00934      0.99950     1.97606    0.01511     2.99066
      C    5    0.05673      0.99950     1.93873    0.00504     2.94327
      C    6   -0.04647      0.99957     2.03549    0.01141     3.04647
      C    7   -0.07915      0.99944     2.07076    0.00894     3.07915
      C    8    0.07006      0.99950     1.92102    0.00942     2.92994
      C    9   -0.09896      0.99955     2.09075    0.00866     3.09896
      C   10   -0.11620      0.99958     2.10735    0.00927     3.11620
      C   11   -0.07855      0.99953     2.06983    0.00920     3.07855
      N   12   -0.25700      0.99965     2.74909    0.00826     3.75700
      C   13   -0.17457      0.99967     2.16793    0.00697     3.17457
      C   14   -0.17204      0.99966     2.16535    0.00703     3.17204
      C   15    0.35888      0.99960     1.61722    0.02430     2.64112
      O   16   -0.31979      0.99986     3.31372    0.00621     4.31979
      N   17   -0.27121      0.99960     2.76060    0.01101     3.77121
      C   18   -0.09432      0.99963     2.08615    0.00854     3.09432
      C   19   -0.01361      0.99962     2.00149    0.01249     3.01361
      O   20   -0.38784      0.99989     3.38057    0.00737     4.38784
      H   21    0.10053      0.00000     0.39836    0.00110     0.39947
      H   22    0.10087      0.00000     0.39798    0.00115     0.39913
      H   23    0.11305      0.00000     0.38605    0.00090     0.38695
      H   24    0.09244      0.00000     0.40647    0.00110     0.40756
      H   25    0.09698      0.00000     0.40244    0.00058     0.40302
      H   26    0.09021      0.00000     0.40866    0.00113     0.40979
      H   27    0.09075      0.00000     0.40819    0.00106     0.40925
      H   28    0.11445      0.00000     0.38412    0.00143     0.38555
      H   29    0.08969      0.00000     0.40938    0.00093     0.41031
      H   30    0.08627      0.00000     0.41166    0.00206     0.41373
      H   31    0.09814      0.00000     0.40094    0.00092     0.40186
      H   32    0.09297      0.00000     0.40553    0.00150     0.40703
      H   33    0.08437      0.00000     0.41349    0.00215     0.41563
      H   34    0.09049      0.00000     0.40866    0.00085     0.40951
      H   35    0.09537      0.00000     0.40329    0.00134     0.40463
      H   36    0.09650      0.00000     0.40238    0.00112     0.40350
      H   37    0.07740      0.00000     0.42126    0.00134     0.42260
      H   38    0.07621      0.00000     0.42256    0.00123     0.42379
      H   39    0.24930      0.00000     0.24761    0.00309     0.25070
 =======================================================================
   * Total *    0.00011     19.99228    52.78111    0.22651    72.99989

 Normal termination of Gaussian 16 at Sun Dec 13 13:53:24 2020.
