 Gaussian 16, Revision A.03,

 -----------------------------------------------------------
 # opt freq B3LYP/6-31G(d) empiricaldispersion=gd3bj scf=xqc
 -----------------------------------------------------------

 ------------------------------
 CID_64109186_JID_1969_neutraal
 ------------------------------
 Symbolic Z-matrix:
 Charge =  0 Multiplicity = 1

 SCF Done:  E(RB3LYP) =  -520.312038513     A.U. after   13 cycles
 SCF Done:  E(RB3LYP) =  -520.315929498     A.U. after   10 cycles
 SCF Done:  E(RB3LYP) =  -520.316464060     A.U. after   10 cycles
 SCF Done:  E(RB3LYP) =  -520.316620555     A.U. after   11 cycles
 SCF Done:  E(RB3LYP) =  -520.316741952     A.U. after    9 cycles
 SCF Done:  E(RB3LYP) =  -520.316768065     A.U. after    9 cycles
 SCF Done:  E(RB3LYP) =  -520.316769699     A.U. after    7 cycles
 SCF Done:  E(RB3LYP) =  -520.316769827     A.U. after    6 cycles
 Optimization completed.
    -- Stationary point found.
 Normal termination of Gaussian 16 at Tue Dec  8 20:42:47 2020.

 --------------------------------------------------------------------
 #N Geom=AllCheck Guess=TCheck SCRF=Check GenChk RB3LYP/6-31G(d) Freq
 --------------------------------------------------------------------

 Structure from the checkpoint file:  "JID_1969.chk"
 ------------------------------
 CID_64109186_JID_1969_neutraal
 ------------------------------
 Charge =  0 Multiplicity = 1

 SCF Done:  E(RB3LYP) =  -520.316769827     A.U. after    1 cycles

  Exact polarizability: 108.926  -2.133  92.723   1.204  -1.375  85.661
 Approx polarizability: 130.506  -3.036 131.033  -1.179  -1.625 130.594

                      1                      2                      3
                      A                      A                      A
 Frequencies --     82.5539                91.6790               134.0112
 Red. masses --      2.3088                 3.1060                 3.7157
 Frc consts  --      0.0093                 0.0154                 0.0393
 IR Inten    --      0.3914                 0.5675                 2.0448

                      4                      5                      6
                      A                      A                      A
 Frequencies --    154.4443               194.3989               225.2378
 Red. masses --      2.3282                 2.2398                 1.5502
 Frc consts  --      0.0327                 0.0499                 0.0463
 IR Inten    --      4.2023                 1.6606                 0.9220

                      7                      8                      9
                      A                      A                      A
 Frequencies --    231.9020               279.8989               302.5393
 Red. masses --      2.8480                 1.1367                 3.2335
 Frc consts  --      0.0902                 0.0525                 0.1744
 IR Inten    --      2.5189                28.7967                 5.8922

                     10                     11                     12
                      A                      A                      A
 Frequencies --    323.2567               346.3967               358.6582
 Red. masses --      1.9682                 1.9421                 1.6454
 Frc consts  --      0.1212                 0.1373                 0.1247
 IR Inten    --      6.3818                25.6737                79.3908

                     13                     14                     15
                      A                      A                      A
 Frequencies --    374.4121               422.9097               442.7866
 Red. masses --      2.0459                 2.1630                 2.4791
 Frc consts  --      0.1690                 0.2279                 0.2864
 IR Inten    --     45.0429                 4.0030                 7.5057

                     16                     17                     18
                      A                      A                      A
 Frequencies --    482.8288               564.8589               588.1020
 Red. masses --      3.3319                 3.1123                 2.5363
 Frc consts  --      0.4576                 0.5851                 0.5168
 IR Inten    --      7.7860                20.9455                 2.6346

                     19                     20                     21
                      A                      A                      A
 Frequencies --    646.1026               758.7162               785.4626
 Red. masses --      2.7154                 2.7242                 1.2945
 Frc consts  --      0.6679                 0.9240                 0.4706
 IR Inten    --     15.5802                 2.3221                 1.0291

                     22                     23                     24
                      A                      A                      A
 Frequencies --    834.9702               882.7618               892.1141
 Red. masses --      2.3863                 1.4037                 2.3237
 Frc consts  --      0.9802                 0.6445                 1.0896
 IR Inten    --      7.7664                82.0940                20.1816

                     25                     26                     27
                      A                      A                      A
 Frequencies --    908.8207               930.6200               964.3427
 Red. masses --      2.5926                 2.1544                 1.9959
 Frc consts  --      1.2617                 1.0993                 1.0936
 IR Inten    --     13.2888                21.6086                 6.9812

                     28                     29                     30
                      A                      A                      A
 Frequencies --   1004.8252              1006.6244              1020.2632
 Red. masses --      1.6593                 2.3483                 1.5760
 Frc consts  --      0.9871                 1.4019                 0.9666
 IR Inten    --     33.8875                24.5385                14.2612

                     31                     32                     33
                      A                      A                      A
 Frequencies --   1062.3397              1088.2095              1101.7025
 Red. masses --      2.5887                 1.5158                 2.4372
 Frc consts  --      1.7213                 1.0576                 1.7429
 IR Inten    --      6.4421                 7.4442                27.6439

                     34                     35                     36
                      A                      A                      A
 Frequencies --   1114.7923              1131.4659              1154.1602
 Red. masses --      2.3992                 2.2610                 1.7446
 Frc consts  --      1.7567                 1.7054                 1.3692
 IR Inten    --     14.7309                80.2837                24.5283

                     37                     38                     39
                      A                      A                      A
 Frequencies --   1177.3879              1181.2473              1210.7465
 Red. masses --      2.2418                 2.0584                 1.5341
 Frc consts  --      1.8310                 1.6923                 1.3250
 IR Inten    --     13.5955                17.5705                18.7524

                     40                     41                     42
                      A                      A                      A
 Frequencies --   1232.3224              1293.5363              1308.0235
 Red. masses --      1.3510                 1.2720                 1.2271
 Frc consts  --      1.2088                 1.2540                 1.2370
 IR Inten    --     11.5177                23.8382                18.6644

                     43                     44                     45
                      A                      A                      A
 Frequencies --   1311.4639              1322.8522              1337.1273
 Red. masses --      1.5019                 1.2725                 1.3977
 Frc consts  --      1.5219                 1.3120                 1.4724
 IR Inten    --     10.2388                15.0430                12.1602

                     46                     47                     48
                      A                      A                      A
 Frequencies --   1377.0175              1398.2144              1401.8271
 Red. masses --      1.3864                 1.4043                 1.3645
 Frc consts  --      1.5489                 1.6176                 1.5798
 IR Inten    --      3.1741                 4.5902                17.2480

                     49                     50                     51
                      A                      A                      A
 Frequencies --   1417.2398              1430.5634              1438.8680
 Red. masses --      1.4881                 1.7446                 1.3384
 Frc consts  --      1.7611                 2.1036                 1.6325
 IR Inten    --      8.7584                22.8941                22.4044

                     52                     53                     54
                      A                      A                      A
 Frequencies --   1445.9875              1450.9848              1494.2987
 Red. masses --      1.3485                 1.4461                 1.0919
 Frc consts  --      1.6613                 1.7938                 1.4365
 IR Inten    --      5.7780                 2.4807                 3.8393

                     55                     56                     57
                      A                      A                      A
 Frequencies --   1508.1071              1509.5279              1529.2709
 Red. masses --      1.0853                 1.0946                 1.0882
 Frc consts  --      1.4544                 1.4695                 1.4994
 IR Inten    --      0.9646                 3.2489                 3.4849

                     58                     59                     60
                      A                      A                      A
 Frequencies --   1532.0899              1538.7467              1541.5893
 Red. masses --      1.0500                 1.0879                 1.0585
 Frc consts  --      1.4521                 1.5177                 1.4822
 IR Inten    --      3.3306                 3.6709                 3.9523

                     61                     62                     63
                      A                      A                      A
 Frequencies --   1680.5874              2908.9795              2982.7731
 Red. masses --      1.0890                 1.0743                 1.0825
 Frc consts  --      1.8121                 5.3563                 5.6745
 IR Inten    --     40.8530                96.3703                32.8894

                     64                     65                     66
                      A                      A                      A
 Frequencies --   3020.3598              3022.9919              3044.1190
 Red. masses --      1.0681                 1.0683                 1.0626
 Frc consts  --      5.7408                 5.7518                 5.8013
 IR Inten    --     57.0020                25.0423                48.3552

                     67                     68                     69
                      A                      A                      A
 Frequencies --   3056.5974              3065.1660              3071.2447
 Red. masses --      1.0382                 1.0812                 1.0707
 Frc consts  --      5.7147                 5.9852                 5.9504
 IR Inten    --     20.0097                 8.4568                20.3807

                     70                     71                     72
                      A                      A                      A
 Frequencies --   3080.7138              3095.0415              3109.6778
 Red. masses --      1.1003                 1.0928                 1.0964
 Frc consts  --      6.1529                 6.1679                 6.2469
 IR Inten    --     20.0607                39.0440                49.5447

                     73                     74                     75
                      A                      A                      A
 Frequencies --   3116.8851              3131.6492              3141.0332
 Red. masses --      1.1013                 1.0992                 1.1017
 Frc consts  --      6.3036                 6.3514                 6.4040
 IR Inten    --     54.2152                17.7483                23.5434

                     76                     77                     78
                      A                      A                      A
 Frequencies --   3476.6661              3565.0226              3720.9672
 Red. masses --      1.0493                 1.0927                 1.0659
 Frc consts  --      7.4724                 8.1825                 8.6948
 IR Inten    --      3.2194                 0.6212                 5.9114

 - Thermochemistry -
 -------------------
 Temperature   298.150 Kelvin.  Pressure   1.00000 Atm.
 Atom     1 has atomic number  6 and mass  12.00000

 Molecular mass:   159.12593 amu.
 Principal axes and moments of inertia in atomic units:
                           1         2         3
     Eigenvalues --   892.878842691.253292974.09555
           X            0.99995  -0.00950   0.00077
           Y            0.00949   0.99994   0.00562
           Z           -0.00083  -0.00562   0.99998
 This molecule is an asymmetric top.
 Rotational symmetry number  1.
 Warning -- assumption of classical behavior for rotation
           may cause significant error
 Rotational temperatures (Kelvin)      0.09701     0.03218     0.02912
 Rotational constants (GHZ):           2.02126     0.67060     0.60682
 Zero-point vibrational energy     667328.9 (Joules/Mol)
                                  159.49544 (Kcal/Mol)
 Warning -- explicit consideration of  18 degrees of freedom as
           vibrations may cause significant error
 Vibrational temperatures:    118.78   131.91   192.81   222.21   279.70
          (Kelvin)            324.07   333.66   402.71   435.29   465.09
                              498.39   516.03   538.70   608.47   637.07
                              694.68   812.71   846.15   929.60  1091.62
                             1130.11  1201.34  1270.10  1283.55  1307.59
                             1338.95  1387.47  1445.72  1448.31  1467.93
                             1528.47  1565.69  1585.10  1603.94  1627.93
                             1660.58  1694.00  1699.55  1741.99  1773.04
                             1861.11  1881.95  1886.90  1903.29  1923.83
                             1981.22  2011.72  2016.92  2039.09  2058.26
                             2070.21  2080.45  2087.64  2149.96  2169.83
                             2171.87  2200.28  2204.34  2213.91  2218.00
                             2417.99  4185.37  4291.55  4345.62  4349.41
                             4379.81  4397.76  4410.09  4418.84  4432.46
                             4453.07  4474.13  4484.50  4505.74  4519.25
                             5002.15  5129.27  5353.64

 Zero-point correction=                           0.254172 (Hartree/Particle)
 Thermal correction to Energy=                    0.265980
 Thermal correction to Enthalpy=                  0.266924
 Thermal correction to Gibbs Free Energy=         0.217422
 Sum of electronic and zero-point Energies=           -520.062598
 Sum of electronic and thermal Energies=              -520.050790
 Sum of electronic and thermal Enthalpies=            -520.049846
 Sum of electronic and thermal Free Energies=         -520.099348

                     E (Thermal)             CV                S
                      KCal/Mol        Cal/Mol-Kelvin    Cal/Mol-Kelvin
 Total                  166.905             45.973            104.185
 Electronic               0.000              0.000              0.000
 Translational            0.889              2.981             41.103
 Rotational               0.889              2.981             30.348
 Vibrational            165.127             40.012             32.735
 Vibration     1          0.600              1.961              3.829
 Vibration     2          0.602              1.955              3.624
 Vibration     3          0.613              1.919              2.888
 Vibration     4          0.620              1.898              2.617
 Vibration     5          0.635              1.848              2.185
 Vibration     6          0.650              1.803              1.917
 Vibration     7          0.653              1.792              1.864
 Vibration     8          0.680              1.711              1.534
 Vibration     9          0.694              1.669              1.403
 Vibration    10          0.708              1.629              1.294
 Vibration    11          0.724              1.583              1.183
 Vibration    12          0.733              1.557              1.128
 Vibration    13          0.746              1.525              1.062
 Vibration    14          0.785              1.420              0.882
 Vibration    15          0.802              1.377              0.818
 Vibration    16          0.839              1.288              0.702
 Vibration    17          0.921              1.107              0.514
 Vibration    18          0.945              1.057              0.471

 Optimization completed.
    -- Stationary point found.
 Normal termination of Gaussian 16 at Tue Dec  8 20:50:17 2020.

 ----------------------------------------------------------------------
 # B3LYP/6-311++G(d,p) empiricaldispersion=gd3bj scf=xqc pop=npa geom=c
 heck
 ----------------------------------------------------------------------

 --------------------------------------
 CID_64109186_JID_1969_Energie_neutraal
 --------------------------------------
 Structure from the checkpoint file:  "JID_1969.chk"
 Charge =  0 Multiplicity = 1

 SCF Done:  E(RB3LYP) =  -520.483513897     A.U. after   14 cycles
 Normal termination of Gaussian 16 at Tue Dec  8 20:54:39 2020.

 ----------------------------------------------------------------------
 # B3LYP/6-311++G(d,p) empiricaldispersion=gd3bj scf=xqc pop=npa geom=c
 heck
 ----------------------------------------------------------------------

 ------------------------------------
 CID_64109186_JID_1969_Energie_kation
 ------------------------------------
 Structure from the checkpoint file:  "JID_1969.chk"
 Charge =  1 Multiplicity = 2

 SCF Done:  E(UB3LYP) =  -520.166045216     A.U. after   27 cycles
 Normal termination of Gaussian 16 at Tue Dec  8 21:04:44 2020.
 Gaussian 16:  ES64L-G16RevA.03 25-Dec-2016

 ----------------------------------------------------------------------
 # B3LYP/6-311++G(d,p) empiricaldispersion=gd3bj scf=xqc pop=npa geom=c
 heck
 ----------------------------------------------------------------------

 -----------------------------------
 CID_64109186_JID_1969_Energie_anion
 -----------------------------------
 Structure from the checkpoint file:  "JID_1969.chk"
 Charge = -1 Multiplicity = 2

                         Standard orientation:
 ---------------------------------------------------------------------
 Center     Atomic      Atomic             Coordinates (Angstroms)
 Number     Number       Type             X           Y           Z
 ---------------------------------------------------------------------
      1          6           0        3.271874   -0.984210   -0.807014
      2          6           0        2.786788   -0.542817    0.576957
      3          6           0        1.386419    0.071309    0.591325
      4          6           0        0.277394   -0.886615    0.137923
      5          6           0       -1.091981   -0.190154    0.105633
      6          6           0       -0.977323    1.104987   -0.705944
      7          6           0        0.195782    1.950420   -0.217370
      8          8           0        1.419100    1.221804   -0.250215
      9          6           0       -2.173915   -1.127643   -0.447367
     10          7           0       -3.467794   -0.450340   -0.466255
     11          8           0       -1.476165    0.215745    1.438261
     12          1           0        2.681393   -1.818855   -1.201098
     13          1           0        4.315831   -1.312919   -0.763846
     14          1           0        3.201572   -0.155016   -1.516681
     15          1           0        2.799326   -1.391265    1.274339
     16          1           0        3.476790    0.208312    0.979831
     17          1           0        1.154835    0.394382    1.619970
     18          1           0        0.239149   -1.758708    0.808192
     19          1           0        0.505875   -1.261965   -0.865798
     20          1           0       -0.823833    0.841497   -1.758924
     21          1           0       -1.916078    1.661134   -0.637544
     22          1           0       -0.000359    2.306150    0.805032
     23          1           0        0.347159    2.820157   -0.863446
     24          1           0       -1.910125   -1.420531   -1.471183
     25          1           0       -2.153840   -2.054034    0.162361
     26          1           0       -4.206606   -1.107112   -0.706626
     27          1           0       -3.658278   -0.111839    0.475600
     28          1           0       -1.371957   -0.559057    2.014377
 ---------------------------------------------------------------------

 SCF Done:  E(UB3LYP) =  -520.470793885     A.U. after   26 cycles

 The electronic state is 2-A.
 Alpha  occ. eigenvalues --  -19.01600 -19.01032 -14.17768 -10.11883 -10.11204
 Alpha  occ. eigenvalues --  -10.10882 -10.07758 -10.06425 -10.05782 -10.05667
 Alpha  occ. eigenvalues --  -10.05605  -0.93339  -0.91280  -0.76911  -0.69482
 Alpha  occ. eigenvalues --   -0.68240  -0.63019  -0.57581  -0.54761  -0.52230
 Alpha  occ. eigenvalues --   -0.46941  -0.45469  -0.39749  -0.38390  -0.38213
 Alpha  occ. eigenvalues --   -0.36140  -0.35312  -0.34772  -0.33235  -0.31614
 Alpha  occ. eigenvalues --   -0.30660  -0.28709  -0.28303  -0.27070  -0.27057
 Alpha  occ. eigenvalues --   -0.25760  -0.24716  -0.23933  -0.22905  -0.20767
 Alpha  occ. eigenvalues --   -0.20024  -0.17765  -0.14685  -0.13080   0.04700
 Alpha virt. eigenvalues --    0.07046   0.07875   0.08387   0.08980   0.09989
 Alpha virt. eigenvalues --    0.10516   0.10675   0.11103   0.11878   0.12326
 Alpha virt. eigenvalues --    0.13399   0.13692   0.14115   0.14621   0.15643

  Beta  occ. eigenvalues --  -19.01590 -19.00981 -14.17734 -10.11881 -10.11198
  Beta  occ. eigenvalues --  -10.10877 -10.07721 -10.06409 -10.05753 -10.05652
  Beta  occ. eigenvalues --  -10.05587  -0.93318  -0.91178  -0.76846  -0.69448
  Beta  occ. eigenvalues --   -0.68197  -0.62987  -0.57520  -0.54712  -0.52171
  Beta  occ. eigenvalues --   -0.46874  -0.45413  -0.39701  -0.38339  -0.38183
  Beta  occ. eigenvalues --   -0.36100  -0.35267  -0.34723  -0.33196  -0.31550
  Beta  occ. eigenvalues --   -0.30626  -0.28669  -0.28262  -0.27027  -0.27024
  Beta  occ. eigenvalues --   -0.25726  -0.24683  -0.23892  -0.22875  -0.20718
  Beta  occ. eigenvalues --   -0.20000  -0.17715  -0.14646  -0.13036
  Beta virt. eigenvalues --    0.07094   0.07957   0.08483   0.08600   0.09750
  Beta virt. eigenvalues --    0.10454   0.10877   0.11220   0.11379   0.12343
  Beta virt. eigenvalues --    0.12620   0.13620   0.13864   0.14707   0.14941

 Mulliken charges and spin densities:
               1          2
     1  C    0.309664  -0.876224
     2  C   -0.143006  -0.289163
     3  C    0.270377  -0.143058
     4  C   -0.767097  -0.076051
     5  C    0.166872   0.209499
     6  C    0.121533  -0.425379
     7  C   -0.579455   0.257265
     8  O   -0.084675   0.026267
     9  C    1.931999  -2.383882
    10  N   -0.620058   0.310162
    11  O   -0.222604   0.042019
    12  H   -0.323425   0.461899
    13  H   -0.143249   0.280648
    14  H    0.103615   0.050125
    15  H   -0.224848   0.350291
    16  H    0.021247   0.141144
    17  H    0.030017   0.156098
    18  H   -0.412283   0.608882
    19  H    0.708535  -0.571377
    20  H   -0.042743   0.200021
    21  H    0.232995  -0.067095
    22  H    0.120851   0.035072
    23  H    0.061525   0.102337
    24  H   -0.377374   0.555984
    25  H   -0.752305   0.902101
    26  H   -0.172288   0.409119
    27  H    0.030119   0.216261
    28  H   -0.243940   0.517036
 Sum of Mulliken charges =  -1.00000   1.00000

 Dipole moment (field-independent basis, Debye):
    X=              3.4865    Y=              5.4374    Z=             -2.0367  Tot=              6.7727
 Quadrupole moment (field-independent basis, Debye-Ang):
   XX=           -132.6642   YY=           -107.3018   ZZ=           -103.5070
   XY=             -4.8205   XZ=              2.0849   YZ=              4.3349

 Summary of Natural Population Analysis:

                                       Natural Population
                Natural  -----------------------------------------------
    Atom  No    Charge         Core      Valence    Rydberg      Total
 -----------------------------------------------------------------------
      C    1   -0.28968      0.99966     2.28450    0.00552     3.28968
      C    2   -0.19392      0.99961     2.18507    0.00924     3.19392
      C    3    0.06803      0.99954     1.91747    0.01496     2.93197
      C    4   -0.21751      0.99955     2.20685    0.01110     3.21751
      C    5    0.13037      0.99951     1.85262    0.01750     2.86963
      C    6   -0.21018      0.99956     2.20168    0.00894     3.21018
      C    7   -0.00748      0.99958     1.99655    0.01135     3.00748
      O    8   -0.30839      0.99988     3.30028    0.00823     4.30839
      C    9   -0.09390      0.99956     2.08180    0.01254     3.09390
      N   10   -0.42733      0.99977     2.91675    0.01081     3.92733
      O   11   -0.38821      0.99989     3.38134    0.00698     4.38821
      H   12    0.09700      0.00000     0.40203    0.00096     0.40300
      H   13    0.09623      0.00000     0.40294    0.00083     0.40377
      H   14    0.10260      0.00000     0.39624    0.00116     0.39740
      H   15    0.09962      0.00000     0.39920    0.00118     0.40038
      H   16    0.09609      0.00000     0.40274    0.00117     0.40391
      H   17    0.08467      0.00000     0.41321    0.00212     0.41533
      H   18    0.10725      0.00000     0.39000    0.00275     0.39275
      H   19    0.10407      0.00000     0.39415    0.00177     0.39593
      H   20    0.10059      0.00000     0.39837    0.00104     0.39941
      H   21    0.11293      0.00000     0.38580    0.00127     0.38707
      H   22    0.08308      0.00000     0.41550    0.00143     0.41692
      H   23    0.08584      0.00000     0.41313    0.00104     0.41416
      H   24    0.09134      0.00000     0.40709    0.00156     0.40866
      H   25    0.08435      0.00000     0.41089    0.00476     0.41565
      H   26    0.17682      0.00000     0.32089    0.00229     0.32318
      H   27    0.17987      0.00000     0.31781    0.00232     0.32013
      H   28    0.23582      0.00000     0.25566    0.00852     0.26418
 =======================================================================
   * Total *    0.00000     10.99612    32.85056    0.15333    44.00000

 Normal termination of Gaussian 16 at Tue Dec  8 21:13:20 2020.
