 Gaussian 16, Revision A.03,

 -----------------------------------------------------------
 # opt freq B3LYP/6-31G(d) empiricaldispersion=gd3bj scf=xqc
 -----------------------------------------------------------

 -------------------------------
 CID_117338982_JID_6390_neutraal
 -------------------------------
 Symbolic Z-matrix:
 Charge =  0 Multiplicity = 1

 SCF Done:  E(RB3LYP) =  -1028.79682259     A.U. after   15 cycles
 SCF Done:  E(RB3LYP) =  -1028.80197308     A.U. after   12 cycles
 SCF Done:  E(RB3LYP) =  -1028.80359399     A.U. after   12 cycles
 SCF Done:  E(RB3LYP) =  -1028.80461527     A.U. after   13 cycles
 SCF Done:  E(RB3LYP) =  -1028.80508626     A.U. after   12 cycles
 SCF Done:  E(RB3LYP) =  -1028.80526449     A.U. after   12 cycles
 SCF Done:  E(RB3LYP) =  -1028.80529622     A.U. after   11 cycles
 SCF Done:  E(RB3LYP) =  -1028.80539636     A.U. after   10 cycles
 SCF Done:  E(RB3LYP) =  -1028.80546154     A.U. after   10 cycles
 SCF Done:  E(RB3LYP) =  -1028.80550580     A.U. after   10 cycles
 SCF Done:  E(RB3LYP) =  -1028.80563771     A.U. after    9 cycles
 SCF Done:  E(RB3LYP) =  -1028.80563998     A.U. after    9 cycles
 SCF Done:  E(RB3LYP) =  -1028.80564036     A.U. after    8 cycles
 SCF Done:  E(RB3LYP) =  -1028.80564074     A.U. after    7 cycles
 SCF Done:  E(RB3LYP) =  -1028.80564076     A.U. after    6 cycles
 Optimization completed.
    -- Stationary point found.
 Normal termination of Gaussian 16 at Thu Dec 10 22:35:57 2020.

 --------------------------------------------------------------------
 #N Geom=AllCheck Guess=TCheck SCRF=Check GenChk RB3LYP/6-31G(d) Freq
 --------------------------------------------------------------------

 Structure from the checkpoint file:  "JID_6390.chk"
 -------------------------------
 CID_117338982_JID_6390_neutraal
 -------------------------------
 Charge =  0 Multiplicity = 1

 SCF Done:  E(RB3LYP) =  -1028.80564076     A.U. after    1 cycles

  Exact polarizability: 261.796  -0.324 155.640   0.697   0.103  90.823
 Approx polarizability: 351.100  -7.178 267.297   4.658   0.464 143.932

                      1                      2                      3
                      A                      A                      A
 Frequencies --     23.7147                49.3845                54.4627
 Red. masses --      3.1370                 4.9529                 3.8694
 Frc consts  --      0.0010                 0.0071                 0.0068
 IR Inten    --      2.6623                 1.3495                 2.2493

                      4                      5                      6
                      A                      A                      A
 Frequencies --     78.3177               108.8055               139.0395
 Red. masses --      3.9781                 1.1054                 4.1466
 Frc consts  --      0.0144                 0.0077                 0.0472
 IR Inten    --      1.2576                 1.6851                 1.8348

                      7                      8                      9
                      A                      A                      A
 Frequencies --    165.8087               174.1816               190.9105
 Red. masses --      3.0742                 1.2230                 2.5891
 Frc consts  --      0.0498                 0.0219                 0.0556
 IR Inten    --      0.9200                 0.3677                 4.0129

                     10                     11                     12
                      A                      A                      A
 Frequencies --    196.5677               241.6743               244.8198
 Red. masses --      2.4613                 4.5190                 1.2018
 Frc consts  --      0.0560                 0.1555                 0.0424
 IR Inten    --      1.1241                 2.9387                 1.5873

                     13                     14                     15
                      A                      A                      A
 Frequencies --    259.9276               274.0176               298.1117
 Red. masses --      1.7278                 4.0481                 2.0873
 Frc consts  --      0.0688                 0.1791                 0.1093
 IR Inten    --     32.0929                 4.3508                17.6336

                     16                     17                     18
                      A                      A                      A
 Frequencies --    326.2291               331.7428               376.5000
 Red. masses --      2.8481                 3.7951                 5.2446
 Frc consts  --      0.1786                 0.2461                 0.4380
 IR Inten    --     14.3833                 0.4414                 1.5732

                     19                     20                     21
                      A                      A                      A
 Frequencies --    441.5147               462.6556               488.2139
 Red. masses --      4.4652                 3.5645                 3.9950
 Frc consts  --      0.5128                 0.4495                 0.5610
 IR Inten    --      5.8648                 1.8755                 1.1558

                     22                     23                     24
                      A                      A                      A
 Frequencies --    544.5045               568.9607               581.3874
 Red. masses --      4.1486                 5.1557                 3.6017
 Frc consts  --      0.7247                 0.9833                 0.7173
 IR Inten    --      0.7544                 1.4161                 3.3058

                     25                     26                     27
                      A                      A                      A
 Frequencies --    635.3390               682.8357               698.6048
 Red. masses --      6.2643                 6.2018                 3.9193
 Frc consts  --      1.4898                 1.7037                 1.1270
 IR Inten    --     15.2825                11.0202                 9.7645

                     28                     29                     30
                      A                      A                      A
 Frequencies --    720.5920               732.1503               744.5399
 Red. masses --      5.1973                 5.7862                 4.3491
 Frc consts  --      1.5900                 1.8274                 1.4204
 IR Inten    --     28.8189                 2.6873                 1.1035

                     31                     32                     33
                      A                      A                      A
 Frequencies --    790.1015               809.3015               841.1989
 Red. masses --      4.6590                 1.5526                 1.3878
 Frc consts  --      1.7136                 0.5991                 0.5786
 IR Inten    --     20.1140               168.7231                39.1895

                     34                     35                     36
                      A                      A                      A
 Frequencies --    866.0685               877.2416               891.1304
 Red. masses --      1.3538                 1.3384                 4.8043
 Frc consts  --      0.5983                 0.6068                 2.2478
 IR Inten    --      6.4156                 3.7451                 5.2757

                     37                     38                     39
                      A                      A                      A
 Frequencies --    965.7411               978.7860               991.2260
 Red. masses --      1.2765                 4.6401                 1.1831
 Frc consts  --      0.7015                 2.6191                 0.6849
 IR Inten    --      2.4150                83.2401                 5.3857

                     40                     41                     42
                      A                      A                      A
 Frequencies --   1006.2213              1025.3530              1029.6133
 Red. masses --      1.3340                 2.3633                 1.5582
 Frc consts  --      0.7958                 1.4639                 0.9732
 IR Inten    --      4.7880                 3.7902                 4.0806

                     43                     44                     45
                      A                      A                      A
 Frequencies --   1073.0600              1090.4157              1142.3148
 Red. masses --      1.5127                 2.0253                 2.1573
 Frc consts  --      1.0262                 1.4188                 1.6586
 IR Inten    --      4.9361                 0.8992                27.9636

                     46                     47                     48
                      A                      A                      A
 Frequencies --   1159.2603              1167.9016              1217.6222
 Red. masses --      1.3045                 1.7724                 1.6532
 Frc consts  --      1.0329                 1.4244                 1.4441
 IR Inten    --      8.2684                 5.7029                14.1762

                     49                     50                     51
                      A                      A                      A
 Frequencies --   1234.1627              1263.0941              1276.4546
 Red. masses --      2.2534                 2.4914                 2.3948
 Frc consts  --      2.0222                 2.3419                 2.2989
 IR Inten    --      4.9269                 5.3831                12.5374

                     52                     53                     54
                      A                      A                      A
 Frequencies --   1317.6670              1329.1989              1337.0317
 Red. masses --      2.6203                 1.7719                 6.6126
 Frc consts  --      2.6805                 1.8444                 6.9647
 IR Inten    --      2.7700                 3.1916                 4.2605

                     55                     56                     57
                      A                      A                      A
 Frequencies --   1387.2091              1415.1380              1443.1922
 Red. masses --      1.2005                 3.4546                 1.2486
 Frc consts  --      1.3612                 4.0761                 1.5322
 IR Inten    --      4.3967                 9.0798                 1.9296

                     58                     59                     60
                      A                      A                      A
 Frequencies --   1453.2079              1457.3174              1478.7328
 Red. masses --      2.0738                 2.6653                 2.2757
 Frc consts  --      2.5803                 3.3350                 2.9318
 IR Inten    --     18.2726                23.7392                29.9164

                     61                     62                     63
                      A                      A                      A
 Frequencies --   1499.0369              1513.0232              1516.6801
 Red. masses --      1.0521                 1.0542                 1.0859
 Frc consts  --      1.3929                 1.4219                 1.4717
 IR Inten    --      9.8265                 9.6471                20.8935

                     64                     65                     66
                      A                      A                      A
 Frequencies --   1517.3668              1523.9353              1533.6921
 Red. masses --      1.1000                 1.2154                 1.1143
 Frc consts  --      1.4922                 1.6630                 1.5443
 IR Inten    --     18.7751                22.8039                 3.2411

                     67                     68                     69
                      A                      A                      A
 Frequencies --   1542.8628              1578.6235              1603.1287
 Red. masses --      1.9714                 4.2058                 6.0414
 Frc consts  --      2.7649                 6.1752                 9.1480
 IR Inten    --     35.0683                66.7206                46.0905

                     70                     71                     72
                      A                      A                      A
 Frequencies --   1619.8612              1656.1927              1692.7718
 Red. masses --      4.4385                 5.5990                 1.2370
 Frc consts  --      6.8618                 9.0487                 2.0884
 IR Inten    --     86.7755                11.2237                93.1629

                     73                     74                     75
                      A                      A                      A
 Frequencies --   3040.5660              3046.9405              3064.3562
 Red. masses --      1.0453                 1.0400                 1.0301
 Frc consts  --      5.6940                 5.6885                 5.6993
 IR Inten    --     73.3948                24.1656                21.8477

                     76                     77                     78
                      A                      A                      A
 Frequencies --   3103.3089              3113.7356              3132.2491
 Red. masses --      1.0959                 1.0941                 1.1026
 Frc consts  --      6.2182                 6.2501                 6.3737
 IR Inten    --     20.3175                17.0679                14.7891

                     79                     80                     81
                      A                      A                      A
 Frequencies --   3146.9618              3160.0376              3180.4640
 Red. masses --      1.1081                 1.1039                 1.0871
 Frc consts  --      6.4656                 6.4947                 6.4788
 IR Inten    --      9.9963                 5.6020                10.4171

                     82                     83                     84
                      A                      A                      A
 Frequencies --   3180.7872              3197.7926              3209.4788
 Red. masses --      1.1007                 1.0945                 1.0884
 Frc consts  --      6.5612                 6.5941                 6.6057
 IR Inten    --      1.7790                11.7245                11.0587

                     85                     86                     87
                      A                      A                      A
 Frequencies --   3260.0011              3499.7549              3597.6120
 Red. masses --      1.0954                 1.0498                 1.0946
 Frc consts  --      6.8593                 7.5758                 8.3470
 IR Inten    --      7.3263                 6.5455                18.0443

 - Thermochemistry -
 -------------------
 Temperature   298.150 Kelvin.  Pressure   1.00000 Atm.
 Atom     1 has atomic number  6 and mass  12.00000

 Molecular mass:   233.09867 amu.
 Principal axes and moments of inertia in atomic units:
                           1         2         3
     Eigenvalues --  1353.752388330.102499302.85594
           X            0.99986   0.01682  -0.00133
           Y           -0.01680   0.99983   0.00749
           Z            0.00146  -0.00747   0.99997
 This molecule is an asymmetric top.
 Rotational symmetry number  1.
 Warning -- assumption of classical behavior for rotation
           may cause significant error
 Rotational temperatures (Kelvin)      0.06398     0.01040     0.00931
 Rotational constants (GHZ):           1.33314     0.21665     0.19400
 Zero-point vibrational energy     669201.2 (Joules/Mol)
                                  159.94292 (Kcal/Mol)
 Warning -- explicit consideration of  24 degrees of freedom as
           vibrations may cause significant error
 Vibrational temperatures:     34.12    71.05    78.36   112.68   156.55
          (Kelvin)            200.05   238.56   250.61   274.68   282.82
                              347.72   352.24   373.98   394.25   428.92
                              469.37   477.30   541.70   635.24   665.66
                              702.43   783.42   818.61   836.49   914.11
                              982.45  1005.14  1036.77  1053.40  1071.23
                             1136.78  1164.40  1210.30  1246.08  1262.15
                             1282.14  1389.49  1408.25  1426.15  1447.73
                             1475.25  1481.38  1543.89  1568.86  1643.54
                             1667.92  1680.35  1751.89  1775.68  1817.31
                             1836.53  1895.83  1912.42  1923.69  1995.88
                             2036.07  2076.43  2090.84  2096.75  2127.57
                             2156.78  2176.90  2182.16  2183.15  2192.60
                             2206.64  2219.84  2271.29  2306.54  2330.62
                             2382.89  2435.52  4374.70  4383.87  4408.93
                             4464.97  4479.97  4506.61  4527.78  4546.59
                             4575.98  4576.44  4600.91  4617.72  4690.41
                             5035.37  5176.16

 Zero-point correction=                           0.254885 (Hartree/Particle)
 Thermal correction to Energy=                    0.271113
 Thermal correction to Enthalpy=                  0.272057
 Thermal correction to Gibbs Free Energy=         0.210242
 Sum of electronic and zero-point Energies=          -1028.550755
 Sum of electronic and thermal Energies=             -1028.534528
 Sum of electronic and thermal Enthalpies=           -1028.533584
 Sum of electronic and thermal Free Energies=        -1028.595399

                     E (Thermal)             CV                S
                      KCal/Mol        Cal/Mol-Kelvin    Cal/Mol-Kelvin
 Total                  170.126             60.336            130.101
 Electronic               0.000              0.000              0.000
 Translational            0.889              2.981             42.241
 Rotational               0.889              2.981             33.017
 Vibrational            168.348             54.374             54.843
 Vibration     1          0.593              1.985              6.296
 Vibration     2          0.595              1.978              4.842
 Vibration     3          0.596              1.976              4.648
 Vibration     4          0.600              1.964              3.933
 Vibration     5          0.606              1.942              3.290
 Vibration     6          0.615              1.914              2.817
 Vibration     7          0.624              1.884              2.482
 Vibration     8          0.627              1.874              2.390
 Vibration     9          0.634              1.852              2.219
 Vibration    10          0.636              1.845              2.165
 Vibration    11          0.658              1.776              1.791
 Vibration    12          0.660              1.771              1.768
 Vibration    13          0.668              1.746              1.662
 Vibration    14          0.676              1.721              1.571
 Vibration    15          0.691              1.677              1.427
 Vibration    16          0.710              1.623              1.279
 Vibration    17          0.714              1.612              1.252
 Vibration    18          0.747              1.520              1.053
 Vibration    19          0.801              1.380              0.822
 Vibration    20          0.820              1.333              0.758
 Vibration    21          0.844              1.276              0.688
 Vibration    22          0.900              1.152              0.556
 Vibration    23          0.925              1.098              0.506
 Vibration    24          0.938              1.072              0.483

 Optimization completed.
    -- Stationary point found.
 Normal termination of Gaussian 16 at Thu Dec 10 22:45:55 2020.

 ----------------------------------------------------------------------
 # B3LYP/6-311++G(d,p) empiricaldispersion=gd3bj scf=xqc pop=npa geom=c
 heck
 ----------------------------------------------------------------------

 ---------------------------------------
 CID_117338982_JID_6390_Energie_neutraal
 ---------------------------------------
 Structure from the checkpoint file:  "JID_6390.chk"
 Charge =  0 Multiplicity = 1

 SCF Done:  E(RB3LYP) =  -1029.00180497     A.U. after   15 cycles
 Normal termination of Gaussian 16 at Thu Dec 10 22:50:16 2020.

 ----------------------------------------------------------------------
 # B3LYP/6-311++G(d,p) empiricaldispersion=gd3bj scf=xqc pop=npa geom=c
 heck
 ----------------------------------------------------------------------

 -------------------------------------
 CID_117338982_JID_6390_Energie_kation
 -------------------------------------
 Structure from the checkpoint file:  "JID_6390.chk"
 Charge =  1 Multiplicity = 2

 SCF Done:  E(UB3LYP) =  -1028.74676984     A.U. after   23 cycles
 Normal termination of Gaussian 16 at Thu Dec 10 22:59:18 2020.
 Gaussian 16:  ES64L-G16RevA.03 25-Dec-2016

 ----------------------------------------------------------------------
 # B3LYP/6-311++G(d,p) empiricaldispersion=gd3bj scf=xqc pop=npa geom=c
 heck
 ----------------------------------------------------------------------

 ------------------------------------
 CID_117338982_JID_6390_Energie_anion
 ------------------------------------
 Structure from the checkpoint file:  "JID_6390.chk"
 Charge = -1 Multiplicity = 2

                         Standard orientation:
 ---------------------------------------------------------------------
 Center     Atomic      Atomic             Coordinates (Angstroms)
 Number     Number       Type             X           Y           Z
 ---------------------------------------------------------------------
      1          6           0        0.222256    2.465373    0.576086
      2          6           0        0.698764    1.091335    0.171370
      3          6           0       -0.202810    0.080584   -0.228594
      4          6           0        0.325512   -1.175405   -0.583246
      5          6           0        1.687053   -1.443422   -0.536563
      6          6           0        2.580123   -0.441128   -0.136340
      7          6           0        2.069790    0.813697    0.209314
      8         16           0        4.308683   -0.870242   -0.095370
      9          6           0        5.116266    0.704950    0.329639
     10          6           0       -1.657995    0.279478   -0.258086
     11          6           0       -2.617234   -0.617531    0.222084
     12          7           0       -3.836657   -0.073024   -0.027196
     13          7           0       -3.745050    1.150934   -0.629779
     14          6           0       -2.440492    1.350055   -0.770262
     15          6           0       -5.126903   -0.629188    0.308360
     16          7           0       -2.488686   -1.876726    0.813279
     17          1           0        0.010604    3.094759   -0.297411
     18          1           0       -0.702095    2.411358    1.159328
     19          1           0        0.981818    2.981249    1.171858
     20          1           0       -0.352179   -1.947267   -0.939064
     21          1           0        2.058974   -2.422384   -0.826273
     22          1           0        2.738581    1.604677    0.530826
     23          1           0        4.895189    1.477742   -0.411464
     24          1           0        4.829125    1.049697    1.326635
     25          1           0        6.189747    0.501528    0.321830
     26          1           0       -2.090309    2.251337   -1.254819
     27          1           0       -5.132399   -1.701448    0.089958
     28          1           0       -5.376000   -0.474845    1.366571
     29          1           0       -5.871584   -0.123316   -0.306413
     30          1           0       -1.514616   -2.081616    1.014346
     31          1           0       -3.037027   -1.978678    1.663323
 ---------------------------------------------------------------------

 SCF Done:  E(UB3LYP) =  -1028.99402546     A.U. after   33 cycles
 SCF Done:  E(UB3LYP) =  -1028.99402546     a.u. after    1 cycles

 The electronic state is 2-A.
 Alpha  occ. eigenvalues --  -88.76317 -14.28919 -14.23355 -14.22900 -10.14789
 Alpha  occ. eigenvalues --  -10.11862 -10.11636 -10.10934 -10.09743 -10.09493
 Alpha  occ. eigenvalues --  -10.09477 -10.08812 -10.08706 -10.08497 -10.07929
 Alpha  occ. eigenvalues --  -10.07442  -7.84916  -5.81320  -5.80920  -5.80308
 Alpha  occ. eigenvalues --   -0.95436  -0.82760  -0.78264  -0.74846  -0.72079
 Alpha  occ. eigenvalues --   -0.68476  -0.68081  -0.64707  -0.60900  -0.60187
 Alpha  occ. eigenvalues --   -0.56677  -0.51830  -0.51303  -0.48182  -0.47153
 Alpha  occ. eigenvalues --   -0.44376  -0.41767  -0.39789  -0.38951  -0.38490
 Alpha  occ. eigenvalues --   -0.36283  -0.35521  -0.34885  -0.34611  -0.33385
 Alpha  occ. eigenvalues --   -0.33180  -0.32419  -0.31421  -0.30956  -0.29959
 Alpha  occ. eigenvalues --   -0.29617  -0.27843  -0.27503  -0.25628  -0.23475
 Alpha  occ. eigenvalues --   -0.23369  -0.20978  -0.19573  -0.16413  -0.15648
 Alpha  occ. eigenvalues --   -0.13373  -0.10674   0.03693
 Alpha virt. eigenvalues --    0.04865   0.06850   0.06913   0.07146   0.07485
 Alpha virt. eigenvalues --    0.08262   0.08756   0.09130   0.09530   0.10065
 Alpha virt. eigenvalues --    0.10471   0.10829   0.11163   0.11721   0.12269

  Beta  occ. eigenvalues --  -88.76310 -14.28919 -14.23288 -14.22896 -10.14786
  Beta  occ. eigenvalues --  -10.11864 -10.11587 -10.10872 -10.09739 -10.09492
  Beta  occ. eigenvalues --  -10.09474 -10.08807 -10.08699 -10.08477 -10.07918
  Beta  occ. eigenvalues --  -10.07441  -7.84910  -5.81307  -5.80907  -5.80305
  Beta  occ. eigenvalues --   -0.95427  -0.82671  -0.78248  -0.74826  -0.72043
  Beta  occ. eigenvalues --   -0.68455  -0.68038  -0.64662  -0.60857  -0.60152
  Beta  occ. eigenvalues --   -0.56618  -0.51808  -0.51270  -0.48152  -0.47097
  Beta  occ. eigenvalues --   -0.44311  -0.41719  -0.39752  -0.38923  -0.38462
  Beta  occ. eigenvalues --   -0.36253  -0.35489  -0.34847  -0.34552  -0.33354
  Beta  occ. eigenvalues --   -0.33155  -0.32405  -0.31379  -0.30922  -0.29931
  Beta  occ. eigenvalues --   -0.29588  -0.27816  -0.27466  -0.25609  -0.23427
  Beta  occ. eigenvalues --   -0.23323  -0.20956  -0.19554  -0.16370  -0.15635
  Beta  occ. eigenvalues --   -0.13344  -0.10647
  Beta virt. eigenvalues --    0.05865   0.06424   0.06902   0.06967   0.07499
  Beta virt. eigenvalues --    0.07667   0.08743   0.09203   0.09466   0.10001
  Beta virt. eigenvalues --    0.10193   0.10557   0.11062   0.11463   0.11914

 Mulliken charges and spin densities:
               1          2
     1  C   -0.587535   0.211101
     2  C    0.986864  -0.723621
     3  C    0.833653  -0.415452
     4  C   -0.890059   0.318926
     5  C   -0.135081   0.130585
     6  C    0.743153   0.035571
     7  C   -0.544465   0.073222
     8  S   -0.415103  -0.404197
     9  C    0.445468  -0.913845
    10  C    1.208273  -0.859509
    11  C   -1.377709   0.677821
    12  N    0.061151   0.057372
    13  N   -0.322704   0.147033
    14  C   -0.110042  -0.228824
    15  C    0.854015  -1.246910
    16  N   -0.277956  -0.049805
    17  H    0.135421   0.018979
    18  H    0.083850   0.086043
    19  H   -0.197505   0.351719
    20  H    0.072564   0.118561
    21  H    0.099418   0.078907
    22  H    0.232019  -0.135005
    23  H   -0.138617   0.323096
    24  H   -0.249810   0.445302
    25  H   -0.537141   0.730403
    26  H    0.128284   0.003806
    27  H   -0.227641   0.405052
    28  H   -0.456071   0.648451
    29  H    0.006624   0.150298
    30  H    0.090412   0.171343
    31  H   -0.513730   0.793579
 Sum of Mulliken charges =  -1.00000   1.00000

 Dipole moment (field-independent basis, Debye):
    X=              1.0208    Y=              1.0635    Z=             -4.0313  Tot=              4.2924
 Quadrupole moment (field-independent basis, Debye-Ang):
   XX=           -226.0785   YY=           -138.3524   ZZ=           -138.4123
   XY=            -15.5581   XZ=              7.1038   YZ=              5.0231

 Summary of Natural Population Analysis:

                                       Natural Population
                Natural  -----------------------------------------------
    Atom  No    Charge         Core      Valence    Rydberg      Total
 -----------------------------------------------------------------------
      C    1   -0.29589      0.99964     2.29044    0.00582     3.29589
      C    2    0.00116      0.99949     1.99075    0.00859     2.99884
      C    3   -0.03113      0.99946     2.02177    0.00991     3.03113
      C    4   -0.09447      0.99954     2.08574    0.00920     3.09447
      C    5   -0.11067      0.99950     2.10202    0.00915     3.11067
      C    6   -0.08765      0.99941     2.07566    0.01258     3.08765
      C    7   -0.11608      0.99945     2.10692    0.00971     3.11608
      S    8    0.12838      4.99954     2.85134    0.02074     7.87162
      C    9   -0.35359      0.99963     2.34745    0.00652     3.35359
      C   10   -0.10865      0.99946     2.09827    0.01091     3.10865
      C   11    0.19301      0.99946     1.79382    0.01372     2.80699
      N   12   -0.12190      0.99962     2.60904    0.01324     3.62190
      N   13   -0.16403      0.99974     2.65305    0.01124     3.66403
      C   14    0.00167      0.99959     1.98579    0.01295     2.99833
      C   15   -0.17745      0.99964     2.16949    0.00831     3.17745
      N   16   -0.40266      0.99972     2.89347    0.00948     3.90266
      H   17    0.10186      0.00000     0.39729    0.00085     0.39814
      H   18    0.11075      0.00000     0.38823    0.00101     0.38925
      H   19    0.10260      0.00000     0.39660    0.00080     0.39740
      H   20    0.10318      0.00000     0.39548    0.00134     0.39682
      H   21    0.10211      0.00000     0.39695    0.00094     0.39789
      H   22    0.10220      0.00000     0.39604    0.00176     0.39780
      H   23    0.10480      0.00000     0.39348    0.00172     0.39520
      H   24    0.10591      0.00000     0.39194    0.00215     0.39409
      H   25    0.11251      0.00000     0.38606    0.00143     0.38749
      H   26    0.09593      0.00000     0.40309    0.00097     0.40407
      H   27    0.10388      0.00000     0.39475    0.00137     0.39612
      H   28    0.09952      0.00000     0.39833    0.00215     0.40048
      H   29    0.10734      0.00000     0.39117    0.00149     0.39266
      H   30    0.19313      0.00000     0.30490    0.00197     0.30687
      H   31    0.19422      0.00000     0.29560    0.01018     0.30578
 =======================================================================
   * Total *    0.00000     19.99288    41.80492    0.20220    62.00000

 Normal termination of Gaussian 16 at Thu Dec 10 23:11:39 2020.
