 Gaussian 16, Revision A.03,

 -----------------------------------------------------------
 # opt freq B3LYP/6-31G(d) empiricaldispersion=gd3bj scf=xqc
 -----------------------------------------------------------

 ------------------------------
 CID_45094802_JID_1886_neutraal
 ------------------------------
 Symbolic Z-matrix:
 Charge =  0 Multiplicity = 1

 SCF Done:  E(RB3LYP) =  -1538.75130145     A.U. after   17 cycles
 SCF Done:  E(RB3LYP) =  -1538.75944441     A.U. after   14 cycles
 SCF Done:  E(RB3LYP) =  -1538.75703802     A.U. after   13 cycles
 SCF Done:  E(RB3LYP) =  -1538.76189375     A.U. after   13 cycles
 SCF Done:  E(RB3LYP) =  -1538.76283776     A.U. after   13 cycles
 SCF Done:  E(RB3LYP) =  -1538.76326066     A.U. after   13 cycles
 SCF Done:  E(RB3LYP) =  -1538.76341132     A.U. after   12 cycles
 SCF Done:  E(RB3LYP) =  -1538.76344398     A.U. after   12 cycles
 SCF Done:  E(RB3LYP) =  -1538.76348349     A.U. after   11 cycles
 SCF Done:  E(RB3LYP) =  -1538.76350331     A.U. after   11 cycles
 SCF Done:  E(RB3LYP) =  -1538.76351200     A.U. after   11 cycles
 SCF Done:  E(RB3LYP) =  -1538.76351763     A.U. after   10 cycles
 SCF Done:  E(RB3LYP) =  -1538.76351852     A.U. after    9 cycles
 SCF Done:  E(RB3LYP) =  -1538.76351881     A.U. after    8 cycles
 SCF Done:  E(RB3LYP) =  -1538.76351887     A.U. after    7 cycles
 Optimization completed.
    -- Stationary point found.
 Normal termination of Gaussian 16 at Tue Dec  8 21:32:48 2020.

 --------------------------------------------------------------------
 #N Geom=AllCheck Guess=TCheck SCRF=Check GenChk RB3LYP/6-31G(d) Freq
 --------------------------------------------------------------------

 Structure from the checkpoint file:  "JID_1886.chk"
 ------------------------------
 CID_45094802_JID_1886_neutraal
 ------------------------------
 Charge =  0 Multiplicity = 1

 SCF Done:  E(RB3LYP) =  -1538.76351887     A.U. after    1 cycles

  Exact polarizability: 178.299  12.729 145.491   1.792  -9.941  78.497
 Approx polarizability: 289.979  46.638 263.688   3.125 -30.653 123.006

                      1                      2                      3
                      A                      A                      A
 Frequencies --     30.9110                80.4135                86.8354
 Red. masses --      4.5511                 5.0885                 5.1617
 Frc consts  --      0.0026                 0.0194                 0.0229
 IR Inten    --      0.5294                 0.7415                 1.2367

                      4                      5                      6
                      A                      A                      A
 Frequencies --    100.2276               123.5144               148.2601
 Red. masses --      3.3856                 3.8531                 4.8013
 Frc consts  --      0.0200                 0.0346                 0.0622
 IR Inten    --      0.6174                 1.2428                 1.2830

                      7                      8                      9
                      A                      A                      A
 Frequencies --    211.4772               236.7427               251.4253
 Red. masses --      1.3082                 1.0820                 3.7944
 Frc consts  --      0.0345                 0.0357                 0.1413
 IR Inten    --      1.7101                 1.2458                 1.5699

                     10                     11                     12
                      A                      A                      A
 Frequencies --    298.9959               309.9023               368.2347
 Red. masses --      2.4461                 6.5186                 4.0216
 Frc consts  --      0.1288                 0.3689                 0.3213
 IR Inten    --      5.1545                 1.0539                 9.4772

                     13                     14                     15
                      A                      A                      A
 Frequencies --    396.5885               406.4586               451.8864
 Red. masses --      4.0711                 5.1036                 4.4492
 Frc consts  --      0.3773                 0.4968                 0.5353
 IR Inten    --      3.5670                 6.5663                 8.0490

                     16                     17                     18
                      A                      A                      A
 Frequencies --    468.2917               506.8470               527.9266
 Red. masses --      9.2691                 8.6003                 6.5352
 Frc consts  --      1.1976                 1.3017                 1.0731
 IR Inten    --      8.1907                 6.7056                 6.3975

                     19                     20                     21
                      A                      A                      A
 Frequencies --    559.2647               647.4902               756.8259
 Red. masses --      8.4756                 8.4393                 1.6137
 Frc consts  --      1.5619                 2.0846                 0.5446
 IR Inten    --      3.3355                 5.8913                 4.5447

                     22                     23                     24
                      A                      A                      A
 Frequencies --    821.0314               838.7720               888.2894
 Red. masses --      1.1771                 1.8999                 3.4779
 Frc consts  --      0.4675                 0.7875                 1.6169
 IR Inten    --      3.9680                 6.5555                11.1430

                     25                     26                     27
                      A                      A                      A
 Frequencies --    900.0970               992.5687              1013.1363
 Red. masses --      2.8922                 4.3779                 3.3133
 Frc consts  --      1.3805                 2.5412                 2.0038
 IR Inten    --     23.8443                18.1913                29.7124

                     28                     29                     30
                      A                      A                      A
 Frequencies --   1058.5659              1117.0015              1124.9892
 Red. masses --      3.6823                 1.9556                 1.9227
 Frc consts  --      2.4311                 1.4376                 1.4337
 IR Inten    --      8.1276                23.2705                 4.9773

                     31                     32                     33
                      A                      A                      A
 Frequencies --   1143.3096              1185.4698              1236.0726
 Red. masses --      2.3634                 1.6081                 3.7421
 Frc consts  --      1.8202                 1.3315                 3.3687
 IR Inten    --    153.6741                34.3847               200.2159

                     34                     35                     36
                      A                      A                      A
 Frequencies --   1301.0717              1308.7426              1383.8887
 Red. masses --      2.3318                 1.1580                 1.4624
 Frc consts  --      2.3257                 1.1686                 1.6501
 IR Inten    --    153.0299                30.2043               218.2048

                     37                     38                     39
                      A                      A                      A
 Frequencies --   1386.1911              1406.5187              1435.0629
 Red. masses --      1.3534                 1.4444                 1.2390
 Frc consts  --      1.5322                 1.6836                 1.5034
 IR Inten    --      9.5161                30.9001                 1.6664

                     40                     41                     42
                      A                      A                      A
 Frequencies --   1441.3928              1513.9110              1519.8045
 Red. masses --      1.2454                 1.0628                 1.0412
 Frc consts  --      1.5245                 1.4352                 1.4170
 IR Inten    --     14.1185                16.4846                10.0263

                     43                     44                     45
                      A                      A                      A
 Frequencies --   1522.1053              1531.8716              1538.1558
 Red. masses --      1.0601                 1.0436                 1.0546
 Frc consts  --      1.4470                 1.4429                 1.4701
 IR Inten    --     18.2304                 1.0664                 4.1138

                     46                     47                     48
                      A                      A                      A
 Frequencies --   1568.5714              1780.9887              3032.1918
 Red. masses --      1.0936                10.4364                 1.0659
 Frc consts  --      1.5853                19.5041                 5.7743
 IR Inten    --     16.3478               558.8669                46.6483

                     49                     50                     51
                      A                      A                      A
 Frequencies --   3063.4940              3064.8390              3072.9369
 Red. masses --      1.0355                 1.0355                 1.0972
 Frc consts  --      5.7257                 5.7306                 6.1043
 IR Inten    --      6.4150                33.1390                28.4686

                     52                     53                     54
                      A                      A                      A
 Frequencies --   3125.6326              3135.2811              3140.4407
 Red. masses --      1.0887                 1.1015                 1.0877
 Frc consts  --      6.2668                 6.3793                 6.3206
 IR Inten    --      7.8460                31.3703                26.9353

                     55                     56                     57
                      A                      A                      A
 Frequencies --   3142.7596              3148.7308              3242.5522
 Red. masses --      1.1030                 1.1019                 1.0913
 Frc consts  --      6.4186                 6.4369                 6.7602
 IR Inten    --     21.9703                 4.1388                 7.7941

 - Thermochemistry -
 -------------------
 Temperature   298.150 Kelvin.  Pressure   1.00000 Atm.
 Atom     1 has atomic number  6 and mass  12.00000

 Molecular mass:   206.00061 amu.
 Principal axes and moments of inertia in atomic units:
                           1         2         3
     Eigenvalues --  1778.115433079.418134433.76575
           X            0.99935  -0.03615   0.00154
           Y            0.03611   0.99908   0.02325
           Z           -0.00238  -0.02318   0.99973
 This molecule is an asymmetric top.
 Rotational symmetry number  1.
 Warning -- assumption of classical behavior for rotation
           may cause significant error
 Rotational temperatures (Kelvin)      0.04871     0.02813     0.01954
 Rotational constants (GHZ):           1.01497     0.58607     0.40704
 Zero-point vibrational energy     425242.3 (Joules/Mol)
                                  101.63535 (Kcal/Mol)
 Warning -- explicit consideration of  19 degrees of freedom as
           vibrations may cause significant error
 Vibrational temperatures:     44.47   115.70   124.94   144.21   177.71
          (Kelvin)            213.31   304.27   340.62   361.74   430.19
                              445.88   529.81   570.60   584.80   650.16
                              673.77   729.24   759.57   804.66   931.59
                             1088.90  1181.28  1206.81  1278.05  1295.04
                             1428.09  1457.68  1523.04  1607.12  1618.61
                             1644.97  1705.63  1778.43  1871.95  1882.99
                             1991.11  1994.42  2023.67  2064.74  2073.84
                             2178.18  2186.66  2189.97  2204.02  2213.06
                             2256.82  2562.45  4362.65  4407.68  4409.62
                             4421.27  4497.09  4510.97  4518.39  4521.73
                             4530.32  4665.31

 Zero-point correction=                           0.161966 (Hartree/Particle)
 Thermal correction to Energy=                    0.174481
 Thermal correction to Enthalpy=                  0.175425
 Thermal correction to Gibbs Free Energy=         0.121903
 Sum of electronic and zero-point Energies=          -1538.601553
 Sum of electronic and thermal Energies=             -1538.589038
 Sum of electronic and thermal Enthalpies=           -1538.588094
 Sum of electronic and thermal Free Energies=        -1538.641616

                     E (Thermal)             CV                S
                      KCal/Mol        Cal/Mol-Kelvin    Cal/Mol-Kelvin
 Total                  109.488             44.384            112.647
 Electronic               0.000              0.000              0.000
 Translational            0.889              2.981             41.872
 Rotational               0.889              2.981             31.563
 Vibrational            107.711             38.422             39.212
 Vibration     1          0.594              1.984              5.770
 Vibration     2          0.600              1.962              3.881
 Vibration     3          0.601              1.958              3.730
 Vibration     4          0.604              1.949              3.450
 Vibration     5          0.610              1.929              3.045
 Vibration     6          0.618              1.905              2.694
 Vibration     7          0.643              1.823              2.031
 Vibration     8          0.656              1.784              1.827
 Vibration     9          0.663              1.760              1.721
 Vibration    10          0.692              1.676              1.423
 Vibration    11          0.699              1.655              1.363
 Vibration    12          0.741              1.538              1.087
 Vibration    13          0.763              1.477              0.975
 Vibration    14          0.771              1.456              0.939
 Vibration    15          0.811              1.357              0.790
 Vibration    16          0.825              1.320              0.742
 Vibration    17          0.862              1.235              0.641
 Vibration    18          0.883              1.188              0.592
 Vibration    19          0.915              1.119              0.525

 Optimization completed.
    -- Stationary point found.
 Normal termination of Gaussian 16 at Tue Dec  8 21:37:52 2020.

 ----------------------------------------------------------------------
 # B3LYP/6-311++G(d,p) empiricaldispersion=gd3bj scf=xqc pop=npa geom=c
 heck
 ----------------------------------------------------------------------

 --------------------------------------
 CID_45094802_JID_1886_Energie_neutraal
 --------------------------------------
 Structure from the checkpoint file:  "JID_1886.chk"
 Charge =  0 Multiplicity = 1

 SCF Done:  E(RB3LYP) =  -1538.93649751     A.U. after   17 cycles
 Normal termination of Gaussian 16 at Tue Dec  8 21:41:43 2020.

 ----------------------------------------------------------------------
 # B3LYP/6-311++G(d,p) empiricaldispersion=gd3bj scf=xqc pop=npa geom=c
 heck
 ----------------------------------------------------------------------

 ------------------------------------
 CID_45094802_JID_1886_Energie_kation
 ------------------------------------
 Structure from the checkpoint file:  "JID_1886.chk"
 Charge =  1 Multiplicity = 2

 SCF Done:  E(UB3LYP) =  -1538.63814165     A.U. after   27 cycles
 Normal termination of Gaussian 16 at Tue Dec  8 21:47:36 2020.
 Gaussian 16:  ES64L-G16RevA.03 25-Dec-2016

 ----------------------------------------------------------------------
 # B3LYP/6-311++G(d,p) empiricaldispersion=gd3bj scf=xqc pop=npa geom=c
 heck
 ----------------------------------------------------------------------

 -----------------------------------
 CID_45094802_JID_1886_Energie_anion
 -----------------------------------
 Structure from the checkpoint file:  "JID_1886.chk"
 Charge = -1 Multiplicity = 2

                         Standard orientation:
 ---------------------------------------------------------------------
 Center     Atomic      Atomic             Coordinates (Angstroms)
 Number     Number       Type             X           Y           Z
 ---------------------------------------------------------------------
      1          6           0       -3.846403    0.441355    0.237589
      2          6           0       -3.006822   -0.201998   -0.870627
      3          7           0       -1.929948   -1.011492   -0.336296
      4          6           0       -0.709959   -0.779049   -0.146774
      5          7           0        0.086876    0.394733   -0.264942
      6          6           0        1.457269    0.324720   -0.210918
      7         16           0        2.533538    1.566492   -0.429269
      8         16           0        2.116215   -1.261867    0.145254
      9         16           0        0.242680   -2.218990    0.386062
     10          6           0       -0.535893    1.735753   -0.180202
     11          6           0       -0.614454    2.210750    1.268039
     12          1           0       -4.184191   -0.324316    0.942245
     13          1           0       -4.726297    0.932140   -0.191708
     14          1           0       -3.275708    1.187659    0.798538
     15          1           0       -3.648332   -0.889193   -1.434048
     16          1           0       -2.664028    0.551668   -1.592052
     17          1           0        0.082738    2.404372   -0.780176
     18          1           0       -1.517834    1.686415   -0.635406
     19          1           0        0.386816    2.299709    1.697648
     20          1           0       -1.094396    3.194220    1.309147
     21          1           0       -1.198619    1.515291    1.879095
 ---------------------------------------------------------------------

 SCF Done:  E(UB3LYP) =  -1538.95098120     A.U. after   28 cycles

 The electronic state is 2-A.
 Alpha  occ. eigenvalues --  -88.73656 -88.73451 -88.64473 -14.23648 -14.16216
 Alpha  occ. eigenvalues --  -10.14364 -10.09470 -10.09227 -10.09148 -10.06349
 Alpha  occ. eigenvalues --  -10.05478  -7.82235  -7.81976  -7.73212  -5.78661
 Alpha  occ. eigenvalues --   -5.78493  -5.78284  -5.77945  -5.77550  -5.77297
 Alpha  occ. eigenvalues --   -5.69574  -5.69049  -5.68851  -0.86087  -0.78656
 Alpha  occ. eigenvalues --   -0.69493  -0.66297  -0.63451  -0.61351  -0.54412
 Alpha  occ. eigenvalues --   -0.52708  -0.51154  -0.46902  -0.41035  -0.38232
 Alpha  occ. eigenvalues --   -0.36428  -0.34790  -0.32642  -0.30490  -0.29977
 Alpha  occ. eigenvalues --   -0.28455  -0.27563  -0.27422  -0.25877  -0.24347
 Alpha  occ. eigenvalues --   -0.24076  -0.21810  -0.21427  -0.20039  -0.16544
 Alpha  occ. eigenvalues --   -0.12605  -0.10042  -0.07506  -0.07243   0.04082
 Alpha virt. eigenvalues --    0.06942   0.08611   0.09045   0.09722   0.10327
 Alpha virt. eigenvalues --    0.11537   0.11892   0.12551   0.12726   0.13534
 Alpha virt. eigenvalues --    0.14235   0.14762   0.15361   0.15616   0.15800

  Beta  occ. eigenvalues --  -88.73642 -88.73428 -88.64407 -14.23704 -14.16056
  Beta  occ. eigenvalues --  -10.14199 -10.09466 -10.09218 -10.08240 -10.06324
  Beta  occ. eigenvalues --  -10.05472  -7.82223  -7.81956  -7.73154  -5.78654
  Beta  occ. eigenvalues --   -5.78487  -5.78281  -5.77959  -5.77506  -5.77196
  Beta  occ. eigenvalues --   -5.69570  -5.68815  -5.68812  -0.85738  -0.78318
  Beta  occ. eigenvalues --   -0.69302  -0.65952  -0.63385  -0.60796  -0.54206
  Beta  occ. eigenvalues --   -0.52606  -0.51010  -0.46487  -0.40739  -0.38114
  Beta  occ. eigenvalues --   -0.36345  -0.34397  -0.32442  -0.30329  -0.29691
  Beta  occ. eigenvalues --   -0.28168  -0.27418  -0.27319  -0.25190  -0.24182
  Beta  occ. eigenvalues --   -0.23973  -0.21580  -0.20835  -0.18198  -0.16101
  Beta  occ. eigenvalues --   -0.12383  -0.09166  -0.07158  -0.06502
  Beta virt. eigenvalues --    0.06925   0.08645   0.08880   0.09679   0.10281
  Beta virt. eigenvalues --    0.11021   0.11654   0.12078   0.12550   0.12831
  Beta virt. eigenvalues --    0.13875   0.14251   0.15146   0.15361   0.15611

 Mulliken charges and spin densities:
               1          2
     1  C   -0.161222  -0.204572
     2  C   -0.125679  -0.139497
     3  N    0.036973   0.113388
     4  C   -0.262595   0.061921
     5  N    0.522803  -0.014923
     6  C    0.066339   0.367062
     7  S   -0.874914   0.250370
     8  S   -0.286280   0.112841
     9  S   -0.100037   0.031713
    10  C   -0.227971  -0.012144
    11  C   -0.425507  -0.009117
    12  H    0.088830   0.051941
    13  H   -0.042271   0.147215
    14  H    0.103219   0.036807
    15  H    0.117557   0.048261
    16  H    0.004592   0.132454
    17  H    0.094592   0.011622
    18  H    0.090011  -0.019771
    19  H    0.132076   0.030623
    20  H    0.109591   0.002298
    21  H    0.139892   0.001505
 Sum of Mulliken charges =  -1.00000   1.00000

 Dipole moment (field-independent basis, Debye):
    X=             -5.1750    Y=              0.2131    Z=              0.9951  Tot=              5.2741
 Quadrupole moment (field-independent basis, Debye-Ang):
   XX=           -132.3044   YY=           -111.0880   ZZ=           -101.1465
   XY=            -11.4086   XZ=              2.0069   YZ=              1.6874

 Summary of Natural Population Analysis:

                                       Natural Population
                Natural  -----------------------------------------------
    Atom  No    Charge         Core      Valence    Rydberg      Total
 -----------------------------------------------------------------------
      C    1   -0.28653      0.99966     2.28217    0.00471     3.28653
      C    2   -0.09645      0.99962     2.08374    0.01309     3.09645
      N    3   -0.26997      0.99955     2.75601    0.01441     3.76997
      C    4    0.20220      0.99951     1.77785    0.02044     2.79780
      N    5   -0.27602      0.99955     2.76102    0.01545     3.77602
      C    6    0.09875      0.99967     1.88164    0.01994     2.90125
      S    7   -0.09070      4.99951     3.07548    0.01571     8.09070
      S    8    0.09066      4.99946     2.88910    0.02078     7.90934
      S    9    0.04025      4.99960     2.94135    0.01880     7.95975
      C   10   -0.08813      0.99961     2.07700    0.01151     3.08813
      C   11   -0.29492      0.99966     2.29027    0.00499     3.29492
      H   12    0.09947      0.00000     0.39900    0.00153     0.40053
      H   13    0.09252      0.00000     0.40598    0.00150     0.40748
      H   14    0.09588      0.00000     0.40287    0.00125     0.40412
      H   15    0.09086      0.00000     0.40733    0.00181     0.40914
      H   16    0.08149      0.00000     0.41691    0.00160     0.41851
      H   17    0.11348      0.00000     0.38514    0.00138     0.38652
      H   18    0.09516      0.00000     0.40321    0.00163     0.40484
      H   19    0.11210      0.00000     0.38699    0.00091     0.38790
      H   20    0.09309      0.00000     0.40617    0.00073     0.40691
      H   21    0.09682      0.00000     0.40232    0.00086     0.40318
 =======================================================================
   * Total *    0.00000     22.99540    30.83157    0.17303    54.00000

 Normal termination of Gaussian 16 at Tue Dec  8 21:52:57 2020.
