 Gaussian 16, Revision A.03,

 -----------------------------------------------------------
 # opt freq B3LYP/6-31G(d) empiricaldispersion=gd3bj scf=xqc
 -----------------------------------------------------------

 ------------------------------
 CID_10511926_JID_4457_neutraal
 ------------------------------
 Symbolic Z-matrix:
 Charge =  0 Multiplicity = 1

 SCF Done:  E(RB3LYP) =  -717.535460819     A.U. after   16 cycles
 SCF Done:  E(RB3LYP) =  -717.542196029     A.U. after   15 cycles
 SCF Done:  E(RB3LYP) =  -717.541190901     A.U. after   15 cycles
 SCF Done:  E(RB3LYP) =  -717.545033857     A.U. after   15 cycles
 SCF Done:  E(RB3LYP) =  -717.546522378     A.U. after   14 cycles
 SCF Done:  E(RB3LYP) =  -717.547294651     A.U. after   17 cycles
 SCF Done:  E(RB3LYP) =  -717.547392078     A.U. after   15 cycles
 SCF Done:  E(RB3LYP) =  -717.547491133     A.U. after   14 cycles
 SCF Done:  E(RB3LYP) =  -717.547503509     A.U. after   13 cycles
 SCF Done:  E(RB3LYP) =  -717.547505154     A.U. after   11 cycles
 SCF Done:  E(RB3LYP) =  -717.547505374     A.U. after   10 cycles
 Optimization completed.
    -- Stationary point found.
 Normal termination of Gaussian 16 at Thu Dec 10 09:46:16 2020.

 --------------------------------------------------------------------
 #N Geom=AllCheck Guess=TCheck SCRF=Check GenChk RB3LYP/6-31G(d) Freq
 --------------------------------------------------------------------

 Structure from the checkpoint file:  "JID_4457.chk"
 ------------------------------
 CID_10511926_JID_4457_neutraal
 ------------------------------
 Charge =  0 Multiplicity = 1

 SCF Done:  E(RB3LYP) =  -717.547505375     A.U. after    1 cycles

  Exact polarizability: 163.280  11.418 120.898   0.013   0.001  43.586
 Approx polarizability: 269.312  33.114 242.386   0.001   0.007  66.712

                      1                      2                      3
                      A                      A                      A
 Frequencies --     32.7698                56.3420                93.9661
 Red. masses --     15.5467                 2.3099                 8.9109
 Frc consts  --      0.0098                 0.0043                 0.0464
 IR Inten    --      0.2489                 4.5168                 0.3610

                      4                      5                      6
                      A                      A                      A
 Frequencies --    133.9492               163.1091               210.2978
 Red. masses --     10.2411                12.4446                10.6305
 Frc consts  --      0.1083                 0.1951                 0.2770
 IR Inten    --     10.9868                 2.7300                 1.3819

                      7                      8                      9
                      A                      A                      A
 Frequencies --    249.3196               330.2620               347.2372
 Red. masses --      7.0985                11.5195                12.9404
 Frc consts  --      0.2600                 0.7403                 0.9193
 IR Inten    --      0.0167                 1.2360                 0.4860

                     10                     11                     12
                      A                      A                      A
 Frequencies --    389.9486               413.0305               436.7815
 Red. masses --      7.9822                 3.6024                11.8927
 Frc consts  --      0.7151                 0.3621                 1.3368
 IR Inten    --      4.5339                 0.0101                 1.7523

                     13                     14                     15
                      A                      A                      A
 Frequencies --    479.8583               488.4306               632.3640
 Red. masses --     11.3441                 8.0116                 7.3594
 Frc consts  --      1.5390                 1.1261                 1.7339
 IR Inten    --      5.8327                 1.7225                 5.1272

                     16                     17                     18
                      A                      A                      A
 Frequencies --    649.4151               692.2585               703.1781
 Red. masses --      9.1929                 6.8047                 6.6995
 Frc consts  --      2.2843                 1.9213                 1.9517
 IR Inten    --      6.7111                 0.0001                10.2875

                     19                     20                     21
                      A                      A                      A
 Frequencies --    743.2753               757.2686               760.3829
 Red. masses --      8.6422                 9.8061                 8.5717
 Frc consts  --      2.8130                 3.3132                 2.9200
 IR Inten    --      7.0297                10.8801                 4.7921

                     22                     23                     24
                      A                      A                      A
 Frequencies --    831.9179               874.6825               878.8505
 Red. masses --     10.7459                 4.5773                 1.3166
 Frc consts  --      4.3818                 2.0633                 0.5992
 IR Inten    --     33.1283                 4.4266                 7.5513

                     25                     26                     27
                      A                      A                      A
 Frequencies --    904.6781               967.4509              1049.4027
 Red. masses --      1.3814                 8.9088                 5.6851
 Frc consts  --      0.6661                 4.9128                 3.6887
 IR Inten    --     31.0562                38.6785                53.3212

                     28                     29                     30
                      A                      A                      A
 Frequencies --   1071.3794              1146.4800              1162.3109
 Red. masses --      4.9100                 1.4724                 2.3858
 Frc consts  --      3.3206                 1.1403                 1.8990
 IR Inten    --    130.3127                10.4704                 2.7078

                     31                     32                     33
                      A                      A                      A
 Frequencies --   1206.2063              1206.4783              1250.6198
 Red. masses --      1.2266                 2.3628                 1.4353
 Frc consts  --      1.0514                 2.0263                 1.3227
 IR Inten    --      5.8064                21.2313                 1.2058

                     34                     35                     36
                      A                      A                      A
 Frequencies --   1320.6574              1386.1245              1407.7099
 Red. masses --      6.6499                12.9645                 5.4907
 Frc consts  --      6.8336                14.6761                 6.4107
 IR Inten    --    350.0979               343.1582                12.8556

                     37                     38                     39
                      A                      A                      A
 Frequencies --   1443.9516              1476.7114              1539.4444
 Red. masses --      1.7344                 4.1481                 3.5615
 Frc consts  --      2.1306                 5.3295                 4.9729
 IR Inten    --      7.9881                13.5046               424.0437

                     40                     41                     42
                      A                      A                      A
 Frequencies --   1575.0316              1634.8009              1660.5093
 Red. masses --      1.1969                12.7550                 7.8222
 Frc consts  --      1.7493                20.0845                12.7076
 IR Inten    --     12.1558               124.9796                71.2430

                     43                     44                     45
                      A                      A                      A
 Frequencies --   1679.9949              2350.3798              3075.4653
 Red. masses --      9.7049                12.6778                 1.0537
 Frc consts  --     16.1382                41.2640                 5.8720
 IR Inten    --     25.2956                 9.1339               102.3587

                     46                     47                     48
                      A                      A                      A
 Frequencies --   3132.8348              3252.7851              3277.2718
 Red. masses --      1.1205                 1.0932                 1.0923
 Frc consts  --      6.4796                 6.8146                 6.9120
 IR Inten    --     31.4072                 1.0558                11.1267

 - Thermochemistry -
 -------------------
 Temperature   298.150 Kelvin.  Pressure   1.00000 Atm.
 Atom     1 has atomic number  6 and mass  12.00000

 Molecular mass:   192.01711 amu.
 Principal axes and moments of inertia in atomic units:
                           1         2         3
     Eigenvalues --  1367.339473501.914144857.47219
           X            1.00000   0.00030   0.00003
           Y           -0.00030   1.00000  -0.00000
           Z           -0.00003   0.00000   1.00000
 This molecule is an asymmetric top.
 Rotational symmetry number  1.
 Warning -- assumption of classical behavior for rotation
           may cause significant error
 Rotational temperatures (Kelvin)      0.06334     0.02473     0.01783
 Rotational constants (GHZ):           1.31989     0.51536     0.37154
 Zero-point vibrational energy     308203.3 (Joules/Mol)
                                   73.66237 (Kcal/Mol)
 Warning -- explicit consideration of  14 degrees of freedom as
           vibrations may cause significant error
 Vibrational temperatures:     47.15    81.06   135.20   192.72   234.68
          (Kelvin)            302.57   358.72   475.17   499.60   561.05
                              594.26   628.43   690.41   702.74   909.83
                              934.36   996.01  1011.72  1069.41  1089.54
                             1094.02  1196.94  1258.47  1264.47  1301.63
                             1391.95  1509.86  1541.48  1649.53  1672.31
                             1735.46  1735.85  1799.36  1900.13  1994.32
                             2025.38  2077.52  2124.66  2214.92  2266.12
                             2352.11  2389.10  2417.14  3381.67  4424.91
                             4507.45  4680.03  4715.26

 Zero-point correction=                           0.117388 (Hartree/Particle)
 Thermal correction to Energy=                    0.128360
 Thermal correction to Enthalpy=                  0.129304
 Thermal correction to Gibbs Free Energy=         0.078886
 Sum of electronic and zero-point Energies=           -717.430117
 Sum of electronic and thermal Energies=              -717.419145
 Sum of electronic and thermal Enthalpies=            -717.418201
 Sum of electronic and thermal Free Energies=         -717.468619

                     E (Thermal)             CV                S
                      KCal/Mol        Cal/Mol-Kelvin    Cal/Mol-Kelvin
 Total                   80.547             40.142            106.114
 Electronic               0.000              0.000              0.000
 Translational            0.889              2.981             41.663
 Rotational               0.889              2.981             31.520
 Vibrational             78.770             34.180             32.931
 Vibration     1          0.594              1.983              5.654
 Vibration     2          0.596              1.975              4.581
 Vibration     3          0.603              1.954              3.576
 Vibration     4          0.613              1.919              2.889
 Vibration     5          0.623              1.888              2.513
 Vibration     6          0.642              1.825              2.041
 Vibration     7          0.662              1.764              1.735
 Vibration     8          0.713              1.615              1.259
 Vibration     9          0.725              1.581              1.179
 Vibration    10          0.758              1.492              1.000
 Vibration    11          0.777              1.442              0.916
 Vibration    12          0.797              1.390              0.837
 Vibration    13          0.836              1.295              0.710
 Vibration    14          0.844              1.276              0.688

                           ! Non-Optimized Parameters !
 Normal termination of Gaussian 16 at Thu Dec 10 09:50:19 2020.

 ----------------------------------------------------------------------
 # B3LYP/6-311++G(d,p) empiricaldispersion=gd3bj scf=xqc pop=npa geom=c
 heck
 ----------------------------------------------------------------------

 --------------------------------------
 CID_10511926_JID_4457_Energie_neutraal
 --------------------------------------
 Structure from the checkpoint file:  "JID_4457.chk"
 Charge =  0 Multiplicity = 1

 SCF Done:  E(RB3LYP) =  -717.746162923     A.U. after   16 cycles
 Normal termination of Gaussian 16 at Thu Dec 10 09:51:38 2020.

 ----------------------------------------------------------------------
 # B3LYP/6-311++G(d,p) empiricaldispersion=gd3bj scf=xqc pop=npa geom=c
 heck
 ----------------------------------------------------------------------

 ------------------------------------
 CID_10511926_JID_4457_Energie_kation
 ------------------------------------
 Structure from the checkpoint file:  "JID_4457.chk"
 Charge =  1 Multiplicity = 2

 SCF Done:  E(UB3LYP) =  -717.411164766     A.U. after   27 cycles
 Normal termination of Gaussian 16 at Thu Dec 10 09:54:37 2020.
 Gaussian 16:  ES64L-G16RevA.03 25-Dec-2016

 ----------------------------------------------------------------------
 # B3LYP/6-311++G(d,p) empiricaldispersion=gd3bj scf=xqc pop=npa geom=c
 heck
 ----------------------------------------------------------------------

 -----------------------------------
 CID_10511926_JID_4457_Energie_anion
 -----------------------------------
 Structure from the checkpoint file:  "JID_4457.chk"
 Charge = -1 Multiplicity = 2

                         Standard orientation:
 ---------------------------------------------------------------------
 Center     Atomic      Atomic             Coordinates (Angstroms)
 Number     Number       Type             X           Y           Z
 ---------------------------------------------------------------------
      1          6           0       -3.654679   -0.100613   -0.001747
      2          8           0       -2.881420    1.112747    0.000847
      3          6           0       -1.575383    0.734663    0.000315
      4          6           0       -1.484883   -0.660518    0.000452
      5          8           0       -2.734832   -1.203201    0.001137
      6          6           0       -0.273159   -1.310411    0.000395
      7          6           0        0.874484   -0.501664    0.000149
      8          6           0        0.808922    0.903037    0.000006
      9          6           0       -0.456676    1.537617    0.000099
     10          6           0        1.944197    1.775326   -0.000224
     11          7           0        2.745379    2.618190   -0.000246
     12          7           0        2.168040   -1.193954   -0.000071
     13          8           0        3.186796   -0.507955    0.000245
     14          8           0        2.148627   -2.425244   -0.000667
     15          1           0       -4.271875   -0.137909    0.900843
     16          1           0       -4.266092   -0.137800   -0.908382
     17          1           0       -0.179451   -2.387162    0.000558
     18          1           0       -0.526821    2.617829    0.000042
 ---------------------------------------------------------------------

 SCF Done:  E(UB3LYP) =  -717.802320843     A.U. after   23 cycles

 The electronic state is 2-A.
 Alpha  occ. eigenvalues --  -19.07504 -19.07193 -18.95596 -18.95447 -14.33796
 Alpha  occ. eigenvalues --  -14.15825 -10.20777 -10.12624 -10.11966 -10.08374
 Alpha  occ. eigenvalues --  -10.07876 -10.07493 -10.06709 -10.06131  -1.03858
 Alpha  occ. eigenvalues --   -1.03807  -0.94812  -0.86687  -0.76926  -0.75026
 Alpha  occ. eigenvalues --   -0.67783  -0.65714  -0.59953  -0.56391  -0.52442
 Alpha  occ. eigenvalues --   -0.48707  -0.44796  -0.43486  -0.42490  -0.39473
 Alpha  occ. eigenvalues --   -0.36113  -0.36064  -0.34263  -0.33638  -0.32431
 Alpha  occ. eigenvalues --   -0.30804  -0.30265  -0.28756  -0.28705  -0.25698
 Alpha  occ. eigenvalues --   -0.24497  -0.22391  -0.19237  -0.19138  -0.14748
 Alpha  occ. eigenvalues --   -0.14069  -0.13226  -0.11118  -0.11035   0.01138
 Alpha virt. eigenvalues --    0.06597   0.08465   0.09367   0.09936   0.10570
 Alpha virt. eigenvalues --    0.12363   0.13367   0.13394   0.15105   0.16318
 Alpha virt. eigenvalues --    0.16791   0.17195   0.18129   0.18351   0.18670

  Beta  occ. eigenvalues --  -19.07511 -19.07134 -18.95130 -18.94982 -14.33279
  Beta  occ. eigenvalues --  -14.15604 -10.20778 -10.12643 -10.11750 -10.08210
  Beta  occ. eigenvalues --  -10.07634 -10.07575 -10.06765 -10.06044  -1.03789
  Beta  occ. eigenvalues --   -1.02872  -0.94740  -0.85819  -0.76613  -0.74739
  Beta  occ. eigenvalues --   -0.67396  -0.65401  -0.59634  -0.55702  -0.52346
  Beta  occ. eigenvalues --   -0.48340  -0.44571  -0.43393  -0.42426  -0.38888
  Beta  occ. eigenvalues --   -0.35903  -0.33958  -0.33453  -0.33444  -0.32172
  Beta  occ. eigenvalues --   -0.30382  -0.29702  -0.28716  -0.28466  -0.25609
  Beta  occ. eigenvalues --   -0.23583  -0.22057  -0.19091  -0.18417  -0.13621
  Beta  occ. eigenvalues --   -0.12759  -0.11262  -0.10573  -0.09913
  Beta virt. eigenvalues --    0.06593   0.07811   0.09033   0.09390   0.09940
  Beta virt. eigenvalues --    0.10567   0.12377   0.13371   0.15123   0.16123
  Beta virt. eigenvalues --    0.16383   0.16810   0.17255   0.18130   0.18477

 Mulliken charges and spin densities:
               1          2
     1  C    0.045925  -0.000136
     2  O   -0.176409   0.010977
     3  C    0.384156   0.150219
     4  C    0.366845   0.002590
     5  O   -0.166771  -0.001247
     6  C   -0.996983   0.089554
     7  C   -1.190237   0.037368
     8  C    2.531853   0.225373
     9  C   -0.775248  -0.080724
    10  C   -0.834782  -0.064056
    11  N   -0.325965   0.109398
    12  N   -0.325947   0.173580
    13  O   -0.118891   0.173777
    14  O   -0.156093   0.174383
    15  H    0.161469  -0.000196
    16  H    0.161605  -0.000201
    17  H    0.245850  -0.005634
    18  H    0.169623   0.004978
 Sum of Mulliken charges =  -1.00000   1.00000

 Dipole moment (field-independent basis, Debye):
    X=            -12.3744    Y=              0.2159    Z=             -0.0030  Tot=             12.3763
 Quadrupole moment (field-independent basis, Debye-Ang):
   XX=           -119.5585   YY=           -109.5843   ZZ=            -81.6977
   XY=             -1.5103   XZ=              0.0169   YZ=             -0.0021

 Summary of Natural Population Analysis:

                                       Natural Population
                Natural  -----------------------------------------------
    Atom  No    Charge         Core      Valence    Rydberg      Total
 -----------------------------------------------------------------------
      C    1    0.15557      0.99964     1.83183    0.01296     2.84443
      O    2   -0.27039      0.99987     3.26249    0.00803     4.27039
      C    3    0.16214      0.99935     1.82714    0.01138     2.83786
      C    4    0.12514      0.99935     1.86388    0.01163     2.87486
      O    5   -0.27603      0.99987     3.26790    0.00827     4.27603
      C    6   -0.10303      0.99950     2.09472    0.00881     3.10303
      C    7    0.08749      0.99940     1.89941    0.01369     2.91251
      C    8   -0.04439      0.99940     2.03446    0.01053     3.04439
      C    9   -0.12694      0.99952     2.12016    0.00726     3.12694
      C   10    0.14851      0.99962     1.83349    0.01838     2.85149
      N   11   -0.16071      0.99978     2.64949    0.01144     3.66071
      N   12    0.29361      0.99972     2.18075    0.02593     3.20639
      O   13   -0.17312      0.99990     3.16423    0.00899     4.17312
      O   14   -0.19408      0.99990     3.18655    0.00763     4.19408
      H   15    0.07200      0.00000     0.42650    0.00150     0.42800
      H   16    0.07187      0.00000     0.42663    0.00150     0.42813
      H   17    0.12378      0.00000     0.37500    0.00123     0.37622
      H   18    0.10860      0.00000     0.39047    0.00094     0.39140
 =======================================================================
   * Total *    0.00000     13.99480    34.83508    0.17012    49.00000

 Normal termination of Gaussian 16 at Thu Dec 10 09:57:07 2020.
