 Gaussian 16, Revision A.03,

 -----------------------------------------------------------
 # opt freq B3LYP/6-31G(d) empiricaldispersion=gd3bj scf=xqc
 -----------------------------------------------------------

 ------------------------------
 CID_54956933_JID_8268_neutraal
 ------------------------------
 Symbolic Z-matrix:
 Charge =  0 Multiplicity = 1

 SCF Done:  E(RB3LYP) =  -769.616291757     A.U. after   15 cycles
 SCF Done:  E(RB3LYP) =  -769.619403385     A.U. after   13 cycles
 SCF Done:  E(RB3LYP) =  -769.615995970     A.U. after   14 cycles
 SCF Done:  E(RB3LYP) =  -769.619232829     A.U. after   13 cycles
 SCF Done:  E(RB3LYP) =  -769.620813729     A.U. after   10 cycles
 SCF Done:  E(RB3LYP) =  -769.621247769     A.U. after   12 cycles
 SCF Done:  E(RB3LYP) =  -769.621532730     A.U. after   12 cycles
 SCF Done:  E(RB3LYP) =  -769.621644535     A.U. after   12 cycles
 SCF Done:  E(RB3LYP) =  -769.621753509     A.U. after   11 cycles
 SCF Done:  E(RB3LYP) =  -769.621795078     A.U. after   10 cycles
 SCF Done:  E(RB3LYP) =  -769.621892976     A.U. after    9 cycles
 SCF Done:  E(RB3LYP) =  -769.621893626     A.U. after    8 cycles
 SCF Done:  E(RB3LYP) =  -769.621893763     A.U. after    8 cycles
 SCF Done:  E(RB3LYP) =  -769.621893800     A.U. after    8 cycles
 SCF Done:  E(RB3LYP) =  -769.621893821     A.U. after    6 cycles
 Optimization completed.
    -- Stationary point found.
 Normal termination of Gaussian 16 at Fri Dec 11 20:10:07 2020.

 --------------------------------------------------------------------
 #N Geom=AllCheck Guess=TCheck SCRF=Check GenChk RB3LYP/6-31G(d) Freq
 --------------------------------------------------------------------

 Structure from the checkpoint file:  "JID_8268.chk"
 ------------------------------
 CID_54956933_JID_8268_neutraal
 ------------------------------
 Charge =  0 Multiplicity = 1

 SCF Done:  E(RB3LYP) =  -769.621893821     A.U. after    1 cycles

  Exact polarizability: 157.917  -0.715 181.402  13.324   4.124 153.685
 Approx polarizability: 201.398  -4.036 286.217  31.955  11.708 254.395

                      1                      2                      3
                      A                      A                      A
 Frequencies --     24.8122                25.4497                42.5383
 Red. masses --      4.2301                 4.3087                 2.5860
 Frc consts  --      0.0015                 0.0016                 0.0028
 IR Inten    --      0.2725                 1.5314                 0.0658

                      4                      5                      6
                      A                      A                      A
 Frequencies --     52.3273                76.1493                95.7951
 Red. masses --      3.1338                 3.5731                 3.6026
 Frc consts  --      0.0051                 0.0122                 0.0195
 IR Inten    --      1.6705                 0.1105                 2.9379

                      7                      8                      9
                      A                      A                      A
 Frequencies --    104.3179               124.8557               142.1363
 Red. masses --      3.0167                 2.0689                 2.2396
 Frc consts  --      0.0193                 0.0190                 0.0267
 IR Inten    --      0.3255                 1.3106                 1.5532

                     10                     11                     12
                      A                      A                      A
 Frequencies --    176.8204               200.6847               217.4064
 Red. masses --      3.1124                 2.2062                 2.7837
 Frc consts  --      0.0573                 0.0524                 0.0775
 IR Inten    --      1.8133                 1.2125                 8.0871

                     13                     14                     15
                      A                      A                      A
 Frequencies --    228.3301               239.3700               260.6616
 Red. masses --      1.2597                 1.6414                 1.4229
 Frc consts  --      0.0387                 0.0554                 0.0570
 IR Inten    --      1.2199                 1.6533                 1.1210

                     16                     17                     18
                      A                      A                      A
 Frequencies --    294.8494               319.0404               336.9506
 Red. masses --      2.6584                 3.7837                 2.7543
 Frc consts  --      0.1362                 0.2269                 0.1842
 IR Inten    --      1.2985                 2.7672                 3.8135

                     19                     20                     21
                      A                      A                      A
 Frequencies --    361.5008               387.4823               427.8036
 Red. masses --      3.5215                 3.0540                 2.7576
 Frc consts  --      0.2711                 0.2702                 0.2974
 IR Inten    --      1.1138                11.2932                 2.9516

                     22                     23                     24
                      A                      A                      A
 Frequencies --    439.1740               487.6085               496.1831
 Red. masses --      3.1692                 3.5146                 3.3719
 Frc consts  --      0.3601                 0.4923                 0.4891
 IR Inten    --      2.0640                 0.8515                 5.4779

                     25                     26                     27
                      A                      A                      A
 Frequencies --    507.4253               555.9926               576.8515
 Red. masses --      2.8608                 3.2251                 3.6610
 Frc consts  --      0.4340                 0.5874                 0.7178
 IR Inten    --     17.5876                 6.9818                 3.6962

                     28                     29                     30
                      A                      A                      A
 Frequencies --    586.8036               606.6935               674.1162
 Red. masses --      3.7616                 4.8844                 2.9880
 Frc consts  --      0.7631                 1.0593                 0.8000
 IR Inten    --      9.5620                 6.1021                 0.8233

                     31                     32                     33
                      A                      A                      A
 Frequencies --    726.7558               759.4471               770.6207
 Red. masses --      3.4186                 1.9252                 1.7352
 Frc consts  --      1.0638                 0.6542                 0.6071
 IR Inten    --     12.6780                11.0577                20.6523

                     34                     35                     36
                      A                      A                      A
 Frequencies --    778.9720               796.7610               811.6696
 Red. masses --      1.5170                 1.8080                 3.3280
 Frc consts  --      0.5423                 0.6762                 1.2918
 IR Inten    --     12.7616                30.6910                18.5488

                     37                     38                     39
                      A                      A                      A
 Frequencies --    839.1273               846.3506               879.6923
 Red. masses --      1.4514                 1.9547                 1.5144
 Frc consts  --      0.6021                 0.8249                 0.6905
 IR Inten    --      5.9332                28.2836                 1.3773

                     40                     41                     42
                      A                      A                      A
 Frequencies --    886.4094               911.0345               944.4890
 Red. masses --      2.9365                 2.4517                 1.2230
 Frc consts  --      1.3594                 1.1989                 0.6428
 IR Inten    --     62.4332                 5.8908                 5.7015

                     43                     44                     45
                      A                      A                      A
 Frequencies --    946.8447               962.8101               970.8715
 Red. masses --      1.3289                 3.4647                 1.2917
 Frc consts  --      0.7019                 1.8923                 0.7174
 IR Inten    --      1.1413                 5.8917                 0.0791

                     46                     47                     48
                      A                      A                      A
 Frequencies --    978.3400               996.9748              1017.1246
 Red. masses --      1.4060                 2.5787                 2.1935
 Frc consts  --      0.7929                 1.5101                 1.3370
 IR Inten    --      0.7370                 5.0602                 1.0502

                     49                     50                     51
                      A                      A                      A
 Frequencies --   1067.1345              1072.9802              1079.6057
 Red. masses --      2.0284                 1.3751                 3.2201
 Frc consts  --      1.3609                 0.9327                 2.2113
 IR Inten    --      9.4183                13.2380                14.1363

                     52                     53                     54
                      A                      A                      A
 Frequencies --   1083.8297              1105.7308              1120.4403
 Red. masses --      1.3623                 1.5588                 2.1576
 Frc consts  --      0.9429                 1.1229                 1.5958
 IR Inten    --      0.3598                 1.3874                31.9698

                     55                     56                     57
                      A                      A                      A
 Frequencies --   1133.9412              1140.4615              1143.2598
 Red. masses --      1.2482                 2.2338                 1.4428
 Frc consts  --      0.9456                 1.7118                 1.1111
 IR Inten    --      3.9211                 6.3346                 0.2956

                     58                     59                     60
                      A                      A                      A
 Frequencies --   1161.4809              1163.2830              1190.5594
 Red. masses --      1.3584                 2.2964                 1.2862
 Frc consts  --      1.0797                 1.8309                 1.0742
 IR Inten    --      5.9546                40.5665                 3.6217

                     61                     62                     63
                      A                      A                      A
 Frequencies --   1199.2027              1204.2132              1228.4077
 Red. masses --      1.3318                 1.3710                 1.8090
 Frc consts  --      1.1285                 1.1713                 1.6083
 IR Inten    --      1.2256                 0.5584                 3.0153

                     64                     65                     66
                      A                      A                      A
 Frequencies --   1236.1518              1244.0802              1281.0642
 Red. masses --      2.3552                 1.6430                 2.5901
 Frc consts  --      2.1204                 1.4982                 2.5044
 IR Inten    --      7.2047                36.1628                24.1852

                     67                     68                     69
                      A                      A                      A
 Frequencies --   1298.7672              1323.9354              1336.9364
 Red. masses --      2.4809                 2.5793                 1.8186
 Frc consts  --      2.4656                 2.6637                 1.9152
 IR Inten    --     12.3231                17.7480                 8.0282

                     70                     71                     72
                      A                      A                      A
 Frequencies --   1351.9123              1363.9113              1405.6412
 Red. masses --      1.5100                 1.4419                 1.6402
 Frc consts  --      1.6260                 1.5803                 1.9094
 IR Inten    --      0.9209                23.1889                64.1695

                     73                     74                     75
                      A                      A                      A
 Frequencies --   1414.8526              1425.8559              1430.6682
 Red. masses --      1.5286                 1.2334                 2.2680
 Frc consts  --      1.8028                 1.4774                 2.7351
 IR Inten    --     16.6699                 1.0582                73.7743

                     76                     77                     78
                      A                      A                      A
 Frequencies --   1447.0797              1488.5158              1489.8619
 Red. masses --      1.2221                 1.1032                 1.6064
 Frc consts  --      1.5078                 1.4402                 2.1009
 IR Inten    --      2.6856                 2.5068                12.5419

                     79                     80                     81
                      A                      A                      A
 Frequencies --   1496.2646              1508.8251              1512.4052
 Red. masses --      1.2578                 1.1728                 1.8285
 Frc consts  --      1.6592                 1.5731                 2.4642
 IR Inten    --     18.1640                 9.3684                 8.1915

                     82                     83                     84
                      A                      A                      A
 Frequencies --   1514.6954              1522.0393              1530.8315
 Red. masses --      1.0654                 1.0488                 1.3120
 Frc consts  --      1.4402                 1.4315                 1.8115
 IR Inten    --      1.5760                 2.5221                 6.8476

                     85                     86                     87
                      A                      A                      A
 Frequencies --   1533.4766              1533.9645              1535.1581
 Red. masses --      1.0599                 1.1385                 1.0747
 Frc consts  --      1.4685                 1.5783                 1.4922
 IR Inten    --      2.1975                 1.0584                 1.8834

                     88                     89                     90
                      A                      A                      A
 Frequencies --   1549.3679              1552.8838              1640.5679
 Red. masses --      1.0736                 1.8049                 4.6423
 Frc consts  --      1.5185                 2.5644                 7.3616
 IR Inten    --     33.3755                62.3386                19.5377

                     91                     92                     93
                      A                      A                      A
 Frequencies --   1667.4598              1749.1247              3043.5310
 Red. masses --      5.5454                10.2347                 1.0346
 Frc consts  --      9.0844                18.4488                 5.6467
 IR Inten    --      7.5168               220.8995                30.9288

                     94                     95                     96
                      A                      A                      A
 Frequencies --   3052.0365              3055.8712              3085.2710
 Red. masses --      1.0363                 1.0366                 1.0794
 Frc consts  --      5.6874                 5.7032                 6.0537
 IR Inten    --     29.1231                28.4805                17.1552

                     97                     98                     99
                      A                      A                      A
 Frequencies --   3085.9953              3108.8612              3116.7033
 Red. masses --      1.0739                 1.1026                 1.1026
 Frc consts  --      6.0255                 6.2785                 6.3105
 IR Inten    --     12.6354                 0.6295                43.5711

                    100                    101                    102
                      A                      A                      A
 Frequencies --   3117.3140              3119.6846              3130.3736
 Red. masses --      1.1062                 1.0994                 1.0873
 Frc consts  --      6.3335                 6.3041                 6.2774
 IR Inten    --     13.5365                58.4755                22.3539

                    103                    104                    105
                      A                      A                      A
 Frequencies --   3140.5601              3150.7721              3163.7407
 Red. masses --      1.1008                 1.0544                 1.0980
 Frc consts  --      6.3970                 6.1673                 6.4752
 IR Inten    --     24.1106                11.4728                16.3017

                    106                    107                    108
                      A                      A                      A
 Frequencies --   3169.6922              3170.0412              3178.8341
 Red. masses --      1.0766                 1.0768                 1.0845
 Frc consts  --      6.3731                 6.3757                 6.4567
 IR Inten    --     17.2029                 0.9379                 4.8384

                    109                    110                    111
                      A                      A                      A
 Frequencies --   3185.6318              3196.4635              3208.7077
 Red. masses --      1.0880                 1.0925                 1.0976
 Frc consts  --      6.5055                 6.5766                 6.6583
 IR Inten    --      6.4982                35.2575                25.4350

                    112                    113                    114
                      A                      A                      A
 Frequencies --   3230.0030              3254.7007              3552.6196
 Red. masses --      1.1191                 1.1170                 1.0726
 Frc consts  --      6.8789                 6.9713                 7.9760
 IR Inten    --      6.3517                10.9841                 5.6185

 - Thermochemistry -
 -------------------
 Temperature   298.150 Kelvin.  Pressure   1.00000 Atm.
 Atom     1 has atomic number  6 and mass  12.00000

 Molecular mass:   246.17321 amu.
 Principal axes and moments of inertia in atomic units:
                           1         2         3
     Eigenvalues --  3055.528575841.638056688.34292
           X            0.99954  -0.02983  -0.00463
           Y            0.02972   0.99935  -0.02052
           Z            0.00524   0.02037   0.99978
 This molecule is an asymmetric top.
 Rotational symmetry number  1.
 Warning -- assumption of classical behavior for rotation
           may cause significant error
 Rotational temperatures (Kelvin)      0.02835     0.01483     0.01295
 Rotational constants (GHZ):           0.59065     0.30894     0.26983
 Zero-point vibrational energy     920482.5 (Joules/Mol)
                                  220.00061 (Kcal/Mol)
 Warning -- explicit consideration of  29 degrees of freedom as
           vibrations may cause significant error
 Vibrational temperatures:     35.70    36.62    61.20    75.29   109.56
          (Kelvin)            137.83   150.09   179.64   204.50   254.41
                              288.74   312.80   328.52   344.40   375.03
                              424.22   459.03   484.80   520.12   557.50
                              615.51   631.87   701.56   713.90   730.07
                              799.95   829.96   844.28   872.90   969.90
                             1045.64  1092.68  1108.75  1120.77  1146.36
                             1167.81  1207.32  1217.71  1265.68  1275.35
                             1310.78  1358.91  1362.30  1385.27  1396.87
                             1407.61  1434.42  1463.42  1535.37  1543.78
                             1553.31  1559.39  1590.90  1612.06  1631.49
                             1640.87  1644.90  1671.11  1673.70  1712.95
                             1725.39  1732.59  1767.40  1778.55  1789.95
                             1843.17  1868.64  1904.85  1923.55  1945.10
                             1962.36  2022.40  2035.66  2051.49  2058.41
                             2082.03  2141.64  2143.58  2152.79  2170.86
                             2176.01  2179.31  2189.88  2202.53  2206.33
                             2207.03  2208.75  2229.19  2234.25  2360.41
                             2399.10  2516.60  4378.96  4391.20  4396.72
                             4439.02  4440.06  4472.96  4484.24  4485.12
                             4488.53  4503.91  4518.57  4533.26  4551.92
                             4560.48  4560.98  4573.63  4583.41  4599.00
                             4616.61  4647.25  4682.79  5111.43

 Zero-point correction=                           0.350593 (Hartree/Particle)
 Thermal correction to Energy=                    0.369194
 Thermal correction to Enthalpy=                  0.370138
 Thermal correction to Gibbs Free Energy=         0.302412
 Sum of electronic and zero-point Energies=           -769.271301
 Sum of electronic and thermal Energies=              -769.252700
 Sum of electronic and thermal Enthalpies=            -769.251756
 Sum of electronic and thermal Free Energies=         -769.319482

                     E (Thermal)             CV                S
                      KCal/Mol        Cal/Mol-Kelvin    Cal/Mol-Kelvin
 Total                  231.673             70.308            142.541
 Electronic               0.000              0.000              0.000
 Translational            0.889              2.981             42.403
 Rotational               0.889              2.981             33.145
 Vibrational            229.895             64.346             66.993
 Vibration     1          0.593              1.985              6.206
 Vibration     2          0.593              1.985              6.156
 Vibration     3          0.595              1.980              5.137
 Vibration     4          0.596              1.977              4.727
 Vibration     5          0.599              1.965              3.988
 Vibration     6          0.603              1.952              3.538
 Vibration     7          0.605              1.946              3.372
 Vibration     8          0.610              1.928              3.024
 Vibration     9          0.616              1.911              2.775
 Vibration    10          0.628              1.871              2.362
 Vibration    11          0.638              1.839              2.127
 Vibration    12          0.646              1.815              1.981
 Vibration    13          0.651              1.798              1.892
 Vibration    14          0.657              1.780              1.808
 Vibration    15          0.669              1.745              1.657
 Vibration    16          0.689              1.683              1.446
 Vibration    17          0.705              1.637              1.315
 Vibration    18          0.718              1.602              1.227
 Vibration    19          0.736              1.552              1.116
 Vibration    20          0.756              1.497              1.010
 Vibration    21          0.789              1.410              0.866
 Vibration    22          0.799              1.385              0.829
 Vibration    23          0.844              1.278              0.690
 Vibration    24          0.852              1.258              0.668
 Vibration    25          0.863              1.234              0.640
 Vibration    26          0.911              1.127              0.532
 Vibration    27          0.933              1.081              0.491
 Vibration    28          0.944              1.060              0.473
 Vibration    29          0.965              1.018              0.438

 Optimization completed.
    -- Stationary point found.
 Normal termination of Gaussian 16 at Fri Dec 11 20:33:28 2020.

 ----------------------------------------------------------------------
 # B3LYP/6-311++G(d,p) empiricaldispersion=gd3bj scf=xqc pop=npa geom=c
 heck
 ----------------------------------------------------------------------

 --------------------------------------
 CID_54956933_JID_8268_Energie_neutraal
 --------------------------------------
 Structure from the checkpoint file:  "JID_8268.chk"
 Charge =  0 Multiplicity = 1

 SCF Done:  E(RB3LYP) =  -769.833441887     A.U. after   16 cycles
 Normal termination of Gaussian 16 at Fri Dec 11 20:44:54 2020.

 ----------------------------------------------------------------------
 # B3LYP/6-311++G(d,p) empiricaldispersion=gd3bj scf=xqc pop=npa geom=c
 heck
 ----------------------------------------------------------------------

 ------------------------------------
 CID_54956933_JID_8268_Energie_kation
 ------------------------------------
 Structure from the checkpoint file:  "JID_8268.chk"
 Charge =  1 Multiplicity = 2

 SCF Done:  E(UB3LYP) =  -769.555156176     A.U. after   24 cycles
 Normal termination of Gaussian 16 at Fri Dec 11 21:09:24 2020.
 Gaussian 16:  ES64L-G16RevA.03 25-Dec-2016

 ----------------------------------------------------------------------
 # B3LYP/6-311++G(d,p) empiricaldispersion=gd3bj scf=xqc pop=npa geom=c
 heck
 ----------------------------------------------------------------------

 -----------------------------------
 CID_54956933_JID_8268_Energie_anion
 -----------------------------------
 Structure from the checkpoint file:  "JID_8268.chk"
 Charge = -1 Multiplicity = 2

                         Standard orientation:
 ---------------------------------------------------------------------
 Center     Atomic      Atomic             Coordinates (Angstroms)
 Number     Number       Type             X           Y           Z
 ---------------------------------------------------------------------
      1          6           0       -1.032754    2.459004   -1.018456
      2          6           0       -1.783884    1.741459    0.115238
      3          6           0       -3.155717    2.386026    0.378592
      4          6           0       -1.926061    0.248417   -0.155228
      5          6           0       -2.557258   -0.170166   -1.336502
      6          6           0       -2.707023   -1.512969   -1.667276
      7          6           0       -2.234937   -2.488625   -0.787079
      8          6           0       -1.633932   -2.102812    0.404816
      9          6           0       -1.465337   -0.746725    0.734251
     10          7           0       -0.831895   -0.454766    1.975199
     11          6           0        0.588375   -0.819772    2.028143
     12          6           0        1.398880    0.058625    1.060344
     13          8           0        1.329532    1.279480    1.188162
     14          7           0        2.146953   -0.540010    0.079555
     15          6           0        2.008002   -1.958013   -0.265725
     16          6           0        2.777305    0.321730   -0.891485
     17          6           0        3.864562    1.250053   -0.442965
     18          6           0        4.208963    0.042813   -1.278558
     19          1           0       -1.559686    2.373705   -1.975581
     20          1           0       -0.028127    2.042371   -1.132347
     21          1           0       -0.930110    3.525229   -0.786757
     22          1           0       -1.167471    1.887954    1.006280
     23          1           0       -3.804167    2.306207   -0.501765
     24          1           0       -3.669115    1.896730    1.213580
     25          1           0       -3.044109    3.449889    0.618505
     26          1           0       -2.927926    0.585415   -2.023953
     27          1           0       -3.192259   -1.795592   -2.597000
     28          1           0       -2.354739   -3.543916   -1.016565
     29          1           0       -1.304588   -2.852020    1.119387
     30          1           0       -0.900653    0.534137    2.192066
     31          1           0        0.957938   -0.616089    3.038590
     32          1           0        0.688907   -1.888857    1.846737
     33          1           0        0.986038   -2.208188   -0.571212
     34          1           0        2.681684   -2.165139   -1.097699
     35          1           0        2.299045   -2.603841    0.568522
     36          1           0        2.108543    0.683335   -1.672645
     37          1           0        3.899749    2.236399   -0.894474
     38          1           0        4.122902    1.227655    0.609779
     39          1           0        4.711554   -0.782630   -0.782057
     40          1           0        4.489818    0.180567   -2.318634
 ---------------------------------------------------------------------

 SCF Done:  E(UB3LYP) =  -769.820553736     A.U. after   33 cycles
 SCF Done:  E(UB3LYP) =  -769.820553736     a.u. after    1 cycles

 The electronic state is 2-A.
 Alpha  occ. eigenvalues --  -18.99470 -14.25421 -14.22446 -10.17516 -10.11943
 Alpha  occ. eigenvalues --  -10.11614 -10.11511 -10.10302 -10.09105 -10.08741
 Alpha  occ. eigenvalues --  -10.08383 -10.08241 -10.07987 -10.07953 -10.07731
 Alpha  occ. eigenvalues --  -10.07682 -10.07616 -10.06783  -0.94773  -0.85051
 Alpha  occ. eigenvalues --   -0.83960  -0.75983  -0.75604  -0.71390  -0.65411
 Alpha  occ. eigenvalues --   -0.64228  -0.61453  -0.60503  -0.59844  -0.53846
 Alpha  occ. eigenvalues --   -0.53551  -0.51408  -0.49796  -0.47751  -0.45286
 Alpha  occ. eigenvalues --   -0.43704  -0.41406  -0.40887  -0.39469  -0.39120
 Alpha  occ. eigenvalues --   -0.38007  -0.36982  -0.35146  -0.34631  -0.33991
 Alpha  occ. eigenvalues --   -0.33677  -0.33387  -0.32521  -0.31039  -0.30474
 Alpha  occ. eigenvalues --   -0.30273  -0.29944  -0.28829  -0.27975  -0.27624
 Alpha  occ. eigenvalues --   -0.27506  -0.26501  -0.25333  -0.23889  -0.23673
 Alpha  occ. eigenvalues --   -0.22237  -0.21091  -0.19940  -0.16803  -0.15637
 Alpha  occ. eigenvalues --   -0.15285  -0.12420   0.04179
 Alpha virt. eigenvalues --    0.06089   0.06500   0.06788   0.07612   0.07832
 Alpha virt. eigenvalues --    0.08111   0.08227   0.08632   0.08666   0.09298
 Alpha virt. eigenvalues --    0.09887   0.10327   0.10687   0.10837   0.11141

  Beta  occ. eigenvalues --  -18.99461 -14.25421 -14.22446 -10.17503 -10.11934
  Beta  occ. eigenvalues --  -10.11615 -10.11497 -10.10256 -10.09104 -10.08740
  Beta  occ. eigenvalues --  -10.08352 -10.08233 -10.07979 -10.07941 -10.07723
  Beta  occ. eigenvalues --  -10.07672 -10.07601 -10.06774  -0.94753  -0.85038
  Beta  occ. eigenvalues --   -0.83954  -0.75967  -0.75588  -0.71377  -0.65388
  Beta  occ. eigenvalues --   -0.64206  -0.61391  -0.60471  -0.59827  -0.53822
  Beta  occ. eigenvalues --   -0.53528  -0.51344  -0.49768  -0.47730  -0.45251
  Beta  occ. eigenvalues --   -0.43684  -0.41372  -0.40844  -0.39425  -0.39083
  Beta  occ. eigenvalues --   -0.37987  -0.36952  -0.35123  -0.34609  -0.33972
  Beta  occ. eigenvalues --   -0.33655  -0.33358  -0.32503  -0.31009  -0.30455
  Beta  occ. eigenvalues --   -0.30255  -0.29912  -0.28801  -0.27948  -0.27597
  Beta  occ. eigenvalues --   -0.27483  -0.26477  -0.25322  -0.23875  -0.23659
  Beta  occ. eigenvalues --   -0.22210  -0.21066  -0.19926  -0.16775  -0.15624
  Beta  occ. eigenvalues --   -0.15268  -0.12411
  Beta virt. eigenvalues --    0.06029   0.06848   0.07085   0.07304   0.07661
  Beta virt. eigenvalues --    0.08298   0.08440   0.08523   0.08729   0.08922
  Beta virt. eigenvalues --    0.09601   0.10144   0.10634   0.10816   0.11205

 Mulliken charges and spin densities:
               1          2
     1  C   -0.407469  -0.220991
     2  C    0.491818  -0.383485
     3  C   -0.345249  -0.317265
     4  C    0.163980   0.706665
     5  C   -0.590164   0.157059
     6  C    0.481371  -0.900584
     7  C    0.740934  -1.032522
     8  C    0.026307  -0.350001
     9  C   -0.667833   0.571641
    10  N    0.038094   0.051643
    11  C   -0.129794  -0.506551
    12  C   -0.544878   0.326559
    13  O   -0.237733   0.003368
    14  N    0.167877   0.104410
    15  C    1.219405  -1.636032
    16  C   -1.168043   1.279574
    17  C    0.249760  -0.577459
    18  C    0.805164  -1.215821
    19  H   -0.033703   0.162985
    20  H    0.014486   0.107390
    21  H    0.116090   0.023446
    22  H    0.135687  -0.004162
    23  H    0.038812   0.116302
    24  H    0.088438   0.063915
    25  H    0.094990   0.037831
    26  H    0.050515   0.090141
    27  H   -0.334509   0.499421
    28  H   -0.458542   0.636789
    29  H   -0.271629   0.437676
    30  H    0.264759   0.017472
    31  H   -0.106280   0.321901
    32  H    0.204953  -0.075037
    33  H    0.325593  -0.111696
    34  H   -0.398369   0.553821
    35  H   -0.753875   0.939603
    36  H    0.011324   0.224188
    37  H    0.115839   0.022802
    38  H    0.052704   0.111487
    39  H   -0.164139   0.320355
    40  H   -0.286695   0.443162
 Sum of Mulliken charges =  -1.00000   1.00000

 Dipole moment (field-independent basis, Debye):
    X=             -3.0780    Y=              6.1515    Z=              1.8115  Tot=              7.1131
 Quadrupole moment (field-independent basis, Debye-Ang):
   XX=           -182.2812   YY=           -169.7073   ZZ=           -152.1598
   XY=              2.9859   XZ=              0.6595   YZ=             -1.6209

 Summary of Natural Population Analysis:

                                       Natural Population
                Natural  -----------------------------------------------
    Atom  No    Charge         Core      Valence    Rydberg      Total
 -----------------------------------------------------------------------
      C    1   -0.27861      0.99965     2.27278    0.00619     3.27861
      C    2   -0.12409      0.99958     2.11541    0.00910     3.12409
      C    3   -0.27901      0.99965     2.27496    0.00440     3.27901
      C    4   -0.02828      0.99945     2.01705    0.01178     3.02828
      C    5   -0.09516      0.99952     2.08665    0.00900     3.09516
      C    6   -0.10902      0.99956     2.09916    0.01030     3.10902
      C    7   -0.09841      0.99956     2.08859    0.01026     3.09841
      C    8   -0.11137      0.99951     2.10146    0.01040     3.11137
      C    9    0.07764      0.99942     1.91049    0.01244     2.92236
      N   10   -0.32285      0.99971     2.81242    0.01071     3.82285
      C   11   -0.12419      0.99958     2.11333    0.01128     3.12419
      C   12    0.34150      0.99964     1.63545    0.02341     2.65850
      O   13   -0.33004      0.99988     3.32458    0.00559     4.33004
      N   14   -0.25532      0.99963     2.74277    0.01293     3.75532
      C   15   -0.17923      0.99962     2.17138    0.00823     3.17923
      C   16   -0.01402      0.99955     2.00140    0.01307     3.01402
      C   17   -0.18917      0.99961     2.18003    0.00953     3.18917
      C   18   -0.20216      0.99962     2.19335    0.00920     3.20216
      H   19    0.09365      0.00000     0.40551    0.00084     0.40635
      H   20    0.10810      0.00000     0.39077    0.00112     0.39190
      H   21    0.09597      0.00000     0.40335    0.00068     0.40403
      H   22    0.10231      0.00000     0.39550    0.00219     0.39769
      H   23    0.09672      0.00000     0.40240    0.00088     0.40328
      H   24    0.09968      0.00000     0.39958    0.00074     0.40032
      H   25    0.09579      0.00000     0.40345    0.00076     0.40421
      H   26    0.09805      0.00000     0.40040    0.00155     0.40195
      H   27    0.10086      0.00000     0.39812    0.00102     0.39914
      H   28    0.10291      0.00000     0.39581    0.00128     0.39709
      H   29    0.10505      0.00000     0.39349    0.00146     0.39495
      H   30    0.18273      0.00000     0.31452    0.00275     0.31727
      H   31    0.10588      0.00000     0.39307    0.00105     0.39412
      H   32    0.10308      0.00000     0.39517    0.00175     0.39692
      H   33    0.10133      0.00000     0.39655    0.00212     0.39867
      H   34    0.10625      0.00000     0.39213    0.00162     0.39375
      H   35    0.10000      0.00000     0.39749    0.00252     0.40000
      H   36    0.10086      0.00000     0.39768    0.00146     0.39914
      H   37    0.10241      0.00000     0.39682    0.00076     0.39759
      H   38    0.10801      0.00000     0.39102    0.00097     0.39199
      H   39    0.10742      0.00000     0.39112    0.00146     0.39258
      H   40    0.10474      0.00000     0.39396    0.00130     0.39526
 =======================================================================
   * Total *    0.00000     17.99273    48.78918    0.21810    67.00000

 Normal termination of Gaussian 16 at Fri Dec 11 21:43:30 2020.
