 Gaussian 16, Revision A.03,

 -----------------------------------------------------------
 # opt freq B3LYP/6-31G(d) empiricaldispersion=gd3bj scf=xqc
 -----------------------------------------------------------

 ------------------------------
 CID_89277200_JID_1828_neutraal
 ------------------------------
 Symbolic Z-matrix:
 Charge =  0 Multiplicity = 1

 SCF Done:  E(RB3LYP) =  -479.383833790     A.U. after   13 cycles
 SCF Done:  E(RB3LYP) =  -479.388357769     A.U. after   12 cycles
 SCF Done:  E(RB3LYP) =  -479.388030808     A.U. after   12 cycles
 SCF Done:  E(RB3LYP) =  -479.389497313     A.U. after   12 cycles
 SCF Done:  E(RB3LYP) =  -479.390025591     A.U. after   11 cycles
 SCF Done:  E(RB3LYP) =  -479.389983349     A.U. after   12 cycles
 SCF Done:  E(RB3LYP) =  -479.390263513     A.U. after   11 cycles
 SCF Done:  E(RB3LYP) =  -479.390322149     A.U. after   10 cycles
 SCF Done:  E(RB3LYP) =  -479.390331270     A.U. after   11 cycles
 SCF Done:  E(RB3LYP) =  -479.390349889     A.U. after   10 cycles
 SCF Done:  E(RB3LYP) =  -479.390357929     A.U. after   10 cycles
 SCF Done:  E(RB3LYP) =  -479.390359206     A.U. after    8 cycles
 SCF Done:  E(RB3LYP) =  -479.390359494     A.U. after    8 cycles
 SCF Done:  E(RB3LYP) =  -479.390359493     A.U. after    7 cycles
 Optimization completed.
    -- Stationary point found.

 1\1\GINC-NODE128\FOpt\RB3LYP\6-31G(d)\C8H17N3\VSC10255\08-Dec-2020\0\\
 # opt freq B3LYP/6-31G(d) empiricaldispersion=gd3bj scf=xqc\\CID_89277
 200_JID_1828_neutraal\\0,1\C,0.5407259976,0.0425724212,-0.3743179884\C
 ,0.3607941809,-1.1790200573,-1.280957786\C,0.8393388699,-2.4953940631,
 -0.6559837651\C,0.0429360282,-2.9362294149,0.5858548419\N,-1.392264705
 6,-3.0738283158,0.3550877934\C,-1.7825258378,-4.0318004321,-0.67692012
 19\C,-3.2984409817,-4.1857750746,-0.7334026051\C,-3.9288558391,-2.7914
 924788,-0.7675792232\N,-3.5321569812,-2.0015337921,0.3880273169\C,-2.3

 Normal termination of Gaussian 16 at Tue Dec  8 21:18:33 2020.

 --------------------------------------------------------------------
 #N Geom=AllCheck Guess=TCheck SCRF=Check GenChk RB3LYP/6-31G(d) Freq
 --------------------------------------------------------------------

 Structure from the checkpoint file:  "JID_1828.chk"
 ------------------------------
 CID_89277200_JID_1828_neutraal
 ------------------------------
 Charge =  0 Multiplicity = 1

 SCF Done:  E(RB3LYP) =  -479.390359493     A.U. after    1 cycles

  Exact polarizability: 113.597  -0.620 101.283  11.183   1.112  91.956
 Approx polarizability: 148.515   3.515 145.069  22.610   2.757 138.406

                      1                      2                      3
                      A                      A                      A
 Frequencies --     44.4820                51.7370               106.7939
 Red. masses --      3.2189                 3.5045                 2.8540
 Frc consts  --      0.0038                 0.0055                 0.0192
 IR Inten    --      0.0106                 1.0783                 0.5384

                      4                      5                      6
                      A                      A                      A
 Frequencies --    122.9966               187.5072               214.6530
 Red. masses --      2.1526                 2.3849                 2.8736
 Frc consts  --      0.0192                 0.0494                 0.0780
 IR Inten    --      1.0728                 1.0172                 4.6120

                      7                      8                      9
                      A                      A                      A
 Frequencies --    225.1515               280.6116               331.5040
 Red. masses --      1.9938                 1.5199                 1.8669
 Frc consts  --      0.0596                 0.0705                 0.1209
 IR Inten    --      1.9434                 1.6930                 7.7924

                     10                     11                     12
                      A                      A                      A
 Frequencies --    358.1530               381.4623               405.4169
 Red. masses --      2.1238                 2.2611                 1.1348
 Frc consts  --      0.1605                 0.1939                 0.1099
 IR Inten    --      5.9866                 3.8966                35.1586

                     13                     14                     15
                      A                      A                      A
 Frequencies --    422.4871               495.2374               503.5493
 Red. masses --      2.1447                 3.4325                 2.7405
 Frc consts  --      0.2255                 0.4960                 0.4094
 IR Inten    --      2.9342                 9.3039                 1.9910

                     16                     17                     18
                      A                      A                      A
 Frequencies --    541.9774               645.9017               668.1108
 Red. masses --      3.2727                 2.7380                 2.6508
 Frc consts  --      0.5664                 0.6730                 0.6971
 IR Inten    --      2.4429                21.7536                25.2826

                     19                     20                     21
                      A                      A                      A
 Frequencies --    712.5547               769.0119               812.2583
 Red. masses --      2.9298                 1.3329                 2.3777
 Frc consts  --      0.8764                 0.4644                 0.9243
 IR Inten    --      9.6717                15.7061                 2.4703

                     22                     23                     24
                      A                      A                      A
 Frequencies --    857.0147               891.3921               901.9086
 Red. masses --      1.6899                 1.8121                 1.7181
 Frc consts  --      0.7313                 0.8483                 0.8234
 IR Inten    --    193.1936                 0.4171                 1.5248

                     25                     26                     27
                      A                      A                      A
 Frequencies --    916.7996               938.8356               955.2604
 Red. masses --      1.5784                 1.8266                 2.1251
 Frc consts  --      0.7816                 0.9486                 1.1425
 IR Inten    --      3.3975                 5.9520                 2.2078

                     28                     29                     30
                      A                      A                      A
 Frequencies --    976.0066              1006.4100              1061.7079
 Red. masses --      2.3095                 1.5694                 2.0720
 Frc consts  --      1.2962                 0.9366                 1.3761
 IR Inten    --     12.1914                 8.0252                14.3344

                     31                     32                     33
                      A                      A                      A
 Frequencies --   1081.3651              1126.3058              1134.4709
 Red. masses --      1.7696                 1.8380                 1.9115
 Frc consts  --      1.2192                 1.3737                 1.4495
 IR Inten    --      2.1670                20.2877                 1.8728

                     34                     35                     36
                      A                      A                      A
 Frequencies --   1144.5521              1188.2491              1198.3849
 Red. masses --      1.8535                 2.1241                 1.9252
 Frc consts  --      1.4306                 1.7670                 1.6290
 IR Inten    --      8.5796                33.3870                14.5812

                     37                     38                     39
                      A                      A                      A
 Frequencies --   1236.2065              1249.0068              1263.3949
 Red. masses --      1.2898                 2.9319                 1.3445
 Frc consts  --      1.1613                 2.6948                 1.2644
 IR Inten    --      4.7707                14.7535                10.4295

                     40                     41                     42
                      A                      A                      A
 Frequencies --   1285.5410              1305.1527              1324.6982
 Red. masses --      1.3758                 1.4888                 1.3021
 Frc consts  --      1.3396                 1.4942                 1.3462
 IR Inten    --      3.6727                22.2950                 0.8801

                     43                     44                     45
                      A                      A                      A
 Frequencies --   1348.1857              1366.9602              1386.8959
 Red. masses --      1.1766                 1.3486                 1.4031
 Frc consts  --      1.2600                 1.4847                 1.5902
 IR Inten    --      7.2309                33.7390                 7.3875

                     46                     47                     48
                      A                      A                      A
 Frequencies --   1392.9011              1405.9280              1415.6266
 Red. masses --      1.3568                 1.6236                 1.5681
 Frc consts  --      1.5510                 1.8908                 1.8514
 IR Inten    --      5.7303                40.3092                54.1315

                     49                     50                     51
                      A                      A                      A
 Frequencies --   1433.2787              1448.6942              1483.3668
 Red. masses --      1.2985                 1.2482                 2.0224
 Frc consts  --      1.5716                 1.5434                 2.6219
 IR Inten    --     13.4811                 6.5356                86.0737

                     52                     53                     54
                      A                      A                      A
 Frequencies --   1510.2002              1514.4598              1519.8936
 Red. masses --      1.0886                 1.1264                 1.0753
 Frc consts  --      1.4628                 1.5221                 1.4635
 IR Inten    --      3.8898                 5.8147                 4.0905

                     55                     56                     57
                      A                      A                      A
 Frequencies --   1521.9713              1527.9725              1534.5488
 Red. masses --      1.1008                 1.1067                 1.0592
 Frc consts  --      1.5024                 1.5223                 1.4696
 IR Inten    --      7.3378                 4.7615                 4.1323

                     58                     59                     60
                      A                      A                      A
 Frequencies --   1553.6071              1558.8134              1655.1757
 Red. masses --      1.0596                 1.1358                 1.2711
 Frc consts  --      1.5069                 1.6260                 2.0517
 IR Inten    --      4.7611                 4.3704               124.2404

                     61                     62                     63
                      A                      A                      A
 Frequencies --   1731.2801              2982.8588              3008.7894
 Red. masses --      4.0296                 1.0734                 1.0624
 Frc consts  --      7.1162                 5.6272                 5.6666
 IR Inten    --    329.2189                52.2974                46.4054

                     64                     65                     66
                      A                      A                      A
 Frequencies --   3015.2982              3035.7364              3038.0371
 Red. masses --      1.0729                 1.0644                 1.0880
 Frc consts  --      5.7473                 5.7793                 5.9166
 IR Inten    --     39.9113                72.5303                 9.3549

                     67                     68                     69
                      A                      A                      A
 Frequencies --   3039.8742              3040.8221              3056.5081
 Red. masses --      1.0616                 1.0492                 1.0681
 Frc consts  --      5.7799                 5.7162                 5.8793
 IR Inten    --     25.0737                34.3309                43.2250

                     70                     71                     72
                      A                      A                      A
 Frequencies --   3069.7834              3073.2935              3075.4350
 Red. masses --      1.0966                 1.0879                 1.0997
 Frc consts  --      6.0887                 6.0543                 6.1285
 IR Inten    --     40.6687               109.1708                20.9198

                     73                     74                     75
                      A                      A                      A
 Frequencies --   3100.3814              3104.9777              3130.7619
 Red. masses --      1.1056                 1.0999                 1.1019
 Frc consts  --      6.2613                 6.2476                 6.3635
 IR Inten    --     45.5023                44.6334                13.4434

                     76                     77                     78
                      A                      A                      A
 Frequencies --   3164.8451              3508.1199              3611.4162
 Red. masses --      1.0889                 1.0495                 1.0943
 Frc consts  --      6.4263                 7.6101                 8.4088
 IR Inten    --     14.9725                 9.9973                12.2789

 - Thermochemistry -
 -------------------
 Temperature   298.150 Kelvin.  Pressure   1.00000 Atm.
 Atom     1 has atomic number  6 and mass  12.00000

 Molecular mass:   155.14225 amu.
 Principal axes and moments of inertia in atomic units:
                           1         2         3
     Eigenvalues --  1135.065232203.308192551.44555
           X            0.99973  -0.02327  -0.00171
           Y            0.02326   0.99970  -0.00785
           Z            0.00189   0.00780   0.99997
 This molecule is an asymmetric top.
 Rotational symmetry number  1.
 Warning -- assumption of classical behavior for rotation
           may cause significant error
 Rotational temperatures (Kelvin)      0.07631     0.03931     0.03395
 Rotational constants (GHZ):           1.58999     0.81911     0.70734
 Zero-point vibrational energy     674041.4 (Joules/Mol)
                                  161.09976 (Kcal/Mol)
 Warning -- explicit consideration of  16 degrees of freedom as
           vibrations may cause significant error
 Vibrational temperatures:     64.00    74.44   153.65   176.96   269.78
          (Kelvin)            308.84   323.94   403.74   476.96   515.30
                              548.84   583.30   607.86   712.54   724.50
                              779.78   929.31   961.26  1025.21  1106.44
                             1168.66  1233.05  1282.51  1297.65  1319.07
                             1350.78  1374.41  1404.26  1448.00  1527.56
                             1555.84  1620.50  1632.25  1646.76  1709.63
                             1724.21  1778.63  1797.04  1817.74  1849.61
                             1877.82  1905.95  1939.74  1966.75  1995.43
                             2004.07  2022.82  2036.77  2062.17  2084.35
                             2134.23  2172.84  2178.97  2186.79  2189.78
                             2198.41  2207.87  2235.29  2242.78  2381.43
                             2490.93  4291.67  4328.98  4338.34  4367.75
                             4371.06  4373.70  4375.06  4397.63  4416.73
                             4421.78  4424.87  4460.76  4467.37  4504.47
                             4553.51  5047.40  5196.02

 Zero-point correction=                           0.256729 (Hartree/Particle)
 Thermal correction to Energy=                    0.268294
 Thermal correction to Enthalpy=                  0.269238
 Thermal correction to Gibbs Free Energy=         0.219094
 Sum of electronic and zero-point Energies=           -479.133631
 Sum of electronic and thermal Energies=              -479.122065
 Sum of electronic and thermal Enthalpies=            -479.121121
 Sum of electronic and thermal Free Energies=         -479.171266

                     E (Thermal)             CV                S
                      KCal/Mol        Cal/Mol-Kelvin    Cal/Mol-Kelvin
 Total                  168.357             44.162            105.538
 Electronic               0.000              0.000              0.000
 Translational            0.889              2.981             41.027
 Rotational               0.889              2.981             30.235
 Vibrational            166.580             38.200             34.276
 Vibration     1          0.595              1.980              5.049
 Vibration     2          0.596              1.977              4.750
 Vibration     3          0.606              1.944              3.326
 Vibration     4          0.610              1.930              3.053
 Vibration     5          0.632              1.857              2.252
 Vibration     6          0.645              1.819              2.004
 Vibration     7          0.650              1.803              1.917
 Vibration     8          0.680              1.709              1.530
 Vibration     9          0.714              1.613              1.253
 Vibration    10          0.733              1.558              1.130
 Vibration    11          0.751              1.510              1.033
 Vibration    12          0.770              1.458              0.943
 Vibration    13          0.785              1.421              0.884
 Vibration    14          0.851              1.261              0.670
 Vibration    15          0.859              1.242              0.649
 Vibration    16          0.897              1.157              0.561

                           ! Non-Optimized Parameters !

 1\1\GINC-NODE128\Freq\RB3LYP\6-31G(d)\C8H17N3\VSC10255\08-Dec-2020\0\\
 #N Geom=AllCheck Guess=TCheck SCRF=Check GenChk RB3LYP/6-31G(d) Freq\\
 CID_89277200_JID_1828_neutraal\\0,1\C,0.5407259976,0.0425724212,-0.374
 3179884\C,0.3607941809,-1.1790200573,-1.280957786\C,0.8393388699,-2.49
 53940631,-0.6559837651\C,0.0429360282,-2.9362294149,0.5858548419\N,-1.
 3922647056,-3.0738283158,0.3550877934\C,-1.7825258378,-4.0318004321,-0
 .6769201219\C,-3.2984409817,-4.1857750746,-0.7334026051\C,-3.928855839
 1,-2.7914924788,-0.7675792232\N,-3.5321569812,-2.0015337921,0.38802731

 Normal termination of Gaussian 16 at Tue Dec  8 21:25:59 2020.

 ----------------------------------------------------------------------
 # B3LYP/6-311++G(d,p) empiricaldispersion=gd3bj scf=xqc pop=npa geom=c
 heck
 ----------------------------------------------------------------------

 --------------------------------------
 CID_89277200_JID_1828_Energie_neutraal
 --------------------------------------
 Structure from the checkpoint file:  "JID_1828.chk"
 Charge =  0 Multiplicity = 1

 SCF Done:  E(RB3LYP) =  -479.529587999     A.U. after   13 cycles
 Normal termination of Gaussian 16 at Tue Dec  8 21:29:02 2020.

 ----------------------------------------------------------------------
 # B3LYP/6-311++G(d,p) empiricaldispersion=gd3bj scf=xqc pop=npa geom=c
 heck
 ----------------------------------------------------------------------

 ------------------------------------
 CID_89277200_JID_1828_Energie_kation
 ------------------------------------
 Structure from the checkpoint file:  "JID_1828.chk"
 Charge =  1 Multiplicity = 2

 SCF Done:  E(UB3LYP) =  -479.250105337     A.U. after   21 cycles
 Normal termination of Gaussian 16 at Tue Dec  8 21:36:05 2020.
 Gaussian 16:  ES64L-G16RevA.03 25-Dec-2016

 -----------------------------------
 CID_89277200_JID_1828_Energie_anion
 -----------------------------------
 Structure from the checkpoint file:  "JID_1828.chk"
 Charge = -1 Multiplicity = 2

                         Standard orientation:
 ---------------------------------------------------------------------
 Center     Atomic      Atomic             Coordinates (Angstroms)
 Number     Number       Type             X           Y           Z
 ---------------------------------------------------------------------
      1          6           0       -2.866146    0.825130    0.897762
      2          6           0       -2.164603   -0.528521    1.046510
      3          6           0       -1.952602   -1.270082   -0.279228
      4          6           0       -1.004082   -0.558359   -1.261327
      5          7           0        0.321014   -0.281018   -0.714345
      6          6           0        1.081252   -1.445282   -0.265366
      7          6           0        2.490767   -1.046556    0.157933
      8          6           0        2.395019    0.158546    1.096643
      9          7           0        1.711486    1.273941    0.459848
     10          6           0        0.739886    0.984014   -0.332003
     11          7           0       -0.000591    2.050774   -0.879899
     12          1           0       -2.255680    1.530637    0.325568
     13          1           0       -3.059006    1.272607    1.879245
     14          1           0       -3.832226    0.711817    0.388778
     15          1           0       -1.193343   -0.382231    1.537280
     16          1           0       -2.751141   -1.174173    1.713116
     17          1           0       -1.579630   -2.282016   -0.077480
     18          1           0       -2.916763   -1.399953   -0.790517
     19          1           0       -0.888201   -1.181708   -2.160341
     20          1           0       -1.453065    0.383699   -1.572948
     21          1           0        1.104755   -2.176067   -1.085879
     22          1           0        0.573023   -1.930730    0.580668
     23          1           0        2.985724   -1.900122    0.634898
     24          1           0        3.080920   -0.766327   -0.722978
     25          1           0        1.875141   -0.136235    2.023799
     26          1           0        3.395168    0.492381    1.396029
     27          1           0       -0.082157    2.005178   -1.891913
     28          1           0        0.456173    2.914027   -0.602091
 ---------------------------------------------------------------------

 SCF Done:  E(UB3LYP) =  -479.514144898     A.U. after   29 cycles

 The electronic state is 2-A.
 Alpha  occ. eigenvalues --  -14.22401 -14.20680 -14.15898 -10.15379 -10.09552
 Alpha  occ. eigenvalues --  -10.09157 -10.08315 -10.06456 -10.05888 -10.05840
 Alpha  occ. eigenvalues --  -10.04822  -0.87884  -0.79170  -0.76267  -0.68632
 Alpha  occ. eigenvalues --   -0.66378  -0.61653  -0.57175  -0.54010  -0.51795
 Alpha  occ. eigenvalues --   -0.46796  -0.43188  -0.41913  -0.38954  -0.37524
 Alpha  occ. eigenvalues --   -0.35858  -0.34728  -0.33865  -0.32391  -0.31434
 Alpha  occ. eigenvalues --   -0.29709  -0.28699  -0.28242  -0.27907  -0.26874
 Alpha  occ. eigenvalues --   -0.24196  -0.23413  -0.22699  -0.22172  -0.22049
 Alpha  occ. eigenvalues --   -0.14942  -0.14112  -0.10440   0.04689
 Alpha virt. eigenvalues --    0.06889   0.07312   0.07917   0.09214   0.09698
 Alpha virt. eigenvalues --    0.09989   0.10262   0.10486   0.12068   0.12302
 Alpha virt. eigenvalues --    0.12666   0.13346   0.13663   0.14215   0.15514

  Beta  occ. eigenvalues --  -14.22401 -14.20648 -14.15895 -10.15373 -10.09521
  Beta  occ. eigenvalues --  -10.09128 -10.08308 -10.06437 -10.05874 -10.05818
  Beta  occ. eigenvalues --  -10.04805  -0.87866  -0.79138  -0.76240  -0.68595
  Beta  occ. eigenvalues --   -0.66337  -0.61610  -0.57132  -0.53958  -0.51744
  Beta  occ. eigenvalues --   -0.46738  -0.43121  -0.41863  -0.38917  -0.37465
  Beta  occ. eigenvalues --   -0.35819  -0.34701  -0.33831  -0.32347  -0.31409
  Beta  occ. eigenvalues --   -0.29677  -0.28668  -0.28203  -0.27865  -0.26833
  Beta  occ. eigenvalues --   -0.24162  -0.23380  -0.22659  -0.22136  -0.22018
  Beta  occ. eigenvalues --   -0.14907  -0.14091  -0.10426
  Beta virt. eigenvalues --    0.07071   0.07733   0.08099   0.08675   0.09615
  Beta virt. eigenvalues --    0.10100   0.10399   0.10851   0.11035   0.12438
  Beta virt. eigenvalues --    0.12733   0.13139   0.13685   0.14157   0.14510

 Mulliken charges and spin densities:
               1          2
     1  C    0.499372  -1.118472
     2  C   -0.253752   0.149744
     3  C    0.040944  -0.402500
     4  C    0.467578  -0.587971
     5  N   -0.121788   0.189426
     6  C    0.490618  -0.768162
     7  C    0.375663  -0.681186
     8  C    0.115072  -0.514913
     9  N   -0.197380   0.046601
    10  C    0.411450  -0.645629
    11  N   -0.373257   0.060287
    12  H    0.111575   0.080362
    13  H    0.053338   0.065078
    14  H   -0.160483   0.287196
    15  H   -0.005032   0.136520
    16  H   -0.335671   0.504529
    17  H   -0.234391   0.387486
    18  H   -0.453552   0.616733
    19  H   -0.662912   0.871638
    20  H   -0.016367   0.126057
    21  H   -0.629162   0.794999
    22  H    0.115839   0.039668
    23  H   -0.233876   0.379580
    24  H   -0.009370   0.170930
    25  H    0.040127   0.076148
    26  H    0.069403   0.099621
    27  H   -0.294554   0.554243
    28  H    0.190568   0.081984
 Sum of Mulliken charges =  -1.00000   1.00000

 Dipole moment (field-independent basis, Debye):
    X=              1.7188    Y=              2.5068    Z=              3.0546  Tot=              4.3092
 Quadrupole moment (field-independent basis, Debye-Ang):
   XX=           -120.8889   YY=           -115.1880   ZZ=           -109.6224
   XY=             -3.0975   XZ=             -0.4713   YZ=             -3.1580

 Summary of Natural Population Analysis:

                                       Natural Population
                Natural  -----------------------------------------------
    Atom  No    Charge         Core      Valence    Rydberg      Total
 -----------------------------------------------------------------------
      C    1   -0.29046      0.99966     2.28648    0.00433     3.29046
      C    2   -0.19313      0.99964     2.18535    0.00814     3.19313
      C    3   -0.19406      0.99962     2.18565    0.00879     3.19406
      C    4   -0.08348      0.99960     2.07096    0.01292     3.08348
      N    5   -0.27079      0.99964     2.75606    0.01508     3.77079
      C    6   -0.07834      0.99960     2.06718    0.01156     3.07834
      C    7   -0.20115      0.99963     2.19353    0.00799     3.20115
      C    8   -0.09285      0.99962     2.08259    0.01064     3.09285
      N    9   -0.31502      0.99966     2.80474    0.01062     3.81502
      C   10    0.31336      0.99956     1.66881    0.01826     2.68664
      N   11   -0.41300      0.99972     2.90350    0.00978     3.91300
      H   12    0.10768      0.00000     0.39064    0.00168     0.39232
      H   13    0.09483      0.00000     0.40432    0.00086     0.40517
      H   14    0.09253      0.00000     0.40630    0.00117     0.40747
      H   15    0.09475      0.00000     0.40359    0.00167     0.40525
      H   16    0.09488      0.00000     0.40396    0.00116     0.40512
      H   17    0.09812      0.00000     0.40017    0.00171     0.40188
      H   18    0.09873      0.00000     0.39968    0.00158     0.40127
      H   19    0.09698      0.00000     0.40025    0.00277     0.40302
      H   20    0.10374      0.00000     0.39403    0.00223     0.39626
      H   21    0.09946      0.00000     0.39857    0.00197     0.40054
      H   22    0.08844      0.00000     0.40964    0.00193     0.41156
      H   23    0.10148      0.00000     0.39728    0.00124     0.39852
      H   24    0.09769      0.00000     0.40111    0.00121     0.40231
      H   25    0.08410      0.00000     0.41430    0.00160     0.41590
      H   26    0.08971      0.00000     0.40878    0.00152     0.41029
      H   27    0.18584      0.00000     0.31107    0.00308     0.31416
      H   28    0.18998      0.00000     0.30765    0.00237     0.31002
 =======================================================================
   * Total *   -0.00000     10.99595    31.85618    0.14787    43.00000

 Normal termination of Gaussian 16 at Tue Dec  8 21:45:34 2020.
