 Gaussian 16, Revision A.03,

 -----------------------------------------------------------
 # opt freq B3LYP/6-31G(d) empiricaldispersion=gd3bj scf=xqc
 -----------------------------------------------------------

 -------------------------------
 CID_54520948_JID_10622_neutraal
 -------------------------------
 Symbolic Z-matrix:
 Charge =  0 Multiplicity = 1

 SCF Done:  E(RB3LYP) =  -995.710228252     A.U. after   15 cycles
 SCF Done:  E(RB3LYP) =  -995.716728646     A.U. after   13 cycles
 SCF Done:  E(RB3LYP) =  -995.715389496     A.U. after   14 cycles
 SCF Done:  E(RB3LYP) =  -995.717659320     A.U. after   13 cycles
 SCF Done:  E(RB3LYP) =  -995.719898825     A.U. after   13 cycles
 SCF Done:  E(RB3LYP) =  -995.720263880     A.U. after   12 cycles
 SCF Done:  E(RB3LYP) =  -995.720332441     A.U. after   12 cycles
 SCF Done:  E(RB3LYP) =  -995.720803543     A.U. after   11 cycles
 SCF Done:  E(RB3LYP) =  -995.720955727     A.U. after   12 cycles
 SCF Done:  E(RB3LYP) =  -995.721082228     A.U. after   11 cycles
 SCF Done:  E(RB3LYP) =  -995.721234653     A.U. after    7 cycles
 SCF Done:  E(RB3LYP) =  -995.721234694     A.U. after    7 cycles
 SCF Done:  E(RB3LYP) =  -995.721234719     A.U. after    6 cycles
 SCF Done:  E(RB3LYP) =  -995.721234728     A.U. after    6 cycles
 SCF Done:  E(RB3LYP) =  -995.721234729     A.U. after    6 cycles
 Optimization completed.
    -- Stationary point found.
 Normal termination of Gaussian 16 at Sat Dec 12 16:26:59 2020.

 --------------------------------------------------------------------
 #N Geom=AllCheck Guess=TCheck SCRF=Check GenChk RB3LYP/6-31G(d) Freq
 --------------------------------------------------------------------

 Structure from the checkpoint file:  "JID_10622.chk"
 -------------------------------
 CID_54520948_JID_10622_neutraal
 -------------------------------
 Charge =  0 Multiplicity = 1

 SCF Done:  E(RB3LYP) =  -995.721234729     A.U. after    1 cycles

  Exact polarizability: 199.226 -14.564 151.844   7.796  13.943 134.305
 Approx polarizability: 257.707 -20.507 238.523  19.442  30.761 217.062

                      1                      2                      3
                      A                      A                      A
 Frequencies --     24.7011                39.3785                48.5584
 Red. masses --      5.2956                 4.0331                 3.5628
 Frc consts  --      0.0019                 0.0037                 0.0049
 IR Inten    --      0.0458                 1.6643                 2.3612

                      4                      5                      6
                      A                      A                      A
 Frequencies --     52.7184                66.4015                74.0665
 Red. masses --      2.4757                 3.5907                 3.9948
 Frc consts  --      0.0041                 0.0093                 0.0129
 IR Inten    --      0.7191                 1.9091                 3.1649

                      7                      8                      9
                      A                      A                      A
 Frequencies --     76.3907                92.7624               101.1321
 Red. masses --      3.0368                 1.9049                 2.8337
 Frc consts  --      0.0104                 0.0097                 0.0171
 IR Inten    --      0.8846                 1.8071                 3.8481

                     10                     11                     12
                      A                      A                      A
 Frequencies --    105.0056               132.5219               149.2147
 Red. masses --      4.9733                 1.5276                 3.9271
 Frc consts  --      0.0323                 0.0158                 0.0515
 IR Inten    --      0.3258                 0.1887                 6.2359

                     13                     14                     15
                      A                      A                      A
 Frequencies --    157.3279               180.4987               215.7992
 Red. masses --      2.2800                 3.2675                 1.5086
 Frc consts  --      0.0333                 0.0627                 0.0414
 IR Inten    --      0.2322                 0.7543                 1.4970

                     16                     17                     18
                      A                      A                      A
 Frequencies --    220.2519               238.5692               252.8306
 Red. masses --      1.9029                 1.9782                 3.0727
 Frc consts  --      0.0544                 0.0663                 0.1157
 IR Inten    --      5.8849                 5.0595                 2.0014

                     19                     20                     21
                      A                      A                      A
 Frequencies --    264.4718               282.9932               304.5230
 Red. masses --      3.5880                 3.6154                 3.1436
 Frc consts  --      0.1479                 0.1706                 0.1718
 IR Inten    --      2.1826                 9.4224                 7.4591

                     22                     23                     24
                      A                      A                      A
 Frequencies --    330.7960               342.2145               383.6735
 Red. masses --      3.9794                 4.0555                 4.1220
 Frc consts  --      0.2566                 0.2798                 0.3575
 IR Inten    --      1.0833                 3.3931                 3.3535

                     25                     26                     27
                      A                      A                      A
 Frequencies --    419.9249               437.6301               470.3689
 Red. masses --      2.8691                 5.4022                 4.6208
 Frc consts  --      0.2981                 0.6096                 0.6023
 IR Inten    --      6.8780                 9.4062                 9.2408

                     28                     29                     30
                      A                      A                      A
 Frequencies --    488.8197               509.6200               578.4562
 Red. masses --      3.6669                 3.8449                 4.0873
 Frc consts  --      0.5162                 0.5883                 0.8058
 IR Inten    --      6.4072                 6.4061                 0.8051

                     31                     32                     33
                      A                      A                      A
 Frequencies --    600.8358               604.7300               634.8778
 Red. masses --      5.3852                 3.9417                 4.3546
 Frc consts  --      1.1454                 0.8493                 1.0341
 IR Inten    --     15.4968                 8.7507                 7.4642

                     34                     35                     36
                      A                      A                      A
 Frequencies --    669.1865               693.5995               714.5534
 Red. masses --      5.1597                 4.4601                 5.4468
 Frc consts  --      1.3613                 1.2642                 1.6385
 IR Inten    --     12.6685                 4.6075                 0.3576

                     37                     38                     39
                      A                      A                      A
 Frequencies --    751.9534               800.6817               825.2450
 Red. masses --      4.5461                 3.4636                 2.2012
 Frc consts  --      1.5145                 1.3083                 0.8832
 IR Inten    --     11.2903                 1.6719                22.6210

                     40                     41                     42
                      A                      A                      A
 Frequencies --    838.0977               849.5258               883.6845
 Red. masses --      3.3518                 3.3642                 4.4224
 Frc consts  --      1.3871                 1.4305                 2.0347
 IR Inten    --     13.1577                 5.2214                22.0988

                     43                     44                     45
                      A                      A                      A
 Frequencies --    925.4016               936.5666               952.7848
 Red. masses --      2.8047                 1.8279                 2.1125
 Frc consts  --      1.4151                 0.9447                 1.1299
 IR Inten    --     22.3621                 2.4799                21.6353

                     46                     47                     48
                      A                      A                      A
 Frequencies --    960.6019               977.8683              1026.8542
 Red. masses --      2.2538                 2.6638                 2.8005
 Frc consts  --      1.2253                 1.5008                 1.7398
 IR Inten    --     28.0480                 9.4099                91.4651

                     49                     50                     51
                      A                      A                      A
 Frequencies --   1031.0695              1062.5854              1074.5302
 Red. masses --      1.9287                 5.4311                 2.1098
 Frc consts  --      1.2080                 3.6130                 1.4352
 IR Inten    --     19.9992                12.6373                20.7443

                     52                     53                     54
                      A                      A                      A
 Frequencies --   1077.4734              1134.6448              1153.9203
 Red. masses --      2.6461                 3.8590                 2.2820
 Frc consts  --      1.8099                 2.9272                 1.7902
 IR Inten    --     56.4883                95.0557                52.8137

                     55                     56                     57
                      A                      A                      A
 Frequencies --   1180.3113              1183.1980              1190.7229
 Red. masses --      1.3191                 1.6265                 1.3564
 Frc consts  --      1.0827                 1.3416                 1.1330
 IR Inten    --      3.9153                42.8207                 5.3124

                     58                     59                     60
                      A                      A                      A
 Frequencies --   1195.3660              1210.3499              1221.2484
 Red. masses --      1.2722                 1.6941                 1.4631
 Frc consts  --      1.0710                 1.4622                 1.2857
 IR Inten    --      2.5960               134.5601                 8.8083

                     61                     62                     63
                      A                      A                      A
 Frequencies --   1231.3259              1234.5284              1238.5767
 Red. masses --      1.6541                 2.5136                 1.4452
 Frc consts  --      1.4776                 2.2571                 1.3063
 IR Inten    --     99.1188               329.4468                11.4598

                     64                     65                     66
                      A                      A                      A
 Frequencies --   1251.0011              1277.7283              1305.5540
 Red. masses --      3.0914                 1.7592                 1.5748
 Frc consts  --      2.8505                 1.6922                 1.5815
 IR Inten    --    138.5178                37.9876                62.5143

                     67                     68                     69
                      A                      A                      A
 Frequencies --   1307.0789              1344.0073              1363.2839
 Red. masses --      2.6604                 1.8864                 5.3083
 Frc consts  --      2.6779                 2.0077                 5.8128
 IR Inten    --    195.8670                69.8485                78.8974

                     70                     71                     72
                      A                      A                      A
 Frequencies --   1405.3872              1422.5705              1424.3318
 Red. masses --      1.6365                 1.3069                 1.3189
 Frc consts  --      1.9044                 1.5583                 1.5765
 IR Inten    --     65.5470                14.8836                60.0315

                     73                     74                     75
                      A                      A                      A
 Frequencies --   1468.8476              1488.9376              1498.8306
 Red. masses --      1.9060                 1.1491                 1.0495
 Frc consts  --      2.4229                 1.5009                 1.3891
 IR Inten    --     42.0351                 6.0017                13.5438

                     76                     77                     78
                      A                      A                      A
 Frequencies --   1501.4442              1503.7045              1507.1736
 Red. masses --      1.1756                 1.0530                 1.1575
 Frc consts  --      1.5615                 1.4029                 1.5491
 IR Inten    --     14.2723                 5.9904                 0.3644

                     79                     80                     81
                      A                      A                      A
 Frequencies --   1509.7945              1517.3521              1522.6616
 Red. masses --      1.3540                 1.0619                 1.0599
 Frc consts  --      1.8185                 1.4405                 1.4478
 IR Inten    --      6.0921                 6.4490                 6.1612

                     82                     83                     84
                      A                      A                      A
 Frequencies --   1524.9627              1527.0451              1542.6076
 Red. masses --      1.0469                 1.0507                 1.0537
 Frc consts  --      1.4345                 1.4435                 1.4773
 IR Inten    --      6.5046                 0.8341                23.3684

                     85                     86                     87
                      A                      A                      A
 Frequencies --   1554.2034              1557.8256              1640.7689
 Red. masses --      1.2168                 2.0678                 7.2148
 Frc consts  --      1.7317                 2.9566                11.4437
 IR Inten    --     29.1624                71.6241                32.3206

                     88                     89                     90
                      A                      A                      A
 Frequencies --   1668.4404              1808.9494              1855.8455
 Red. masses --      6.1330                10.3448                11.5383
 Frc consts  --     10.0587                19.9445                23.4139
 IR Inten    --      9.4798               186.4365               184.3498

                     91                     92                     93
                      A                      A                      A
 Frequencies --   3034.8258              3051.9865              3072.6176
 Red. masses --      1.0360                 1.0296                 1.0378
 Frc consts  --      5.6218                 5.6502                 5.7730
 IR Inten    --     42.5962                60.9362                 1.6761

                     94                     95                     96
                      A                      A                      A
 Frequencies --   3076.2131              3076.7122              3091.5593
 Red. masses --      1.0532                 1.0555                 1.0653
 Frc consts  --      5.8723                 5.8867                 5.9990
 IR Inten    --     29.1769                 3.8167                18.4195

                     97                     98                     99
                      A                      A                      A
 Frequencies --   3106.9982              3125.7164              3135.7625
 Red. masses --      1.0989                 1.1076                 1.0995
 Frc consts  --      6.2504                 6.3757                 6.3699
 IR Inten    --     36.3639                29.7357                 5.0339

                    100                    101                    102
                      A                      A                      A
 Frequencies --   3142.1020              3142.7576              3146.2387
 Red. masses --      1.1055                 1.1057                 1.1057
 Frc consts  --      6.4307                 6.4342                 6.4486
 IR Inten    --     23.6731                 7.7803                25.8643

                    103                    104                    105
                      A                      A                      A
 Frequencies --   3155.2190              3185.6021              3187.1522
 Red. masses --      1.1065                 1.1074                 1.1036
 Frc consts  --      6.4901                 6.6213                 6.6047
 IR Inten    --     19.9798                14.0205                 6.9976

                    106                    107                    108
                      A                      A                      A
 Frequencies --   3195.5340              3217.7837              3244.3064
 Red. masses --      1.0884                 1.0942                 1.0902
 Frc consts  --      6.5484                 6.6750                 6.7609
 IR Inten    --      8.4466                 8.7525                 0.4224

 - Thermochemistry -
 -------------------
 Temperature   298.150 Kelvin.  Pressure   1.00000 Atm.
 Atom     1 has atomic number  6 and mass  12.00000

 Molecular mass:   282.11034 amu.
 Principal axes and moments of inertia in atomic units:
                           1         2         3
     Eigenvalues --  3068.500958916.12079**********
           X            0.99994  -0.01122   0.00066
           Y            0.01121   0.99987   0.01148
           Z           -0.00079  -0.01147   0.99993
 This molecule is an asymmetric top.
 Rotational symmetry number  1.
 Warning -- assumption of classical behavior for rotation
           may cause significant error
 Rotational temperatures (Kelvin)      0.02823     0.00971     0.00864
 Rotational constants (GHZ):           0.58815     0.20241     0.18011
 Zero-point vibrational energy     812252.1 (Joules/Mol)
                                  194.13291 (Kcal/Mol)
 Warning -- explicit consideration of  32 degrees of freedom as
           vibrations may cause significant error
 Vibrational temperatures:     35.54    56.66    69.86    75.85    95.54
          (Kelvin)            106.57   109.91   133.46   145.51   151.08
                              190.67   214.69   226.36   259.70   310.49
                              316.89   343.25   363.77   380.52   407.16
                              438.14   475.94   492.37   552.02   604.18
                              629.65   676.76   703.30   733.23   832.27
                              864.47   870.07   913.45   962.81   997.93
                             1028.08  1081.89  1152.00  1187.34  1205.84
                             1222.28  1271.42  1331.45  1347.51  1370.84
                             1382.09  1406.93  1477.41  1483.48  1528.82
                             1546.01  1550.24  1632.50  1660.23  1698.20
                             1702.36  1713.18  1719.87  1741.42  1757.10
                             1771.60  1776.21  1782.04  1799.91  1838.37
                             1878.40  1880.59  1933.73  1961.46  2022.04
                             2046.76  2049.30  2113.34  2142.25  2156.48
                             2160.24  2163.50  2168.49  2172.26  2183.13
                             2190.77  2194.08  2197.08  2219.47  2236.15
                             2241.36  2360.70  2400.51  2602.67  2670.15
                             4366.44  4391.13  4420.81  4425.98  4426.70
                             4448.06  4470.28  4497.21  4511.66  4520.78
                             4521.73  4526.74  4539.66  4583.37  4585.60
                             4597.66  4629.67  4667.83

 Zero-point correction=                           0.309370 (Hartree/Particle)
 Thermal correction to Energy=                    0.330577
 Thermal correction to Enthalpy=                  0.331522
 Thermal correction to Gibbs Free Energy=         0.257409
 Sum of electronic and zero-point Energies=           -995.411864
 Sum of electronic and thermal Energies=              -995.390657
 Sum of electronic and thermal Enthalpies=            -995.389713
 Sum of electronic and thermal Free Energies=         -995.463825

                     E (Thermal)             CV                S
                      KCal/Mol        Cal/Mol-Kelvin    Cal/Mol-Kelvin
 Total                  207.440             75.498            155.982
 Electronic               0.000              0.000              0.000
 Translational            0.889              2.981             42.809
 Rotational               0.889              2.981             33.971
 Vibrational            205.663             69.536             79.201
 Vibration     1          0.593              1.985              6.215
 Vibration     2          0.594              1.981              5.290
 Vibration     3          0.595              1.978              4.875
 Vibration     4          0.596              1.977              4.713
 Vibration     5          0.598              1.970              4.257
 Vibration     6          0.599              1.966              4.042
 Vibration     7          0.599              1.965              3.982
 Vibration     8          0.602              1.954              3.601
 Vibration     9          0.604              1.948              3.432
 Vibration    10          0.605              1.945              3.359
 Vibration    11          0.613              1.921              2.909
 Vibration    12          0.618              1.904              2.682
 Vibration    13          0.621              1.894              2.582
 Vibration    14          0.629              1.866              2.323
 Vibration    15          0.645              1.817              1.994
 Vibration    16          0.647              1.810              1.957
 Vibration    17          0.657              1.782              1.814
 Vibration    18          0.664              1.758              1.711
 Vibration    19          0.671              1.738              1.632
 Vibration    20          0.682              1.705              1.516
 Vibration    21          0.695              1.665              1.392
 Vibration    22          0.713              1.614              1.256
 Vibration    23          0.721              1.591              1.202
 Vibration    24          0.753              1.505              1.025
 Vibration    25          0.783              1.427              0.892
 Vibration    26          0.798              1.388              0.834
 Vibration    27          0.827              1.316              0.737
 Vibration    28          0.845              1.275              0.687
 Vibration    29          0.865              1.229              0.635
 Vibration    30          0.935              1.078              0.488
 Vibration    31          0.959              1.030              0.448
 Vibration    32          0.963              1.022              0.442

                           ! Non-Optimized Parameters !
 Normal termination of Gaussian 16 at Sat Dec 12 16:48:27 2020.

 ----------------------------------------------------------------------
 # B3LYP/6-311++G(d,p) empiricaldispersion=gd3bj scf=xqc pop=npa geom=c
 heck
 ----------------------------------------------------------------------

 ---------------------------------------
 CID_54520948_JID_10622_Energie_neutraal
 ---------------------------------------
 Structure from the checkpoint file:  "JID_10622.chk"
 Charge =  0 Multiplicity = 1

 SCF Done:  E(RB3LYP) =  -996.008133997     A.U. after   17 cycles
 Normal termination of Gaussian 16 at Sat Dec 12 16:58:47 2020.

 ----------------------------------------------------------------------
 # B3LYP/6-311++G(d,p) empiricaldispersion=gd3bj scf=xqc pop=npa geom=c
 heck
 ----------------------------------------------------------------------

 -------------------------------------
 CID_54520948_JID_10622_Energie_kation
 -------------------------------------
 Structure from the checkpoint file:  "JID_10622.chk"
 Charge =  1 Multiplicity = 2

 SCF Done:  E(UB3LYP) =  -995.702551218     A.U. after   28 cycles
 Normal termination of Gaussian 16 at Sat Dec 12 17:23:08 2020.
 Gaussian 16:  ES64L-G16RevA.03 25-Dec-2016

 ----------------------------------------------------------------------
 # B3LYP/6-311++G(d,p) empiricaldispersion=gd3bj scf=xqc pop=npa geom=c
 heck
 ----------------------------------------------------------------------

 ------------------------------------
 CID_54520948_JID_10622_Energie_anion
 ------------------------------------
 Structure from the checkpoint file:  "JID_10622.chk"
 Charge = -1 Multiplicity = 2

                         Standard orientation:
 ---------------------------------------------------------------------
 Center     Atomic      Atomic             Coordinates (Angstroms)
 Number     Number       Type             X           Y           Z
 ---------------------------------------------------------------------
      1          6           0       -5.407298    0.306049   -0.473106
      2          6           0       -4.104236   -0.358204   -0.110977
      3          8           0       -3.965170   -1.326941    0.591864
      4          8           0       -3.060244    0.322139   -0.687781
      5          6           0       -1.771397   -0.194398   -0.525074
      6          6           0       -0.849059    0.471291    0.292006
      7          6           0        0.469153    0.010244    0.331646
      8          6           0        0.885746   -1.091245   -0.421399
      9          6           0       -0.065416   -1.759175   -1.202384
     10          6           0       -1.381911   -1.313212   -1.253745
     11          6           0        2.318280   -1.606367   -0.410740
     12          6           0        3.393902   -0.559106   -0.846724
     13          6           0        3.222512    0.855391   -0.339019
     14          8           0        3.555288    1.268969    0.754359
     15          8           0        2.612607    1.623725   -1.264220
     16          6           0        2.257912    2.948489   -0.834232
     17          8           0        2.676713   -2.316253    0.767437
     18          6           0        2.647605   -1.620353    2.006262
     19          8           0       -1.118525    1.595867    1.019914
     20          6           0       -2.338151    1.656008    1.761567
     21          1           0       -6.235948   -0.273998   -0.066701
     22          1           0       -5.499692    0.390414   -1.560041
     23          1           0       -5.432039    1.322138   -0.064649
     24          1           0        1.150555    0.555085    0.972214
     25          1           0        0.228172   -2.628431   -1.783491
     26          1           0       -2.117751   -1.813438   -1.874673
     27          1           0        2.375129   -2.389829   -1.172170
     28          1           0        4.362874   -0.936909   -0.509138
     29          1           0        3.390570   -0.522270   -1.939310
     30          1           0        1.465195    2.895067   -0.082187
     31          1           0        3.124629    3.463083   -0.414087
     32          1           0        1.897030    3.457780   -1.727793
     33          1           0        3.258946   -0.711711    1.983643
     34          1           0        1.623097   -1.359198    2.302183
     35          1           0        3.056674   -2.315899    2.743452
     36          1           0       -3.144433    2.089255    1.161354
     37          1           0       -2.634359    0.662755    2.115238
     38          1           0       -2.139859    2.303586    2.619087
 ---------------------------------------------------------------------

 SCF Done:  E(UB3LYP) =  -995.998218475     A.U. after   33 cycles
 SCF Done:  E(UB3LYP) =  -995.998218475     a.u. after    1 cycles

 The electronic state is 2-A.
 Alpha  occ. eigenvalues --  -19.08424 -19.08197 -19.05841 -19.03675 -19.02693
 Alpha  occ. eigenvalues --  -19.02267 -10.21760 -10.21054 -10.14798 -10.14453
 Alpha  occ. eigenvalues --  -10.14155 -10.13766 -10.12746 -10.11672 -10.09724
 Alpha  occ. eigenvalues --  -10.09008 -10.08574 -10.08451 -10.08267 -10.07776
 Alpha  occ. eigenvalues --   -1.02457  -1.02203  -0.97313  -0.94705  -0.94051
 Alpha  occ. eigenvalues --   -0.93287  -0.77077  -0.71241  -0.68203  -0.67058
 Alpha  occ. eigenvalues --   -0.65512  -0.63346  -0.60778  -0.60266  -0.56052
 Alpha  occ. eigenvalues --   -0.52597  -0.51475  -0.48391  -0.47583  -0.43626
 Alpha  occ. eigenvalues --   -0.42556  -0.41339  -0.40742  -0.40374  -0.39978
 Alpha  occ. eigenvalues --   -0.39889  -0.38945  -0.37910  -0.37293  -0.36841
 Alpha  occ. eigenvalues --   -0.36640  -0.35279  -0.34600  -0.33584  -0.33067
 Alpha  occ. eigenvalues --   -0.32201  -0.31458  -0.31444  -0.30281  -0.29989
 Alpha  occ. eigenvalues --   -0.29225  -0.29173  -0.27413  -0.27094  -0.26883
 Alpha  occ. eigenvalues --   -0.25370  -0.23495  -0.22756  -0.22163  -0.20996
 Alpha  occ. eigenvalues --   -0.19611  -0.19342  -0.17354  -0.15981  -0.14131
 Alpha  occ. eigenvalues --    0.04097
 Alpha virt. eigenvalues --    0.05533   0.06425   0.06740   0.07282   0.07734
 Alpha virt. eigenvalues --    0.07946   0.08138   0.08738   0.08953   0.09505
 Alpha virt. eigenvalues --    0.09610   0.09790   0.10475   0.10621   0.11421

  Beta  occ. eigenvalues --  -19.08422 -19.08178 -19.05840 -19.03665 -19.02680
  Beta  occ. eigenvalues --  -19.02217 -10.21739 -10.20976 -10.14784 -10.14462
  Beta  occ. eigenvalues --  -10.14122 -10.13754 -10.12716 -10.11671 -10.09723
  Beta  occ. eigenvalues --  -10.08972 -10.08514 -10.08401 -10.08270 -10.07713
  Beta  occ. eigenvalues --   -1.02429  -1.02127  -0.97308  -0.94684  -0.94028
  Beta  occ. eigenvalues --   -0.93209  -0.77001  -0.71171  -0.68122  -0.66993
  Beta  occ. eigenvalues --   -0.65434  -0.63285  -0.60745  -0.60212  -0.55971
  Beta  occ. eigenvalues --   -0.52530  -0.51412  -0.48324  -0.47529  -0.43569
  Beta  occ. eigenvalues --   -0.42504  -0.41278  -0.40657  -0.40273  -0.39928
  Beta  occ. eigenvalues --   -0.39821  -0.38887  -0.37863  -0.37259  -0.36798
  Beta  occ. eigenvalues --   -0.36591  -0.35242  -0.34536  -0.33552  -0.33020
  Beta  occ. eigenvalues --   -0.32142  -0.31435  -0.31318  -0.30214  -0.29909
  Beta  occ. eigenvalues --   -0.29151  -0.29125  -0.27363  -0.27024  -0.26822
  Beta  occ. eigenvalues --   -0.25311  -0.23431  -0.22693  -0.22038  -0.20952
  Beta  occ. eigenvalues --   -0.19583  -0.19294  -0.17321  -0.15656  -0.14012
  Beta virt. eigenvalues --    0.06148   0.06601   0.06955   0.07011   0.07631
  Beta virt. eigenvalues --    0.07986   0.08278   0.08388   0.08968   0.09160
  Beta virt. eigenvalues --    0.09625   0.09972   0.10244   0.10733   0.11033

 Mulliken charges and spin densities:
               1          2
     1  C    2.227938  -2.729502
     2  C   -1.649911   1.632096
     3  O   -0.198182   0.001291
     4  O    0.010384   0.011344
     5  C    0.676790  -0.841311
     6  C   -0.626192   0.416074
     7  C   -0.902453   0.698302
     8  C   -0.185254   0.248541
     9  C    0.555330  -0.646361
    10  C    0.325397  -0.008197
    11  C   -0.022003  -0.175941
    12  C    0.475663  -1.072277
    13  C   -0.718488   0.500027
    14  O   -0.201340   0.013757
    15  O    0.031808   0.020108
    16  C    0.046221  -0.261232
    17  O   -0.019285  -0.026533
    18  C   -0.334233  -0.066975
    19  O   -0.122860   0.012427
    20  C    0.446628  -0.714722
    21  H   -0.153397   0.318870
    22  H   -0.404964   0.582935
    23  H   -0.617661   0.796901
    24  H    0.311805  -0.081378
    25  H   -0.057727   0.209450
    26  H   -0.243068   0.424471
    27  H   -0.200495   0.432861
    28  H    0.113432   0.082577
    29  H   -0.021768   0.209636
    30  H    0.113477   0.084659
    31  H    0.096531   0.061737
    32  H   -0.013310   0.163545
    33  H    0.176013   0.014040
    34  H    0.122007   0.006897
    35  H    0.123101   0.024653
    36  H   -0.144096   0.322688
    37  H    0.016583   0.141710
    38  H   -0.032422   0.192831
 Sum of Mulliken charges =  -1.00000   1.00000

 Dipole moment (field-independent basis, Debye):
    X=              7.0556    Y=             -0.0755    Z=              1.1332  Tot=              7.1464
 Quadrupole moment (field-independent basis, Debye-Ang):
   XX=           -222.7373   YY=           -159.4818   ZZ=           -148.2639
   XY=             11.9779   XZ=             -2.1447   YZ=             -2.8785

 Summary of Natural Population Analysis:

                                       Natural Population
                Natural  -----------------------------------------------
    Atom  No    Charge         Core      Valence    Rydberg      Total
 -----------------------------------------------------------------------
      C    1   -0.33404      0.99961     2.32873    0.00570     3.33404
      C    2    0.41210      0.99969     1.56343    0.02478     2.58790
      O    3   -0.29358      0.99987     3.28809    0.00563     4.29358
      O    4   -0.28333      0.99985     3.27226    0.01122     4.28333
      C    5    0.12713      0.99929     1.86017    0.01341     2.87287
      C    6    0.14464      0.99931     1.84220    0.01385     2.85536
      C    7   -0.11032      0.99947     2.10162    0.00923     3.11032
      C    8   -0.02576      0.99949     2.01632    0.00996     3.02576
      C    9   -0.10060      0.99952     2.09139    0.00969     3.10060
      C   10   -0.09503      0.99952     2.08672    0.00880     3.09503
      C   11    0.07163      0.99950     1.91221    0.01666     2.92837
      C   12   -0.24749      0.99955     2.23914    0.00880     3.24749
      C   13    0.41567      0.99969     1.55760    0.02704     2.58433
      O   14   -0.31253      0.99987     3.30732    0.00535     4.31253
      O   15   -0.27426      0.99986     3.26584    0.00856     4.27426
      C   16   -0.10688      0.99959     2.09938    0.00791     3.10688
      O   17   -0.29693      0.99988     3.28807    0.00898     4.29693
      C   18   -0.10835      0.99960     2.10046    0.00829     3.10835
      O   19   -0.28142      0.99986     3.27204    0.00953     4.28142
      C   20   -0.10023      0.99959     2.09177    0.00887     3.10023
      H   21    0.11048      0.00000     0.38856    0.00096     0.38952
      H   22    0.11586      0.00000     0.38252    0.00161     0.38414
      H   23    0.11968      0.00000     0.37600    0.00432     0.38032
      H   24    0.11134      0.00000     0.38645    0.00220     0.38866
      H   25    0.10134      0.00000     0.39765    0.00101     0.39866
      H   26    0.10699      0.00000     0.39203    0.00098     0.39301
      H   27    0.09675      0.00000     0.40094    0.00231     0.40325
      H   28    0.11427      0.00000     0.38468    0.00105     0.38573
      H   29    0.11487      0.00000     0.38356    0.00157     0.38513
      H   30    0.09733      0.00000     0.40148    0.00118     0.40267
      H   31    0.09057      0.00000     0.40832    0.00111     0.40943
      H   32    0.09139      0.00000     0.40763    0.00098     0.40861
      H   33    0.09238      0.00000     0.40641    0.00121     0.40762
      H   34    0.08322      0.00000     0.41569    0.00109     0.41678
      H   35    0.08603      0.00000     0.41320    0.00078     0.41397
      H   36    0.08899      0.00000     0.40923    0.00179     0.41101
      H   37    0.08924      0.00000     0.40957    0.00119     0.41076
      H   38    0.08886      0.00000     0.41015    0.00099     0.41114
 =======================================================================
   * Total *   -0.00000     19.99260    54.75882    0.24859    75.00000

 Normal termination of Gaussian 16 at Sat Dec 12 17:52:10 2020.
