 Gaussian 16, Revision A.03,

 -----------------------------------------------------------
 # opt freq B3LYP/6-31G(d) empiricaldispersion=gd3bj scf=xqc
 -----------------------------------------------------------

 ------------------------------
 CID_64102220_JID_9299_neutraal
 ------------------------------
 Symbolic Z-matrix:
 Charge =  0 Multiplicity = 1

 SCF Done:  E(RB3LYP) =  -843.644402568     A.U. after   15 cycles
 SCF Done:  E(RB3LYP) =  -843.650746848     A.U. after   12 cycles
 SCF Done:  E(RB3LYP) =  -843.647290502     A.U. after   13 cycles
 SCF Done:  E(RB3LYP) =  -843.651687150     A.U. after   12 cycles
 SCF Done:  E(RB3LYP) =  -843.652379696     A.U. after   12 cycles
 SCF Done:  E(RB3LYP) =  -843.652884410     A.U. after   11 cycles
 SCF Done:  E(RB3LYP) =  -843.653134205     A.U. after   11 cycles
 SCF Done:  E(RB3LYP) =  -843.652954774     A.U. after   14 cycles
 SCF Done:  E(RB3LYP) =  -843.653517293     A.U. after   11 cycles
 SCF Done:  E(RB3LYP) =  -843.653744212     A.U. after   11 cycles
 SCF Done:  E(RB3LYP) =  -843.654346968     A.U. after   10 cycles
 SCF Done:  E(RB3LYP) =  -843.654347222     A.U. after    7 cycles
 SCF Done:  E(RB3LYP) =  -843.654347375     A.U. after    8 cycles
 SCF Done:  E(RB3LYP) =  -843.654347470     A.U. after    7 cycles
 SCF Done:  E(RB3LYP) =  -843.654347505     A.U. after    7 cycles
 Optimization completed.
    -- Stationary point found.
 Normal termination of Gaussian 16 at Sun Dec 13 12:54:14 2020.

 --------------------------------------------------------------------
 #N Geom=AllCheck Guess=TCheck SCRF=Check GenChk RB3LYP/6-31G(d) Freq
 --------------------------------------------------------------------

 Structure from the checkpoint file:  "JID_9299.chk"
 ------------------------------
 CID_64102220_JID_9299_neutraal
 ------------------------------
 Charge =  0 Multiplicity = 1

 SCF Done:  E(RB3LYP) =  -843.654347505     A.U. after    1 cycles

  Exact polarizability: 227.844 -11.751 162.331  16.669  13.551 124.970
 Approx polarizability: 318.111 -16.465 261.091  35.614  32.417 191.827

                      1                      2                      3
                      A                      A                      A
 Frequencies --     24.2756                37.7857                41.0718
 Red. masses --      3.5553                 2.4219                 4.9342
 Frc consts  --      0.0012                 0.0020                 0.0049
 IR Inten    --      0.3859                 0.4816                 1.0964

                      4                      5                      6
                      A                      A                      A
 Frequencies --     63.3151               100.2873               112.4434
 Red. masses --      3.1992                 2.7450                 3.1613
 Frc consts  --      0.0076                 0.0163                 0.0235
 IR Inten    --      1.4743                 0.4196                 1.6108

                      7                      8                      9
                      A                      A                      A
 Frequencies --    120.4562               159.0817               190.6076
 Red. masses --      3.0280                 3.4123                 3.0338
 Frc consts  --      0.0259                 0.0509                 0.0649
 IR Inten    --      0.0673                 0.9544                 0.1538

                     10                     11                     12
                      A                      A                      A
 Frequencies --    231.8210               239.3093               263.7369
 Red. masses --      1.5015                 1.1426                 3.5086
 Frc consts  --      0.0475                 0.0386                 0.1438
 IR Inten    --      0.2298                 0.4181                 0.5924

                     13                     14                     15
                      A                      A                      A
 Frequencies --    277.6860               297.4404               323.8227
 Red. masses --      2.1964                 3.7026                 3.0299
 Frc consts  --      0.0998                 0.1930                 0.1872
 IR Inten    --      7.0557                 2.1613                 3.4011

                     16                     17                     18
                      A                      A                      A
 Frequencies --    346.3210               351.4764               390.2485
 Red. masses --      2.4663                 3.3448                 3.8589
 Frc consts  --      0.1743                 0.2434                 0.3463
 IR Inten    --      0.5023                 1.1813                 1.7761

                     19                     20                     21
                      A                      A                      A
 Frequencies --    429.4934               439.0415               461.5868
 Red. masses --      3.5644                 3.2106                 3.9433
 Frc consts  --      0.3874                 0.3646                 0.4950
 IR Inten    --      7.0569                 2.8477                 0.8536

                     22                     23                     24
                      A                      A                      A
 Frequencies --    464.5529               501.0128               547.3023
 Red. masses --      3.2484                 5.9917                 2.8745
 Frc consts  --      0.4130                 0.8861                 0.5073
 IR Inten    --      5.0513                 0.7243                 5.9105

                     25                     26                     27
                      A                      A                      A
 Frequencies --    571.0737               619.4991               640.4111
 Red. masses --      3.6834                 4.5818                 3.1127
 Frc consts  --      0.7078                 1.0360                 0.7522
 IR Inten    --     17.4977                 0.5502                 4.5376

                     28                     29                     30
                      A                      A                      A
 Frequencies --    676.3635               693.1413               711.2415
 Red. masses --      3.3270                 4.3362                 3.0322
 Frc consts  --      0.8967                 1.2275                 0.9037
 IR Inten    --      7.1983                 0.4708                41.1506

                     31                     32                     33
                      A                      A                      A
 Frequencies --    743.6714               752.4720               757.6049
 Red. masses --      2.1453                 2.6566                 4.1644
 Frc consts  --      0.6991                 0.8863                 1.4083
 IR Inten    --     29.7936                 4.7094                 1.6773

                     34                     35                     36
                      A                      A                      A
 Frequencies --    806.3714               811.5904               816.0070
 Red. masses --      2.1411                 1.3865                 1.7718
 Frc consts  --      0.8203                 0.5381                 0.6951
 IR Inten    --     35.0856                 5.1427                21.4573

                     37                     38                     39
                      A                      A                      A
 Frequencies --    843.3219               860.8459               868.5030
 Red. masses --      3.3233                 3.5019                 2.0467
 Frc consts  --      1.3925                 1.5290                 0.9096
 IR Inten    --      4.2195                25.2610                10.0092

                     40                     41                     42
                      A                      A                      A
 Frequencies --    879.7678               912.6554               915.1632
 Red. masses --      1.7896                 1.2921                 1.7054
 Frc consts  --      0.8161                 0.6341                 0.8415
 IR Inten    --     12.3980                 1.7752                 1.8372

                     43                     44                     45
                      A                      A                      A
 Frequencies --    946.8131               949.1661               979.5821
 Red. masses --      4.3493                 2.5004                 2.4835
 Frc consts  --      2.2972                 1.3272                 1.4041
 IR Inten    --     10.2233                12.3625                 3.8734

                     46                     47                     48
                      A                      A                      A
 Frequencies --    999.8826              1021.5136              1029.6967
 Red. masses --      2.2333                 2.5756                 2.5199
 Frc consts  --      1.3155                 1.5835                 1.5742
 IR Inten    --     10.1537                16.8643                 0.5564

                     49                     50                     51
                      A                      A                      A
 Frequencies --   1061.3271              1077.2252              1103.8620
 Red. masses --      2.4605                 1.5981                 2.0754
 Frc consts  --      1.6329                 1.0926                 1.4900
 IR Inten    --     25.2732                 1.6867                 2.1517

                     52                     53                     54
                      A                      A                      A
 Frequencies --   1125.0108              1129.9212              1138.4657
 Red. masses --      1.5435                 4.4041                 1.9898
 Frc consts  --      1.1510                 3.3129                 1.5195
 IR Inten    --      0.0343                40.6485                55.6605

                     55                     56                     57
                      A                      A                      A
 Frequencies --   1150.8700              1162.6522              1176.7778
 Red. masses --      1.8431                 2.0245                 2.4103
 Frc consts  --      1.4383                 1.6123                 1.9666
 IR Inten    --      7.8058                11.7588                12.6246

                     58                     59                     60
                      A                      A                      A
 Frequencies --   1191.3217              1207.2848              1252.4390
 Red. masses --      2.1454                 2.7681                 1.2798
 Frc consts  --      1.7940                 2.3771                 1.1828
 IR Inten    --     89.2871               151.9851                10.8215

                     61                     62                     63
                      A                      A                      A
 Frequencies --   1261.4993              1280.6621              1294.3335
 Red. masses --      3.0145                 1.3657                 1.1652
 Frc consts  --      2.8264                 1.3197                 1.1501
 IR Inten    --     12.1705                22.1647                 0.0052

                     64                     65                     66
                      A                      A                      A
 Frequencies --   1295.4241              1310.0894              1314.0315
 Red. masses --      1.5314                 2.6298                 1.3060
 Frc consts  --      1.5141                 2.6594                 1.3286
 IR Inten    --     13.3149                 4.8995                11.4869

                     67                     68                     69
                      A                      A                      A
 Frequencies --   1326.3069              1360.8027              1374.4833
 Red. masses --      1.6124                 2.5872                 1.3234
 Frc consts  --      1.6712                 2.8227                 1.4730
 IR Inten    --     37.0423                17.6379                 2.1179

                     70                     71                     72
                      A                      A                      A
 Frequencies --   1382.5646              1397.6130              1405.6337
 Red. masses --      1.4606                 1.2615                 1.4488
 Frc consts  --      1.6449                 1.4518                 1.6866
 IR Inten    --      3.4983                 8.0670                 6.2493

                     73                     74                     75
                      A                      A                      A
 Frequencies --   1408.9139              1430.8290              1437.1378
 Red. masses --      1.6667                 1.4084                 1.3588
 Frc consts  --      1.9493                 1.6989                 1.6535
 IR Inten    --     22.4547                 8.2259                 6.7385

                     76                     77                     78
                      A                      A                      A
 Frequencies --   1445.0392              1446.6113              1480.9243
 Red. masses --      1.3481                 1.3064                 2.7305
 Frc consts  --      1.6585                 1.6107                 3.5282
 IR Inten    --      8.6592                 0.9602                32.9260

                     79                     80                     81
                      A                      A                      A
 Frequencies --   1505.5048              1512.0787              1517.3789
 Red. masses --      1.0994                 1.0988                 1.2964
 Frc consts  --      1.4682                 1.4802                 1.7587
 IR Inten    --      3.1591                20.2652                47.3702

                     82                     83                     84
                      A                      A                      A
 Frequencies --   1519.6531              1522.9715              1529.2763
 Red. masses --      1.0836                 1.0385                 1.5000
 Frc consts  --      1.4744                 1.4191                 2.0668
 IR Inten    --      7.1370                 5.9005                50.0487

                     85                     86                     87
                      A                      A                      A
 Frequencies --   1532.5993              1533.3700              1539.9176
 Red. masses --      1.0675                 1.0867                 1.1817
 Frc consts  --      1.4773                 1.5054                 1.6511
 IR Inten    --      7.0178                 3.2377                 3.0451

                     88                     89                     90
                      A                      A                      A
 Frequencies --   1565.2668              1633.9536              1665.4931
 Red. masses --      1.5817                 7.9872                 6.7160
 Frc consts  --      2.2832                12.5639                10.9761
 IR Inten    --      5.0029               140.2932                 0.9877

                     91                     92                     93
                      A                      A                      A
 Frequencies --   1687.0385              2953.4921              2976.8135
 Red. masses --      7.5010                 1.0838                 1.0730
 Frc consts  --     12.5783                 5.5700                 5.6021
 IR Inten    --      3.8400                62.8244                84.9855

                     94                     95                     96
                      A                      A                      A
 Frequencies --   3040.6713              3041.0044              3051.9040
 Red. masses --      1.0666                 1.0604                 1.0733
 Frc consts  --      5.8101                 5.7778                 5.8899
 IR Inten    --     20.9305                17.7239                21.6210

                     97                     98                     99
                      A                      A                      A
 Frequencies --   3062.7390              3066.6734              3069.6997
 Red. masses --      1.0400                 1.1014                 1.0356
 Frc consts  --      5.7477                 6.1027                 5.7497
 IR Inten    --     30.1161                10.4958                30.2220

                    100                    101                    102
                      A                      A                      A
 Frequencies --   3071.2258              3084.7637              3103.0844
 Red. masses --      1.0777                 1.1021                 1.0920
 Frc consts  --      5.9891                 6.1792                 6.1953
 IR Inten    --     72.1251                39.2392                24.5373

                    103                    104                    105
                      A                      A                      A
 Frequencies --   3125.2836              3128.3007              3139.8941
 Red. masses --      1.0962                 1.1009                 1.1029
 Frc consts  --      6.3085                 6.3477                 6.4067
 IR Inten    --     31.7361                20.1070                30.8508

                    106                    107                    108
                      A                      A                      A
 Frequencies --   3147.8292              3165.5428              3176.1341
 Red. masses --      1.1031                 1.0997                 1.0888
 Frc consts  --      6.4400                 6.4928                 6.4714
 IR Inten    --     20.0394                 7.4910                14.7590

                    109                    110                    111
                      A                      A                      A
 Frequencies --   3223.5631              3272.8416              3532.6605
 Red. masses --      1.0936                 1.0911                 1.0743
 Frc consts  --      6.6957                 6.8860                 7.8990
 IR Inten    --      8.1888                 4.6755                 0.7773

 - Thermochemistry -
 -------------------
 Temperature   298.150 Kelvin.  Pressure   1.00000 Atm.
 Atom     1 has atomic number  6 and mass  12.00000

 Molecular mass:   260.15248 amu.
 Principal axes and moments of inertia in atomic units:
                           1         2         3
     Eigenvalues --  2587.550807733.030238567.19458
           X            0.99990  -0.01381  -0.00173
           Y            0.01386   0.99937   0.03258
           Z            0.00128  -0.03260   0.99947
 This molecule is an asymmetric top.
 Rotational symmetry number  1.
 Warning -- assumption of classical behavior for rotation
           may cause significant error
 Rotational temperatures (Kelvin)      0.03347     0.01120     0.01011
 Rotational constants (GHZ):           0.69747     0.23338     0.21066
 Zero-point vibrational energy     881344.0 (Joules/Mol)
                                  210.64628 (Kcal/Mol)
 Warning -- explicit consideration of  26 degrees of freedom as
           vibrations may cause significant error
 Vibrational temperatures:     34.93    54.37    59.09    91.10   144.29
          (Kelvin)            161.78   173.31   228.88   274.24   333.54
                              344.31   379.46   399.53   427.95   465.91
                              498.28   505.70   561.48   617.95   631.68
                              664.12   668.39   720.85   787.45   821.65
                              891.32   921.41   973.14   997.28  1023.32
                             1069.98  1082.64  1090.02  1160.19  1167.70
                             1174.05  1213.35  1238.57  1249.58  1265.79
                             1313.11  1316.72  1362.25  1365.64  1409.40
                             1438.61  1469.73  1481.50  1527.01  1549.89
                             1588.21  1618.64  1625.70  1638.00  1655.85
                             1672.80  1693.12  1714.05  1737.01  1801.98
                             1815.02  1842.59  1862.26  1863.83  1884.93
                             1890.60  1908.26  1957.89  1977.57  1989.20
                             2010.85  2022.39  2027.11  2058.64  2067.72
                             2079.09  2081.35  2130.72  2166.09  2175.54
                             2183.17  2186.44  2191.22  2200.29  2205.07
                             2206.18  2215.60  2252.07  2350.89  2396.27
                             2427.27  4249.42  4282.97  4374.85  4375.33
                             4391.01  4406.60  4412.26  4416.61  4418.81
                             4438.29  4464.65  4496.59  4500.93  4517.61
                             4529.02  4554.51  4569.75  4637.99  4708.89
                             5082.71

 Zero-point correction=                           0.335686 (Hartree/Particle)
 Thermal correction to Energy=                    0.352903
 Thermal correction to Enthalpy=                  0.353847
 Thermal correction to Gibbs Free Energy=         0.289530
 Sum of electronic and zero-point Energies=           -843.318661
 Sum of electronic and thermal Energies=              -843.301445
 Sum of electronic and thermal Enthalpies=            -843.300500
 Sum of electronic and thermal Free Energies=         -843.364817

                     E (Thermal)             CV                S
                      KCal/Mol        Cal/Mol-Kelvin    Cal/Mol-Kelvin
 Total                  221.450             67.354            135.367
 Electronic               0.000              0.000              0.000
 Translational            0.889              2.981             42.568
 Rotational               0.889              2.981             33.505
 Vibrational            219.672             61.392             59.294
 Vibration     1          0.593              1.985              6.250
 Vibration     2          0.594              1.982              5.372
 Vibration     3          0.594              1.981              5.207
 Vibration     4          0.597              1.972              4.351
 Vibration     5          0.604              1.949              3.449
 Vibration     6          0.607              1.939              3.226
 Vibration     7          0.609              1.932              3.093
 Vibration     8          0.621              1.892              2.561
 Vibration     9          0.634              1.853              2.222
 Vibration    10          0.653              1.792              1.865
 Vibration    11          0.657              1.780              1.808
 Vibration    12          0.670              1.739              1.637
 Vibration    13          0.679              1.715              1.548
 Vibration    14          0.691              1.678              1.431
 Vibration    15          0.708              1.628              1.291
 Vibration    16          0.724              1.583              1.183
 Vibration    17          0.728              1.572              1.160
 Vibration    18          0.758              1.491              0.999
 Vibration    19          0.791              1.406              0.860
 Vibration    20          0.799              1.385              0.830
 Vibration    21          0.819              1.335              0.762
 Vibration    22          0.822              1.329              0.753
 Vibration    23          0.856              1.248              0.656
 Vibration    24          0.903              1.146              0.550
 Vibration    25          0.927              1.094              0.502
 Vibration    26          0.979              0.991              0.417

 Optimization completed.
    -- Stationary point found.
 Normal termination of Gaussian 16 at Sun Dec 13 13:16:50 2020.

 ----------------------------------------------------------------------
 # B3LYP/6-311++G(d,p) empiricaldispersion=gd3bj scf=xqc pop=npa geom=c
 heck
 ----------------------------------------------------------------------

 --------------------------------------
 CID_64102220_JID_9299_Energie_neutraal
 --------------------------------------
 Structure from the checkpoint file:  "JID_9299.chk"
 Charge =  0 Multiplicity = 1

 SCF Done:  E(RB3LYP) =  -843.881136555     A.U. after   15 cycles
 Normal termination of Gaussian 16 at Sun Dec 13 13:26:39 2020.

 ----------------------------------------------------------------------
 # B3LYP/6-311++G(d,p) empiricaldispersion=gd3bj scf=xqc pop=npa geom=c
 heck
 ----------------------------------------------------------------------

 ------------------------------------
 CID_64102220_JID_9299_Energie_kation
 ------------------------------------
 Structure from the checkpoint file:  "JID_9299.chk"
 Charge =  1 Multiplicity = 2

 SCF Done:  E(UB3LYP) =  -843.613075885     A.U. after   26 cycles
 Normal termination of Gaussian 16 at Sun Dec 13 13:51:15 2020.
 Gaussian 16:  ES64L-G16RevA.03 25-Dec-2016

 ----------------------------------------------------------------------
 # B3LYP/6-311++G(d,p) empiricaldispersion=gd3bj scf=xqc pop=npa geom=c
 heck
 ----------------------------------------------------------------------

 -----------------------------------
 CID_64102220_JID_9299_Energie_anion
 -----------------------------------
 Structure from the checkpoint file:  "JID_9299.chk"
 Charge = -1 Multiplicity = 2

                         Standard orientation:
 ---------------------------------------------------------------------
 Center     Atomic      Atomic             Coordinates (Angstroms)
 Number     Number       Type             X           Y           Z
 ---------------------------------------------------------------------
      1          6           0        4.936509   -2.019459   -0.274821
      2          6           0        4.721804   -0.598599    0.248005
      3          6           0        3.337513   -0.101619    0.004667
      4          7           0        2.351471   -0.713227   -0.569196
      5          6           0        1.290938    0.202401   -0.524878
      6          6           0        1.740228    1.371465    0.103882
      7          8           0        3.060671    1.177162    0.448593
      8          6           0        0.937135    2.482095    0.289691
      9          6           0       -0.378046    2.364863   -0.166929
     10          6           0       -0.866231    1.199374   -0.803647
     11          6           0       -0.010552    0.106568   -1.005718
     12          7           0       -2.197906    1.192623   -1.283650
     13          6           0       -3.228084    0.251439   -0.788323
     14          6           0       -3.090271   -1.175280   -1.379324
     15          6           0       -2.624128   -2.205976   -0.337461
     16          8           0       -1.764881   -1.620676    0.624139
     17          6           0       -2.479867   -0.766219    1.514279
     18          6           0       -3.413720    0.215531    0.750269
     19          6           0       -1.451374   -0.083117    2.402791
     20          1           0        4.246372   -2.718827    0.205024
     21          1           0        5.962084   -2.345131   -0.074892
     22          1           0        4.756866   -2.068945   -1.352340
     23          1           0        4.923185   -0.545235    1.326508
     24          1           0        5.427991    0.100611   -0.219909
     25          1           0        1.295902    3.384806    0.771814
     26          1           0       -1.060288    3.198627   -0.018832
     27          1           0       -0.341228   -0.789047   -1.510421
     28          1           0       -2.576118    2.131872   -1.213402
     29          1           0       -4.149108    0.679324   -1.197190
     30          1           0       -4.055478   -1.496769   -1.789300
     31          1           0       -2.396503   -1.129211   -2.221991
     32          1           0       -2.057826   -3.014604   -0.808514
     33          1           0       -3.491412   -2.661193    0.170765
     34          1           0       -3.116092   -1.409011    2.147859
     35          1           0       -3.295686    1.231300    1.145386
     36          1           0       -4.455848   -0.069203    0.942472
     37          1           0       -1.956569    0.489359    3.188980
     38          1           0       -0.811224   -0.834219    2.875693
     39          1           0       -0.821421    0.597019    1.825453
 ---------------------------------------------------------------------

 SCF Done:  E(UB3LYP) =  -843.870391209     A.U. after   33 cycles
 SCF Done:  E(UB3LYP) =  -843.870391209     a.u. after    1 cycles

 The electronic state is 2-A.
 Alpha  occ. eigenvalues --  -19.10303 -19.02404 -14.22058 -14.21251 -10.17887
 Alpha  occ. eigenvalues --  -10.13534 -10.12406 -10.12019 -10.11455 -10.11057
 Alpha  occ. eigenvalues --  -10.10944 -10.10742 -10.09213 -10.08338 -10.08215
 Alpha  occ. eigenvalues --  -10.07608 -10.07081 -10.06736 -10.05957  -1.03525
 Alpha  occ. eigenvalues --   -0.94265  -0.83769  -0.82759  -0.75863  -0.71140
 Alpha  occ. eigenvalues --   -0.68761  -0.68539  -0.65524  -0.63620  -0.60020
 Alpha  occ. eigenvalues --   -0.57705  -0.55124  -0.53035  -0.52204  -0.50316
 Alpha  occ. eigenvalues --   -0.49370  -0.45325  -0.43560  -0.42166  -0.40277
 Alpha  occ. eigenvalues --   -0.40049  -0.39779  -0.39158  -0.37552  -0.35880
 Alpha  occ. eigenvalues --   -0.35632  -0.35305  -0.33759  -0.33426  -0.32437
 Alpha  occ. eigenvalues --   -0.31142  -0.30932  -0.29746  -0.29021  -0.28597
 Alpha  occ. eigenvalues --   -0.28389  -0.28005  -0.27733  -0.27018  -0.26478
 Alpha  occ. eigenvalues --   -0.25979  -0.24897  -0.23599  -0.23263  -0.20546
 Alpha  occ. eigenvalues --   -0.20175  -0.18559  -0.15870  -0.14493  -0.11101
 Alpha  occ. eigenvalues --    0.03934
 Alpha virt. eigenvalues --    0.05040   0.05905   0.06625   0.07330   0.07764
 Alpha virt. eigenvalues --    0.08017   0.08354   0.08865   0.09404   0.09490
 Alpha virt. eigenvalues --    0.09773   0.10483   0.11013   0.11138   0.12048

  Beta  occ. eigenvalues --  -19.10303 -19.02398 -14.22052 -14.21238 -10.17866
  Beta  occ. eigenvalues --  -10.13534 -10.12399 -10.12008 -10.11458 -10.11038
  Beta  occ. eigenvalues --  -10.10942 -10.10729 -10.09198 -10.08318 -10.08198
  Beta  occ. eigenvalues --  -10.07580 -10.07065 -10.06706 -10.05949  -1.03517
  Beta  occ. eigenvalues --   -0.94254  -0.83752  -0.82725  -0.75834  -0.71106
  Beta  occ. eigenvalues --   -0.68728  -0.68510  -0.65481  -0.63591  -0.59985
  Beta  occ. eigenvalues --   -0.57660  -0.55077  -0.53007  -0.52166  -0.50288
  Beta  occ. eigenvalues --   -0.49340  -0.45284  -0.43515  -0.42137  -0.40233
  Beta  occ. eigenvalues --   -0.40001  -0.39737  -0.39129  -0.37518  -0.35859
  Beta  occ. eigenvalues --   -0.35607  -0.35274  -0.33731  -0.33396  -0.32412
  Beta  occ. eigenvalues --   -0.31115  -0.30902  -0.29712  -0.28985  -0.28561
  Beta  occ. eigenvalues --   -0.28367  -0.27972  -0.27706  -0.26980  -0.26445
  Beta  occ. eigenvalues --   -0.25947  -0.24867  -0.23557  -0.23235  -0.20520
  Beta  occ. eigenvalues --   -0.20153  -0.18519  -0.15829  -0.14408  -0.11060
  Beta virt. eigenvalues --    0.05671   0.06079   0.06487   0.07134   0.07721
  Beta virt. eigenvalues --    0.08028   0.08369   0.08570   0.09086   0.09547
  Beta virt. eigenvalues --    0.09940   0.09985   0.10854   0.11176   0.11470

 Mulliken charges and spin densities:
               1          2
     1  C    0.121600  -0.713831
     2  C   -1.313925   1.128782
     3  C    1.253955  -1.061147
     4  N    0.046407   0.032538
     5  C    0.782857  -0.567103
     6  C    0.550850  -0.489937
     7  O   -0.079409   0.001105
     8  C   -1.318987   0.751360
     9  C   -0.524103   0.265406
    10  C    0.588090  -0.953258
    11  C    0.124720  -0.251025
    12  N   -0.000711   0.016418
    13  C    0.050345  -0.135183
    14  C    0.019992  -0.335894
    15  C    0.179824  -0.442192
    16  O   -0.001996  -0.005716
    17  C   -0.165693   0.503808
    18  C    0.512540  -1.104948
    19  C   -0.359809  -0.509455
    20  H    0.106942   0.055655
    21  H   -0.375055   0.517081
    22  H    0.108820   0.047887
    23  H   -0.057928   0.228373
    24  H   -0.005383   0.168922
    25  H   -0.029715   0.198489
    26  H   -0.471073   0.636785
    27  H    0.214290  -0.037575
    28  H    0.064345   0.191231
    29  H   -0.869973   1.094753
    30  H   -0.264127   0.434257
    31  H    0.128925   0.028366
    32  H    0.075478   0.098738
    33  H   -0.031806   0.158145
    34  H    0.036844   0.116871
    35  H   -0.059846   0.229168
    36  H   -0.504999   0.695018
    37  H   -0.036817   0.165274
    38  H    0.068020   0.089084
    39  H    0.436509  -0.246251
 Sum of Mulliken charges =  -1.00000   1.00000

 Dipole moment (field-independent basis, Debye):
    X=              4.9486    Y=             -0.5390    Z=              0.6229  Tot=              5.0167
 Quadrupole moment (field-independent basis, Debye-Ang):
   XX=           -226.6716   YY=           -155.0492   ZZ=           -145.3755
   XY=             16.2471   XZ=             -5.5852   YZ=              3.1064

 Summary of Natural Population Analysis:

                                       Natural Population
                Natural  -----------------------------------------------
    Atom  No    Charge         Core      Valence    Rydberg      Total
 -----------------------------------------------------------------------
      C    1   -0.28397      0.99967     2.27797    0.00633     3.28397
      C    2   -0.21967      0.99959     2.21250    0.00758     3.21967
      C    3    0.28531      0.99959     1.69672    0.01838     2.71469
      N    4   -0.25049      0.99966     2.74229    0.00854     3.75049
      C    5    0.04742      0.99944     1.94095    0.01219     2.95258
      C    6    0.12530      0.99932     1.86340    0.01198     2.87470
      O    7   -0.24710      0.99985     3.24093    0.00632     4.24710
      C    8   -0.11978      0.99952     2.11087    0.00940     3.11978
      C    9   -0.11614      0.99953     2.10687    0.00973     3.11614
      C   10    0.07796      0.99949     1.91035    0.01221     2.92204
      C   11   -0.09698      0.99946     2.08901    0.00851     3.09698
      N   12   -0.32654      0.99969     2.81401    0.01284     3.82654
      C   13   -0.00666      0.99956     1.99027    0.01683     3.00666
      C   14   -0.20785      0.99960     2.19971    0.00854     3.20785
      C   15   -0.01171      0.99959     1.99979    0.01233     3.01171
      O   16   -0.30207      0.99988     3.29285    0.00934     4.30207
      C   17    0.06698      0.99957     1.91866    0.01479     2.93302
      C   18   -0.21459      0.99959     2.20442    0.01058     3.21459
      C   19   -0.29031      0.99963     2.28484    0.00585     3.29031
      H   20    0.10442      0.00000     0.39452    0.00106     0.39558
      H   21    0.09867      0.00000     0.40025    0.00108     0.40133
      H   22    0.10291      0.00000     0.39605    0.00104     0.39709
      H   23    0.11019      0.00000     0.38828    0.00152     0.38981
      H   24    0.10773      0.00000     0.39099    0.00128     0.39227
      H   25    0.10641      0.00000     0.39264    0.00095     0.39359
      H   26    0.10220      0.00000     0.39652    0.00129     0.39780
      H   27    0.10874      0.00000     0.38952    0.00174     0.39126
      H   28    0.18078      0.00000     0.31581    0.00342     0.31922
      H   29    0.10445      0.00000     0.39187    0.00368     0.39555
      H   30    0.10345      0.00000     0.39528    0.00127     0.39655
      H   31    0.10231      0.00000     0.39635    0.00133     0.39769
      H   32    0.08982      0.00000     0.40919    0.00100     0.41018
      H   33    0.07772      0.00000     0.42085    0.00142     0.42228
      H   34    0.07565      0.00000     0.42305    0.00131     0.42435
      H   35    0.10512      0.00000     0.39299    0.00189     0.39488
      H   36    0.10565      0.00000     0.39179    0.00257     0.39435
      H   37    0.09710      0.00000     0.40221    0.00070     0.40290
      H   38    0.10093      0.00000     0.39817    0.00090     0.39907
      H   39    0.10667      0.00000     0.39153    0.00180     0.39333
 =======================================================================
   * Total *   -0.00000     18.99223    50.77428    0.23349    70.00000

 Normal termination of Gaussian 16 at Sun Dec 13 14:23:23 2020.
