 Gaussian 16, Revision A.03,

 -----------------------------------------------------------
 # opt freq B3LYP/6-31G(d) empiricaldispersion=gd3bj scf=xqc
 -----------------------------------------------------------

 -------------------------------
 CID_122048079_JID_9939_neutraal
 -------------------------------
 Symbolic Z-matrix:
 Charge =  0 Multiplicity = 1

 SCF Done:  E(RB3LYP) =  -916.676235862     A.U. after   15 cycles
 SCF Done:  E(RB3LYP) =  -916.681260470     A.U. after   12 cycles
 SCF Done:  E(RB3LYP) =  -916.682917144     A.U. after   13 cycles
 SCF Done:  E(RB3LYP) =  -916.683748413     A.U. after   14 cycles
 SCF Done:  E(RB3LYP) =  -916.684427193     A.U. after   13 cycles
 SCF Done:  E(RB3LYP) =  -916.684960946     A.U. after   12 cycles
 SCF Done:  E(RB3LYP) =  -916.685397563     A.U. after   13 cycles
 SCF Done:  E(RB3LYP) =  -916.685231446     A.U. after   14 cycles
 SCF Done:  E(RB3LYP) =  -916.685706472     A.U. after   13 cycles
 SCF Done:  E(RB3LYP) =  -916.686068889     A.U. after   12 cycles
 SCF Done:  E(RB3LYP) =  -916.687647793     A.U. after    8 cycles
 SCF Done:  E(RB3LYP) =  -916.687648454     A.U. after    9 cycles
 SCF Done:  E(RB3LYP) =  -916.687648803     A.U. after    8 cycles
 SCF Done:  E(RB3LYP) =  -916.687649005     A.U. after    8 cycles
 SCF Done:  E(RB3LYP) =  -916.687649061     A.U. after    7 cycles
 Optimization completed.
    -- Stationary point found.
 Normal termination of Gaussian 16 at Sat Dec 12 10:32:16 2020.

 --------------------------------------------------------------------
 #N Geom=AllCheck Guess=TCheck SCRF=Check GenChk RB3LYP/6-31G(d) Freq
 --------------------------------------------------------------------

 Structure from the checkpoint file:  "JID_9939.chk"
 -------------------------------
 CID_122048079_JID_9939_neutraal
 -------------------------------
 Charge =  0 Multiplicity = 1

 SCF Done:  E(RB3LYP) =  -916.687649061     A.U. after    1 cycles

  Exact polarizability: 223.313  -2.494 156.650 -10.484  -1.797 105.061
 Approx polarizability: 282.958  -7.432 271.560 -18.126  -9.001 158.756

                      1                      2                      3
                      A                      A                      A
 Frequencies --     14.0438                21.9801                38.0642
 Red. masses --      4.0948                 5.9185                 8.5002
 Frc consts  --      0.0005                 0.0017                 0.0073
 IR Inten    --      0.6513                 0.3021                 1.8004

                      4                      5                      6
                      A                      A                      A
 Frequencies --     52.6136                65.4057               116.2930
 Red. masses --      5.7448                 5.5808                 5.0996
 Frc consts  --      0.0094                 0.0141                 0.0406
 IR Inten    --      0.4173                 2.2881                 1.6192

                      7                      8                      9
                      A                      A                      A
 Frequencies --    129.2716               149.7960               167.3420
 Red. masses --      5.1590                 6.0523                 4.5114
 Frc consts  --      0.0508                 0.0800                 0.0744
 IR Inten    --      2.8516                 3.8568                 0.1178

                     10                     11                     12
                      A                      A                      A
 Frequencies --    190.0904               236.5168               245.8457
 Red. masses --      3.2252                 4.5815                 4.2411
 Frc consts  --      0.0687                 0.1510                 0.1510
 IR Inten    --      3.1616                 5.5338                 2.3410

                     13                     14                     15
                      A                      A                      A
 Frequencies --    302.0480               327.0819               364.0786
 Red. masses --      2.9889                 2.6641                 4.9155
 Frc consts  --      0.1607                 0.1679                 0.3839
 IR Inten    --      4.4299                 1.9075                 7.0587

                     16                     17                     18
                      A                      A                      A
 Frequencies --    397.5289               407.7473               422.8377
 Red. masses --      2.4274                 2.1746                 2.6142
 Frc consts  --      0.2260                 0.2130                 0.2754
 IR Inten    --      3.9222                 0.6096                 8.6163

                     19                     20                     21
                      A                      A                      A
 Frequencies --    428.0993               441.6000               475.7558
 Red. masses --      2.4973                 4.2244                 1.5113
 Frc consts  --      0.2697                 0.4854                 0.2015
 IR Inten    --      1.3458                 0.3706               141.1781

                     22                     23                     24
                      A                      A                      A
 Frequencies --    501.9446               518.6502               526.3056
 Red. masses --      3.5586                 2.6923                 2.7527
 Frc consts  --      0.5282                 0.4267                 0.4492
 IR Inten    --     15.8263                 2.5876                56.6885

                     25                     26                     27
                      A                      A                      A
 Frequencies --    551.7304               566.6505               626.9382
 Red. masses --      4.6813                 2.1974                 1.8415
 Frc consts  --      0.8396                 0.4157                 0.4264
 IR Inten    --      0.1922               107.9862                44.2991

                     28                     29                     30
                      A                      A                      A
 Frequencies --    643.2879               646.0219               656.9167
 Red. masses --      1.9226                 3.5305                 1.8124
 Frc consts  --      0.4688                 0.8681                 0.4608
 IR Inten    --     82.4914                63.4274                17.6302

                     31                     32                     33
                      A                      A                      A
 Frequencies --    682.8938               741.4037               753.0479
 Red. masses --      3.3158                 4.3464                 3.0617
 Frc consts  --      0.9111                 1.4076                 1.0230
 IR Inten    --     24.2282                36.5459                15.0909

                     34                     35                     36
                      A                      A                      A
 Frequencies --    776.2301               827.6518               836.2910
 Red. masses --      2.4782                 1.5885                 2.5273
 Frc consts  --      0.8798                 0.6411                 1.0414
 IR Inten    --     60.4795                 0.5464                 9.4064

                     37                     38                     39
                      A                      A                      A
 Frequencies --    840.2516               860.4697               888.4788
 Red. masses --      3.4551                 3.1444                 2.6406
 Frc consts  --      1.4372                 1.3717                 1.2281
 IR Inten    --      1.6252                 6.1210                28.0136

                     40                     41                     42
                      A                      A                      A
 Frequencies --    897.5084               912.4535               924.5831
 Red. masses --      2.6553                 1.4150                 2.9979
 Frc consts  --      1.2602                 0.6941                 1.5099
 IR Inten    --      8.3128                 1.4007                 2.8771

                     43                     44                     45
                      A                      A                      A
 Frequencies --    953.6066              1002.4902              1007.0384
 Red. masses --      2.5523                 1.4782                 4.0056
 Frc consts  --      1.3675                 0.8753                 2.3934
 IR Inten    --     19.5744                 1.6222                 8.9732

                     46                     47                     48
                      A                      A                      A
 Frequencies --   1026.8793              1033.8789              1051.3145
 Red. masses --      2.1525                 1.8116                 1.6483
 Frc consts  --      1.3373                 1.1409                 1.0734
 IR Inten    --      6.2105                24.3113                30.9377

                     49                     50                     51
                      A                      A                      A
 Frequencies --   1066.4617              1083.2259              1105.5392
 Red. masses --      2.4421                 2.3347                 1.9111
 Frc consts  --      1.6364                 1.6141                 1.3762
 IR Inten    --     15.9655                54.5409                33.8875

                     52                     53                     54
                      A                      A                      A
 Frequencies --   1121.0478              1127.9329              1143.0730
 Red. masses --      2.0708                 2.3424                 2.5026
 Frc consts  --      1.5334                 1.7558                 1.9266
 IR Inten    --     69.1409                33.4780                50.6092

                     55                     56                     57
                      A                      A                      A
 Frequencies --   1158.9007              1178.6145              1207.1749
 Red. masses --      2.6110                 2.3469                 1.2868
 Frc consts  --      2.0661                 1.9208                 1.1049
 IR Inten    --    205.4051                26.5316                66.8006

                     58                     59                     60
                      A                      A                      A
 Frequencies --   1219.4747              1229.0841              1243.0835
 Red. masses --      1.8319                 1.1621                 1.4741
 Frc consts  --      1.6051                 1.0343                 1.3421
 IR Inten    --     36.9390                 8.6295                 7.2805

                     61                     62                     63
                      A                      A                      A
 Frequencies --   1256.9101              1300.9026              1304.5685
 Red. masses --      1.4874                 1.4156                 1.3907
 Frc consts  --      1.3845                 1.4115                 1.3945
 IR Inten    --     31.7594                20.5343                17.4166

                     64                     65                     66
                      A                      A                      A
 Frequencies --   1321.4234              1331.7656              1339.2754
 Red. masses --      1.3800                 2.3987                 1.2332
 Frc consts  --      1.4198                 2.5066                 1.3032
 IR Inten    --     12.7508                51.4518                14.0653

                     67                     68                     69
                      A                      A                      A
 Frequencies --   1357.7371              1374.0471              1382.9406
 Red. masses --      1.4329                 2.4609                 1.2866
 Frc consts  --      1.5563                 2.7375                 1.4497
 IR Inten    --      4.1258                61.1387                 4.2000

                     70                     71                     72
                      A                      A                      A
 Frequencies --   1390.3004              1401.8897              1410.5626
 Red. masses --      2.3794                 1.5211                 1.4140
 Frc consts  --      2.7098                 1.7613                 1.6576
 IR Inten    --    159.0913                 1.8057                 7.7555

                     73                     74                     75
                      A                      A                      A
 Frequencies --   1415.1585              1425.3574              1436.7917
 Red. masses --      1.3466                 1.3609                 1.6977
 Frc consts  --      1.5889                 1.6291                 2.0648
 IR Inten    --      5.6797                 6.3490                 4.4261

                     76                     77                     78
                      A                      A                      A
 Frequencies --   1446.2216              1451.3746              1498.3300
 Red. masses --      1.5745                 1.3557                 1.2581
 Frc consts  --      1.9403                 1.6826                 1.6641
 IR Inten    --     32.2407                 9.1904                37.8720

                     79                     80                     81
                      A                      A                      A
 Frequencies --   1504.0632              1513.9111              1524.9377
 Red. masses --      1.3312                 1.3604                 1.1738
 Frc consts  --      1.7742                 1.8370                 1.6083
 IR Inten    --     46.6067                30.1938                18.7888

                     82                     83                     84
                      A                      A                      A
 Frequencies --   1527.0563              1538.2375              1554.9416
 Red. masses --      1.0983                 1.1029                 2.3592
 Frc consts  --      1.5089                 1.5376                 3.3609
 IR Inten    --      4.6029                 2.9480               220.1484

                     85                     86                     87
                      A                      A                      A
 Frequencies --   1631.7695              1656.4532              1847.1038
 Red. masses --      4.9182                 5.9810                10.2010
 Frc consts  --      7.7156                 9.6690                20.5057
 IR Inten    --     18.2370               295.1416               253.6136

                     88                     89                     90
                      A                      A                      A
 Frequencies --   2972.0545              2986.7452              3020.6872
 Red. masses --      1.0725                 1.0723                 1.0823
 Frc consts  --      5.5816                 5.6359                 5.8185
 IR Inten    --     41.3755                63.1011                20.3549

                     91                     92                     93
                      A                      A                      A
 Frequencies --   3051.1024              3059.8587              3066.9012
 Red. masses --      1.0610                 1.0662                 1.0620
 Frc consts  --      5.8195                 5.8815                 5.8854
 IR Inten    --     23.8678                36.6705                14.4417

                     94                     95                     96
                      A                      A                      A
 Frequencies --   3087.6123              3092.5275              3104.8272
 Red. masses --      1.0970                 1.0883                 1.0919
 Frc consts  --      6.1618                 6.1323                 6.2015
 IR Inten    --     49.0487                69.0348                49.6392

                     97                     98                     99
                      A                      A                      A
 Frequencies --   3110.4902              3112.8770              3118.9141
 Red. masses --      1.0930                 1.1056                 1.0984
 Frc consts  --      6.2306                 6.3122                 6.2951
 IR Inten    --     50.4539                17.6916                20.2283

                    100                    101                    102
                      A                      A                      A
 Frequencies --   3200.9609              3234.6469              3255.8019
 Red. masses --      1.0897                 1.0931                 1.0932
 Frc consts  --      6.5786                 6.7388                 6.8274
 IR Inten    --     13.7977                 0.5737                 0.4819

                    103                    104                    105
                      A                      A                      A
 Frequencies --   3593.0232              3697.1744              3702.1242
 Red. masses --      1.0757                 1.0652                 1.0642
 Frc consts  --      8.1823                 8.5784                 8.5936
 IR Inten    --     27.7985                19.8160                73.9217

 - Thermochemistry -
 -------------------
 Temperature   298.150 Kelvin.  Pressure   1.00000 Atm.
 Atom     1 has atomic number  6 and mass  12.00000

 Molecular mass:   266.12666 amu.
 Principal axes and moments of inertia in atomic units:
                           1         2         3
     Eigenvalues --  1679.83052********************
           X            0.99998  -0.00641   0.00028
           Y            0.00640   0.99991   0.01203
           Z           -0.00036  -0.01203   0.99993
 This molecule is an asymmetric top.
 Rotational symmetry number  1.
 Warning -- assumption of classical behavior for rotation
           may cause significant error
 Rotational temperatures (Kelvin)      0.05156     0.00650     0.00611
 Rotational constants (GHZ):           1.07436     0.13540     0.12737
 Zero-point vibrational energy     817916.3 (Joules/Mol)
                                  195.48669 (Kcal/Mol)
 Warning -- explicit consideration of  26 degrees of freedom as
           vibrations may cause significant error
 Vibrational temperatures:     20.21    31.62    54.77    75.70    94.10
          (Kelvin)            167.32   185.99   215.52   240.77   273.50
                              340.29   353.72   434.58   470.60   523.83
                              571.96   586.66   608.37   615.94   635.36
                              684.51   722.19   746.22   757.24   793.82
                              815.28   902.02   925.55   929.48   945.16
                              982.53  1066.71  1083.47  1116.82  1190.81
                             1203.24  1208.93  1238.02  1278.32  1291.31
                             1312.82  1330.27  1372.03  1442.36  1448.90
                             1477.45  1487.52  1512.61  1534.40  1558.52
                             1590.62  1612.94  1622.84  1644.63  1667.40
                             1695.76  1736.86  1754.55  1768.38  1788.52
                             1808.41  1871.71  1876.98  1901.23  1916.11
                             1926.92  1953.48  1976.95  1989.74  2000.33
                             2017.01  2029.48  2036.10  2050.77  2067.22
                             2080.79  2088.20  2155.76  2164.01  2178.18
                             2194.05  2197.09  2213.18  2237.21  2347.75
                             2383.27  2657.57  4276.12  4297.26  4346.10
                             4389.86  4402.45  4412.59  4442.39  4449.46
                             4467.15  4475.30  4478.74  4487.42  4605.47
                             4653.94  4684.37  5169.56  5319.41  5326.53

 Zero-point correction=                           0.311528 (Hartree/Particle)
 Thermal correction to Energy=                    0.328799
 Thermal correction to Enthalpy=                  0.329743
 Thermal correction to Gibbs Free Energy=         0.263560
 Sum of electronic and zero-point Energies=           -916.376121
 Sum of electronic and thermal Energies=              -916.358850
 Sum of electronic and thermal Enthalpies=            -916.357906
 Sum of electronic and thermal Free Energies=         -916.424089

                     E (Thermal)             CV                S
                      KCal/Mol        Cal/Mol-Kelvin    Cal/Mol-Kelvin
 Total                  206.324             66.838            139.294
 Electronic               0.000              0.000              0.000
 Translational            0.889              2.981             42.636
 Rotational               0.889              2.981             34.116
 Vibrational            204.547             60.877             62.542
 Vibration     1          0.593              1.986              7.336
 Vibration     2          0.593              1.985              6.447
 Vibration     3          0.594              1.982              5.357
 Vibration     4          0.596              1.977              4.717
 Vibration     5          0.597              1.971              4.287
 Vibration     6          0.608              1.936              3.161
 Vibration     7          0.612              1.924              2.957
 Vibration     8          0.618              1.903              2.675
 Vibration     9          0.624              1.883              2.465
 Vibration    10          0.633              1.854              2.227
 Vibration    11          0.655              1.785              1.829
 Vibration    12          0.660              1.770              1.760
 Vibration    13          0.694              1.670              1.406
 Vibration    14          0.711              1.621              1.274
 Vibration    15          0.738              1.546              1.105
 Vibration    16          0.764              1.475              0.972
 Vibration    17          0.772              1.453              0.935
 Vibration    18          0.785              1.421              0.882
 Vibration    19          0.790              1.409              0.865
 Vibration    20          0.801              1.379              0.822
 Vibration    21          0.832              1.304              0.722
 Vibration    22          0.857              1.246              0.653
 Vibration    23          0.874              1.209              0.613
 Vibration    24          0.881              1.192              0.596
 Vibration    25          0.907              1.136              0.541
 Vibration    26          0.923              1.103              0.511

                           ! Non-Optimized Parameters !
 Normal termination of Gaussian 16 at Sat Dec 12 10:48:52 2020.

 ----------------------------------------------------------------------
 # B3LYP/6-311++G(d,p) empiricaldispersion=gd3bj scf=xqc pop=npa geom=c
 heck
 ----------------------------------------------------------------------

 ---------------------------------------
 CID_122048079_JID_9939_Energie_neutraal
 ---------------------------------------
 Structure from the checkpoint file:  "JID_9939.chk"
 Charge =  0 Multiplicity = 1

 SCF Done:  E(RB3LYP) =  -916.962685399     A.U. after   15 cycles
 Normal termination of Gaussian 16 at Sat Dec 12 10:56:35 2020.

 ----------------------------------------------------------------------
 # B3LYP/6-311++G(d,p) empiricaldispersion=gd3bj scf=xqc pop=npa geom=c
 heck
 ----------------------------------------------------------------------

 -------------------------------------
 CID_122048079_JID_9939_Energie_kation
 -------------------------------------
 Structure from the checkpoint file:  "JID_9939.chk"
 Charge =  1 Multiplicity = 2

 SCF Done:  E(UB3LYP) =  -916.667474424     A.U. after   24 cycles
 Normal termination of Gaussian 16 at Sat Dec 12 11:14:18 2020.
 Gaussian 16:  ES64L-G16RevA.03 25-Dec-2016

 ----------------------------------------------------------------------
 # B3LYP/6-311++G(d,p) empiricaldispersion=gd3bj scf=xqc pop=npa geom=c
 heck
 ----------------------------------------------------------------------

 ------------------------------------
 CID_122048079_JID_9939_Energie_anion
 ------------------------------------
 Structure from the checkpoint file:  "JID_9939.chk"
 Charge = -1 Multiplicity = 2

                         Standard orientation:
 ---------------------------------------------------------------------
 Center     Atomic      Atomic             Coordinates (Angstroms)
 Number     Number       Type             X           Y           Z
 ---------------------------------------------------------------------
      1          6           0        3.431075   -1.518859   -0.366830
      2          6           0        4.737658   -0.969264   -0.946159
      3          8           0        5.593646   -0.470094    0.069125
      4          6           0        4.982263    0.588945    0.798388
      5          6           0        3.695769    0.135529    1.488256
      6          6           0        2.691176   -0.463072    0.482071
      7          6           0        1.996335    0.629734   -0.358628
      8          6           0        0.860364    0.089404   -1.243209
      9          7           0       -0.249372   -0.428146   -0.447977
     10          6           0       -1.475596    0.207620   -0.343085
     11          6           0       -1.613121    1.611493   -0.438273
     12          6           0       -2.883438    2.150661   -0.310266
     13          6           0       -3.977410    1.313944   -0.071068
     14          6           0       -3.727237   -0.054537    0.035222
     15          7           0       -2.513593   -0.602033   -0.104930
     16          6           0       -4.830238   -1.032782    0.313065
     17          8           0       -4.699489   -2.228994    0.430109
     18          8           0       -6.039194   -0.417200    0.425527
     19          8           0        1.474539    1.664751    0.476865
     20          1           0        3.678096   -2.370717    0.278186
     21          1           0        2.804704   -1.909254   -1.178135
     22          1           0        5.297764   -1.759599   -1.454910
     23          1           0        4.532276   -0.176883   -1.687450
     24          1           0        4.781830    1.439148    0.124458
     25          1           0        5.724294    0.915726    1.532505
     26          1           0        3.243897    0.978871    2.018509
     27          1           0        3.953703   -0.631108    2.229148
     28          1           0        1.893261   -0.966267    1.047129
     29          1           0        2.721128    1.132144   -1.007282
     30          1           0        0.500164    0.900577   -1.884286
     31          1           0        1.224025   -0.703042   -1.905211
     32          1           0       -0.363044   -1.433985   -0.431037
     33          1           0       -0.741973    2.242523   -0.567348
     34          1           0       -3.022806    3.225584   -0.381503
     35          1           0       -4.980973    1.702753    0.038924
     36          1           0       -6.677428   -1.131875    0.604143
     37          1           0        0.810212    1.236058    1.044595
 ---------------------------------------------------------------------

 SCF Done:  E(UB3LYP) =  -916.972963552     A.U. after   33 cycles
 SCF Done:  E(UB3LYP) =  -916.972963552     a.u. after    1 cycles

 The electronic state is 2-A.
 Alpha  occ. eigenvalues --  -19.04549 -19.02723 -19.02402 -18.94878 -14.20779
 Alpha  occ. eigenvalues --  -14.14697 -10.13854 -10.13598 -10.13175 -10.13081
 Alpha  occ. eigenvalues --  -10.10647 -10.10422 -10.09210 -10.09071 -10.08338
 Alpha  occ. eigenvalues --  -10.05026 -10.04024 -10.02793 -10.02283  -0.96032
 Alpha  occ. eigenvalues --   -0.95919  -0.93317  -0.86510  -0.83751  -0.77368
 Alpha  occ. eigenvalues --   -0.72957  -0.68636  -0.65956  -0.64872  -0.60954
 Alpha  occ. eigenvalues --   -0.57069  -0.55899  -0.53315  -0.52888  -0.48379
 Alpha  occ. eigenvalues --   -0.47022  -0.45533  -0.42785  -0.41230  -0.40058
 Alpha  occ. eigenvalues --   -0.39451  -0.39132  -0.37696  -0.36637  -0.35656
 Alpha  occ. eigenvalues --   -0.34369  -0.33818  -0.33251  -0.32738  -0.31379
 Alpha  occ. eigenvalues --   -0.30997  -0.30879  -0.30000  -0.28982  -0.28427
 Alpha  occ. eigenvalues --   -0.27790  -0.26775  -0.26169  -0.25060  -0.24451
 Alpha  occ. eigenvalues --   -0.24234  -0.23194  -0.22467  -0.19576  -0.18450
 Alpha  occ. eigenvalues --   -0.17779  -0.17315  -0.14616  -0.12952  -0.11980
 Alpha  occ. eigenvalues --   -0.09120   0.04208
 Alpha virt. eigenvalues --    0.05489   0.06707   0.07043   0.08284   0.08976
 Alpha virt. eigenvalues --    0.09401   0.09699   0.09905   0.10100   0.10982
 Alpha virt. eigenvalues --    0.11594   0.12233   0.12763   0.12799   0.13199

  Beta  occ. eigenvalues --  -19.04547 -19.02708 -19.02333 -18.94593 -14.20794
  Beta  occ. eigenvalues --  -14.14381 -10.13845 -10.13594 -10.13079 -10.12953
  Beta  occ. eigenvalues --  -10.10643 -10.10503 -10.09209 -10.09065 -10.08332
  Beta  occ. eigenvalues --  -10.04768 -10.03933 -10.02780 -10.01994  -0.96027
  Beta  occ. eigenvalues --   -0.95636  -0.93286  -0.86084  -0.83608  -0.77009
  Beta  occ. eigenvalues --   -0.72938  -0.68623  -0.65599  -0.64629  -0.60593
  Beta  occ. eigenvalues --   -0.57032  -0.55882  -0.53219  -0.52314  -0.48300
  Beta  occ. eigenvalues --   -0.46948  -0.45287  -0.42766  -0.41099  -0.40028
  Beta  occ. eigenvalues --   -0.39395  -0.39103  -0.37654  -0.36619  -0.35512
  Beta  occ. eigenvalues --   -0.34296  -0.33598  -0.32994  -0.32646  -0.31343
  Beta  occ. eigenvalues --   -0.30830  -0.29939  -0.29681  -0.28893  -0.28378
  Beta  occ. eigenvalues --   -0.27715  -0.26533  -0.25724  -0.24865  -0.24341
  Beta  occ. eigenvalues --   -0.24028  -0.23153  -0.22442  -0.19355  -0.17766
  Beta  occ. eigenvalues --   -0.17405  -0.16874  -0.12826  -0.12644  -0.11580
  Beta  occ. eigenvalues --   -0.08167
  Beta virt. eigenvalues --    0.05684   0.06751   0.07012   0.08294   0.08974
  Beta virt. eigenvalues --    0.09386   0.09591   0.09789   0.09898   0.10278
  Beta virt. eigenvalues --    0.10907   0.11526   0.12469   0.12685   0.12813

 Mulliken charges and spin densities:
               1          2
     1  C   -0.292862   0.042373
     2  C   -0.168059  -0.348009
     3  O   -0.129424   0.017541
     4  C   -0.182849  -0.178194
     5  C   -0.276472  -0.049594
     6  C    0.058698   0.260486
     7  C    0.277294  -0.472879
     8  C   -0.505610   0.062419
     9  N   -0.031075  -0.005090
    10  C   -0.799912   0.005054
    11  C    0.914893   0.228555
    12  C   -1.322532   0.027569
    13  C    0.350888   0.039787
    14  C   -0.651763   0.164432
    15  N   -0.094493   0.147093
    16  C    0.303878   0.120280
    17  O   -0.398713   0.102171
    18  O   -0.226624   0.014880
    19  O   -0.170037  -0.001763
    20  H    0.095486   0.073764
    21  H    0.050339   0.062481
    22  H   -0.094050   0.281760
    23  H    0.094286   0.041822
    24  H    0.098280   0.057305
    25  H    0.110034   0.080453
    26  H    0.119228   0.010270
    27  H    0.064937   0.100193
    28  H    0.176339   0.028403
    29  H    0.209659  -0.046101
    30  H    0.178898   0.005348
    31  H    0.071059   0.070284
    32  H    0.273283   0.020673
    33  H    0.168314  -0.019685
    34  H    0.109022  -0.003406
    35  H    0.176959   0.000392
    36  H    0.256486  -0.001115
    37  H    0.186213   0.060049
 Sum of Mulliken charges =  -1.00000   1.00000

 Dipole moment (field-independent basis, Debye):
    X=              7.2312    Y=              2.1891    Z=             -0.6168  Tot=              7.5804
 Quadrupole moment (field-independent basis, Debye-Ang):
   XX=           -208.6314   YY=           -140.5479   ZZ=           -123.7039
   XY=             -6.4193   XZ=              0.1148   YZ=              0.2109

 Summary of Natural Population Analysis:

                                       Natural Population
                Natural  -----------------------------------------------
    Atom  No    Charge         Core      Valence    Rydberg      Total
 -----------------------------------------------------------------------
      C    1   -0.20692      0.99961     2.19776    0.00955     3.20692
      C    2   -0.01238      0.99958     1.99867    0.01412     3.01238
      O    3   -0.30298      0.99989     3.29339    0.00970     4.30298
      C    4   -0.01042      0.99958     1.99939    0.01144     3.01042
      C    5   -0.20511      0.99961     2.19743    0.00806     3.20511
      C    6   -0.12655      0.99957     2.11607    0.01091     3.12655
      C    7    0.06057      0.99953     1.92621    0.01369     2.93943
      C    8   -0.09657      0.99960     2.08635    0.01063     3.09657
      N    9   -0.33771      0.99967     2.82712    0.01092     3.83771
      C   10    0.18082      0.99953     1.80478    0.01487     2.81918
      C   11   -0.10585      0.99952     2.09788    0.00845     3.10585
      C   12   -0.07308      0.99958     2.06448    0.00902     3.07308
      C   13   -0.12530      0.99954     2.11720    0.00856     3.12530
      C   14    0.09237      0.99949     1.89514    0.01300     2.90763
      N   15   -0.20076      0.99964     2.69014    0.01098     3.70076
      C   16    0.41626      0.99969     1.55970    0.02435     2.58374
      O   17   -0.28894      0.99987     3.28232    0.00675     4.28894
      O   18   -0.35734      0.99988     3.34988    0.00758     4.35734
      O   19   -0.37306      0.99990     3.36641    0.00675     4.37306
      H   20    0.10070      0.00000     0.39814    0.00117     0.39930
      H   21    0.10195      0.00000     0.39694    0.00111     0.39805
      H   22    0.09160      0.00000     0.40723    0.00117     0.40840
      H   23    0.07472      0.00000     0.42395    0.00133     0.42528
      H   24    0.07723      0.00000     0.42143    0.00135     0.42277
      H   25    0.08988      0.00000     0.40891    0.00120     0.41012
      H   26    0.11154      0.00000     0.38721    0.00126     0.38846
      H   27    0.09720      0.00000     0.40154    0.00126     0.40280
      H   28    0.10555      0.00000     0.39239    0.00205     0.39445
      H   29    0.08279      0.00000     0.41513    0.00207     0.41721
      H   30    0.10157      0.00000     0.39710    0.00132     0.39843
      H   31    0.09223      0.00000     0.40654    0.00123     0.40777
      H   32    0.19226      0.00000     0.30450    0.00324     0.30774
      H   33    0.10007      0.00000     0.39850    0.00142     0.39993
      H   34    0.08953      0.00000     0.40949    0.00097     0.41047
      H   35    0.10381      0.00000     0.39516    0.00103     0.39619
      H   36    0.22733      0.00000     0.26716    0.00551     0.27267
      H   37    0.23296      0.00000     0.26349    0.00354     0.26704
 =======================================================================
   * Total *    0.00000     18.99328    51.76515    0.24157    71.00000

 Normal termination of Gaussian 16 at Sat Dec 12 11:38:32 2020.
