 Gaussian 16, Revision A.03,

 -----------------------------------------------------------
 # opt freq B3LYP/6-31G(d) empiricaldispersion=gd3bj scf=xqc
 -----------------------------------------------------------

 -------------------------------
 CID_151598081_JID_8923_neutraal
 -------------------------------
 Symbolic Z-matrix:
 Charge =  0 Multiplicity = 1

 SCF Done:  E(RB3LYP) =  -850.923027549     A.U. after   15 cycles
 SCF Done:  E(RB3LYP) =  -850.937139795     A.U. after   13 cycles
 SCF Done:  E(RB3LYP) =  -850.940517584     A.U. after   15 cycles
 SCF Done:  E(RB3LYP) =  -850.942772553     A.U. after   14 cycles
 SCF Done:  E(RB3LYP) =  -850.944073464     A.U. after   14 cycles
 SCF Done:  E(RB3LYP) =  -850.944882498     A.U. after   13 cycles
 SCF Done:  E(RB3LYP) =  -850.945272963     A.U. after   13 cycles
 SCF Done:  E(RB3LYP) =  -850.945774433     A.U. after   12 cycles
 SCF Done:  E(RB3LYP) =  -850.946656380     A.U. after   13 cycles
 SCF Done:  E(RB3LYP) =  -850.947197802     A.U. after   13 cycles
 SCF Done:  E(RB3LYP) =  -850.950254957     A.U. after    7 cycles
 SCF Done:  E(RB3LYP) =  -850.950254955     A.U. after    8 cycles
 SCF Done:  E(RB3LYP) =  -850.950254939     A.U. after    8 cycles
 SCF Done:  E(RB3LYP) =  -850.950254905     A.U. after    8 cycles
 SCF Done:  E(RB3LYP) =  -850.950254856     A.U. after    8 cycles
 SCF Done:  E(RB3LYP) =  -850.950254822     A.U. after    8 cycles
 Optimization completed.
    -- Stationary point found.
 Normal termination of Gaussian 16 at Fri Dec 11 23:26:35 2020.

 --------------------------------------------------------------------
 #N Geom=AllCheck Guess=TCheck SCRF=Check GenChk RB3LYP/6-31G(d) Freq
 --------------------------------------------------------------------

 Structure from the checkpoint file:  "JID_8923.chk"
 -------------------------------
 CID_151598081_JID_8923_neutraal
 -------------------------------
 Charge =  0 Multiplicity = 1

 SCF Done:  E(RB3LYP) =  -850.950254822     A.U. after    1 cycles

  Exact polarizability: 174.992  -3.287 156.909   3.996  -6.049 114.154
 Approx polarizability: 217.667 -20.592 278.560  11.142 -23.458 178.650

                      1                      2                      3
                      A                      A                      A
 Frequencies --     11.6853                27.6739                49.0331
 Red. masses --      5.9289                 6.7798                 5.7902
 Frc consts  --      0.0005                 0.0031                 0.0082
 IR Inten    --      1.0720                 0.6470                 0.4179

                      4                      5                      6
                      A                      A                      A
 Frequencies --     59.3467                70.1495                89.6581
 Red. masses --      5.9300                 5.8734                 5.4377
 Frc consts  --      0.0123                 0.0170                 0.0258
 IR Inten    --      0.0894                 0.2504                 6.0225

                      7                      8                      9
                      A                      A                      A
 Frequencies --    112.0346               141.8569               156.5311
 Red. masses --      4.4304                 3.3393                 4.5139
 Frc consts  --      0.0328                 0.0396                 0.0652
 IR Inten    --      3.4558                 1.1361                 1.9643

                     10                     11                     12
                      A                      A                      A
 Frequencies --    182.8286               240.2778               272.4920
 Red. masses --      4.1447                 3.3552                 4.6611
 Frc consts  --      0.0816                 0.1141                 0.2039
 IR Inten    --      3.9730                 2.8709                 2.5061

                     13                     14                     15
                      A                      A                      A
 Frequencies --    294.8386               303.2380               314.8723
 Red. masses --      2.8084                 2.3656                 2.8515
 Frc consts  --      0.1438                 0.1282                 0.1666
 IR Inten    --      1.7165                 9.2898                 0.4066

                     16                     17                     18
                      A                      A                      A
 Frequencies --    348.6329               367.7894               371.3563
 Red. masses --      2.2217                 3.1585                 1.9948
 Frc consts  --      0.1591                 0.2517                 0.1621
 IR Inten    --      6.1540                 2.0849                 1.3877

                     19                     20                     21
                      A                      A                      A
 Frequencies --    428.5026               442.1237               482.2198
 Red. masses --      1.0927                 2.5364                 2.4390
 Frc consts  --      0.1182                 0.2921                 0.3342
 IR Inten    --     39.6666                 5.3454                 1.2335

                     22                     23                     24
                      A                      A                      A
 Frequencies --    488.3914               518.6425               531.2368
 Red. masses --      2.3765                 2.8192                 3.0563
 Frc consts  --      0.3340                 0.4468                 0.5082
 IR Inten    --     10.1166                10.0315                15.5232

                     25                     26                     27
                      A                      A                      A
 Frequencies --    566.3274               585.3779               614.3895
 Red. masses --     13.1653                 5.0611                 1.4980
 Frc consts  --      2.4878                 1.0218                 0.3331
 IR Inten    --      7.8165                19.8746               164.3225

                     28                     29                     30
                      A                      A                      A
 Frequencies --    638.3916               652.4285               672.3986
 Red. masses --      2.2488                 4.5455                 2.8963
 Frc consts  --      0.5400                 1.1400                 0.7715
 IR Inten    --     20.2874                 7.4195                 2.8298

                     31                     32                     33
                      A                      A                      A
 Frequencies --    732.5339               748.7706               782.3916
 Red. masses --      2.3059                 3.2934                 4.7671
 Frc consts  --      0.7290                 1.0879                 1.7193
 IR Inten    --      1.7459                 7.5964                92.0423

                     34                     35                     36
                      A                      A                      A
 Frequencies --    835.0205               852.9138               868.0149
 Red. masses --      3.2101                 1.5795                 1.9240
 Frc consts  --      1.3187                 0.6770                 0.8541
 IR Inten    --      5.9870                 1.0876                 2.8543

                     37                     38                     39
                      A                      A                      A
 Frequencies --    909.9448               927.0514               939.9042
 Red. masses --      3.1364                 2.2003                 2.5990
 Frc consts  --      1.5301                 1.1141                 1.3528
 IR Inten    --      1.0045                 0.5567                 2.6389

                     40                     41                     42
                      A                      A                      A
 Frequencies --    949.8213               982.6967               994.4315
 Red. masses --      2.8203                 3.2421                 2.8714
 Frc consts  --      1.4991                 1.8446                 1.6730
 IR Inten    --      6.8903                27.9668                 8.4946

                     43                     44                     45
                      A                      A                      A
 Frequencies --   1020.3202              1028.1181              1039.6707
 Red. masses --      2.6199                 2.4118                 2.1631
 Frc consts  --      1.6070                 1.5020                 1.3776
 IR Inten    --     26.2458                51.9812                 5.8327

                     46                     47                     48
                      A                      A                      A
 Frequencies --   1055.4426              1089.4187              1095.1341
 Red. masses --      2.1280                 1.8562                 2.4612
 Frc consts  --      1.3966                 1.2980                 1.7391
 IR Inten    --      7.3801                10.8998                15.4522

                     49                     50                     51
                      A                      A                      A
 Frequencies --   1119.6558              1143.0206              1154.3035
 Red. masses --      1.7903                 1.0869                 1.9647
 Frc consts  --      1.3224                 0.8366                 1.5423
 IR Inten    --     33.2166                 1.0586                27.9207

                     52                     53                     54
                      A                      A                      A
 Frequencies --   1160.4263              1185.8310              1195.0801
 Red. masses --      2.1388                 1.5467                 1.9251
 Frc consts  --      1.6969                 1.2815                 1.6199
 IR Inten    --     43.8598                 6.8570                 6.9000

                     55                     56                     57
                      A                      A                      A
 Frequencies --   1222.2421              1243.0625              1246.9615
 Red. masses --      1.9760                 1.4357                 1.7517
 Frc consts  --      1.7392                 1.3071                 1.6048
 IR Inten    --     34.8298                 7.8269                22.0499

                     58                     59                     60
                      A                      A                      A
 Frequencies --   1257.4725              1271.5959              1279.8170
 Red. masses --      1.6599                 1.6495                 1.5615
 Frc consts  --      1.5464                 1.5715                 1.5069
 IR Inten    --     30.7318                 5.8353                19.7634

                     61                     62                     63
                      A                      A                      A
 Frequencies --   1286.8276              1319.4501              1325.4576
 Red. masses --      1.5229                 1.4486                 1.6798
 Frc consts  --      1.4858                 1.4858                 1.7388
 IR Inten    --      7.4899                98.8131                70.1441

                     64                     65                     66
                      A                      A                      A
 Frequencies --   1347.2749              1351.5550              1371.3265
 Red. masses --      1.8882                 1.6207                 2.3579
 Frc consts  --      2.0194                 1.7443                 2.6125
 IR Inten    --     32.2194                16.7707                65.3398

                     67                     68                     69
                      A                      A                      A
 Frequencies --   1378.4318              1401.0422              1402.3950
 Red. masses --      1.2714                 1.2701                 1.3780
 Frc consts  --      1.4233                 1.4689                 1.5967
 IR Inten    --      6.6564                11.2379                30.4381

                     70                     71                     72
                      A                      A                      A
 Frequencies --   1410.5833              1412.0661              1422.5799
 Red. masses --      1.4109                 1.3553                 1.3656
 Frc consts  --      1.6540                 1.5922                 1.6283
 IR Inten    --      0.4779                43.9359                11.8795

                     73                     74                     75
                      A                      A                      A
 Frequencies --   1438.2728              1442.1347              1478.2864
 Red. masses --      1.4872                 1.3655                 2.9660
 Frc consts  --      1.8127                 1.6733                 3.8189
 IR Inten    --     38.5482                 3.4320               291.3857

                     76                     77                     78
                      A                      A                      A
 Frequencies --   1493.6399              1496.7349              1508.7144
 Red. masses --      1.0938                 1.0889                 1.1467
 Frc consts  --      1.4378                 1.4373                 1.5378
 IR Inten    --      4.4515                 7.2093                17.9305

                     79                     80                     81
                      A                      A                      A
 Frequencies --   1516.9290              1520.7891              1528.2589
 Red. masses --      1.0861                 1.0854                 1.1211
 Frc consts  --      1.4725                 1.4790                 1.5427
 IR Inten    --     10.3328                 4.6473                 7.4273

                     82                     83                     84
                      A                      A                      A
 Frequencies --   1549.9021              1573.0313              1658.6262
 Red. masses --      1.0871                 1.1109                 1.2093
 Frc consts  --      1.5386                 1.6195                 1.9601
 IR Inten    --      2.4274                10.0582               164.6023

                     85                     86                     87
                      A                      A                      A
 Frequencies --   1787.9438              2258.1192              2990.7439
 Red. masses --      6.8035                13.5730                 1.0691
 Frc consts  --     12.8142                40.7774                 5.6342
 IR Inten    --    371.4688               398.3520                58.5448

                     88                     89                     90
                      A                      A                      A
 Frequencies --   3012.6953              3015.3432              3023.0681
 Red. masses --      1.0725                 1.0682                 1.0721
 Frc consts  --      5.7353                 5.7225                 5.7725
 IR Inten    --     40.1806                54.0080                43.4742

                     91                     92                     93
                      A                      A                      A
 Frequencies --   3035.6697              3039.6853              3044.7990
 Red. masses --      1.0655                 1.0677                 1.0578
 Frc consts  --      5.7852                 5.8125                 5.7778
 IR Inten    --     11.5097                95.2228                68.3378

                     94                     95                     96
                      A                      A                      A
 Frequencies --   3054.9146              3079.1926              3090.7196
 Red. masses --      1.0648                 1.1084                 1.0912
 Frc consts  --      5.8546                 6.1919                 6.1414
 IR Inten    --     28.8491                43.0839                64.8824

                     97                     98                     99
                      A                      A                      A
 Frequencies --   3092.4064              3097.7916              3110.5059
 Red. masses --      1.0937                 1.1002                 1.0882
 Frc consts  --      6.1622                 6.2205                 6.2032
 IR Inten    --      8.0322                16.8130                50.7944

                    100                    101                    102
                      A                      A                      A
 Frequencies --   3120.4370              3130.5331              3140.1343
 Red. masses --      1.1024                 1.0925                 1.0939
 Frc consts  --      6.3247                 6.3083                 6.3553
 IR Inten    --     28.2132                17.8059                20.7842

                    103                    104                    105
                      A                      A                      A
 Frequencies --   3159.9413              3556.1732              3663.1328
 Red. masses --      1.0907                 1.0482                 1.0982
 Frc consts  --      6.4168                 7.8102                 8.6824
 IR Inten    --      3.8840                16.5430                23.1239

 - Thermochemistry -
 -------------------
 Temperature   298.150 Kelvin.  Pressure   1.00000 Atm.
 Atom     1 has atomic number  6 and mass  12.00000

 Molecular mass:   253.16511 amu.
 Principal axes and moments of inertia in atomic units:
                           1         2         3
     Eigenvalues --  1803.182879559.41780**********
           X            0.99998  -0.00586  -0.00181
           Y            0.00590   0.99983   0.01727
           Z            0.00171  -0.01728   0.99985
 This molecule is an asymmetric top.
 Rotational symmetry number  1.
 Warning -- assumption of classical behavior for rotation
           may cause significant error
 Rotational temperatures (Kelvin)      0.04803     0.00906     0.00854
 Rotational constants (GHZ):           1.00086     0.18879     0.17803
 Zero-point vibrational energy     834419.5 (Joules/Mol)
                                  199.43106 (Kcal/Mol)
 Warning -- explicit consideration of  27 degrees of freedom as
           vibrations may cause significant error
 Vibrational temperatures:     16.81    39.82    70.55    85.39   100.93
          (Kelvin)            129.00   161.19   204.10   225.21   263.05
                              345.71   392.06   424.21   436.29   453.03
                              501.60   529.17   534.30   616.52   636.12
                              693.81   702.69   746.21   764.33   814.82
                              842.23   883.97   918.50   938.70   967.43
                             1053.95  1077.31  1125.69  1201.41  1227.15
                             1248.88  1309.21  1333.82  1352.31  1366.58
                             1413.88  1430.77  1468.01  1479.23  1495.85
                             1518.55  1567.43  1575.65  1610.94  1644.55
                             1660.79  1669.59  1706.15  1719.45  1758.53
                             1788.49  1794.10  1809.22  1829.54  1841.37
                             1851.46  1898.39  1907.04  1938.43  1944.59
                             1973.03  1983.26  2015.79  2017.73  2029.51
                             2031.65  2046.78  2069.35  2074.91  2126.92
                             2149.01  2153.47  2170.70  2182.52  2188.08
                             2198.82  2229.96  2263.24  2386.39  2572.45
                             3248.93  4303.01  4334.60  4338.41  4349.52
                             4367.65  4373.43  4380.79  4395.34  4430.27
                             4446.86  4449.28  4457.03  4475.32  4489.61
                             4504.14  4517.95  4546.45  5116.54  5270.43

 Zero-point correction=                           0.317814 (Hartree/Particle)
 Thermal correction to Energy=                    0.335096
 Thermal correction to Enthalpy=                  0.336040
 Thermal correction to Gibbs Free Energy=         0.270133
 Sum of electronic and zero-point Energies=           -850.632441
 Sum of electronic and thermal Energies=              -850.615159
 Sum of electronic and thermal Enthalpies=            -850.614215
 Sum of electronic and thermal Free Energies=         -850.680121

                     E (Thermal)             CV                S
                      KCal/Mol        Cal/Mol-Kelvin    Cal/Mol-Kelvin
 Total                  210.276             65.428            138.712
 Electronic               0.000              0.000              0.000
 Translational            0.889              2.981             42.487
 Rotational               0.889              2.981             33.524
 Vibrational            208.498             59.466             62.702
 Vibration     1          0.593              1.987              7.702
 Vibration     2          0.593              1.984              5.990
 Vibration     3          0.595              1.978              4.856
 Vibration     4          0.597              1.974              4.479
 Vibration     5          0.598              1.968              4.149
 Vibration     6          0.602              1.956              3.668
 Vibration     7          0.607              1.939              3.233
 Vibration     8          0.615              1.911              2.779
 Vibration     9          0.620              1.895              2.591
 Vibration    10          0.630              1.863              2.299
 Vibration    11          0.657              1.779              1.801
 Vibration    12          0.675              1.724              1.580
 Vibration    13          0.689              1.683              1.446
 Vibration    14          0.695              1.668              1.399
 Vibration    15          0.702              1.645              1.337
 Vibration    16          0.726              1.578              1.172
 Vibration    17          0.740              1.538              1.089
 Vibration    18          0.743              1.531              1.074
 Vibration    19          0.790              1.408              0.864
 Vibration    20          0.802              1.378              0.820
 Vibration    21          0.838              1.289              0.704
 Vibration    22          0.844              1.276              0.688
 Vibration    23          0.874              1.209              0.613
 Vibration    24          0.886              1.181              0.584
 Vibration    25          0.922              1.104              0.511
 Vibration    26          0.942              1.063              0.475
 Vibration    27          0.974              1.001              0.426

 Optimization completed.
    -- Stationary point found.
 Normal termination of Gaussian 16 at Fri Dec 11 23:45:11 2020.

 ----------------------------------------------------------------------
 # B3LYP/6-311++G(d,p) empiricaldispersion=gd3bj scf=xqc pop=npa geom=c
 heck
 ----------------------------------------------------------------------

 ---------------------------------------
 CID_151598081_JID_8923_Energie_neutraal
 ---------------------------------------
 Structure from the checkpoint file:  "JID_8923.chk"
 Charge =  0 Multiplicity = 1

 SCF Done:  E(RB3LYP) =  -851.192868892     A.U. after   15 cycles
 Normal termination of Gaussian 16 at Fri Dec 11 23:53:29 2020.

 ----------------------------------------------------------------------
 # B3LYP/6-311++G(d,p) empiricaldispersion=gd3bj scf=xqc pop=npa geom=c
 heck
 ----------------------------------------------------------------------

 -------------------------------------
 CID_151598081_JID_8923_Energie_kation
 -------------------------------------
 Structure from the checkpoint file:  "JID_8923.chk"
 Charge =  1 Multiplicity = 2

 SCF Done:  E(UB3LYP) =  -850.918124266     A.U. after   27 cycles
 Normal termination of Gaussian 16 at Sat Dec 12 00:14:30 2020.
 Gaussian 16:  ES64L-G16RevA.03 25-Dec-2016

 ----------------------------------------------------------------------
 # B3LYP/6-311++G(d,p) empiricaldispersion=gd3bj scf=xqc pop=npa geom=c
 heck
 ----------------------------------------------------------------------

 ------------------------------------
 CID_151598081_JID_8923_Energie_anion
 ------------------------------------
 Structure from the checkpoint file:  "JID_8923.chk"
 Charge = -1 Multiplicity = 2

                         Standard orientation:
 ---------------------------------------------------------------------
 Center     Atomic      Atomic             Coordinates (Angstroms)
 Number     Number       Type             X           Y           Z
 ---------------------------------------------------------------------
      1          6           0       -1.219025   -0.243400    1.584585
      2          6           0       -2.026499   -0.974506    0.492506
      3          7           0       -2.874314   -0.036279   -0.234549
      4          6           0       -2.240615    1.200689   -0.684763
      5          6           0       -1.496719    1.865995    0.477349
      6          7           0       -0.551504    0.977470    1.148756
      7          6           0        0.760642    0.884821    0.550482
      8          6           0        1.797613    0.061914    1.360301
      9          7           0        1.708766   -1.000389    0.342066
     10          6           0        1.074198   -0.103875   -0.633479
     11          6           0        2.795666   -1.897358    0.025716
     12          6           0        3.926772   -1.370791   -0.878562
     13          7           0        4.701089   -0.270076   -0.262284
     14          7           0        4.331092    0.870221   -0.544575
     15          7           0        4.071707    1.969834   -0.724720
     16          6           0       -4.189428   -0.263637   -0.575076
     17          8           0       -4.907480    0.590949   -1.085179
     18          7           0       -4.688940   -1.529973   -0.250994
     19          1           0       -1.918958    0.035517    2.384045
     20          1           0       -0.487416   -0.937535    2.002820
     21          1           0       -2.657950   -1.716514    0.985133
     22          1           0       -1.347840   -1.504222   -0.190923
     23          1           0       -1.541560    0.983424   -1.506406
     24          1           0       -3.031053    1.845124   -1.070039
     25          1           0       -2.237637    2.194688    1.218997
     26          1           0       -0.961143    2.753055    0.122066
     27          1           0        1.087168    1.904862    0.335629
     28          1           0        2.768034    0.569499    1.432943
     29          1           0        1.496751   -0.248648    2.368112
     30          1           0        0.239250   -0.543453   -1.188543
     31          1           0        1.762932    0.358843   -1.359115
     32          1           0        3.229327   -2.238820    0.972525
     33          1           0        2.389698   -2.787123   -0.479422
     34          1           0        4.640900   -2.180883   -1.051732
     35          1           0        3.531292   -1.061803   -1.854136
     36          1           0       -4.078043   -2.322185   -0.407268
     37          1           0       -5.604807   -1.656177   -0.663504
 ---------------------------------------------------------------------

 SCF Done:  E(UB3LYP) =  -851.190885111     A.U. after   32 cycles

 The electronic state is 2-A.
 Alpha  occ. eigenvalues --  -18.98902 -14.35018 -14.25253 -14.24825 -14.24369
 Alpha  occ. eigenvalues --  -14.23150 -14.22141 -14.21129 -10.20278 -10.11616
 Alpha  occ. eigenvalues --  -10.11530 -10.11433 -10.11271 -10.11045 -10.11043
 Alpha  occ. eigenvalues --  -10.10188 -10.10160 -10.09990  -1.01995  -0.95604
 Alpha  occ. eigenvalues --   -0.87276  -0.86402  -0.85020  -0.82234  -0.79866
 Alpha  occ. eigenvalues --   -0.69603  -0.68633  -0.64350  -0.61039  -0.59193
 Alpha  occ. eigenvalues --   -0.57023  -0.55327  -0.51072  -0.47784  -0.46056
 Alpha  occ. eigenvalues --   -0.44692  -0.43744  -0.42497  -0.41596  -0.40189
 Alpha  occ. eigenvalues --   -0.39624  -0.38881  -0.38346  -0.37357  -0.37025
 Alpha  occ. eigenvalues --   -0.35517  -0.34882  -0.33638  -0.33406  -0.33088
 Alpha  occ. eigenvalues --   -0.31585  -0.31288  -0.30838  -0.30137  -0.29129
 Alpha  occ. eigenvalues --   -0.27968  -0.27217  -0.26652  -0.26255  -0.24853
 Alpha  occ. eigenvalues --   -0.23576  -0.19609  -0.19288  -0.17071  -0.16206
 Alpha  occ. eigenvalues --   -0.15145  -0.12096  -0.11700   0.03754
 Alpha virt. eigenvalues --    0.05249   0.07021   0.07257   0.07762   0.08464
 Alpha virt. eigenvalues --    0.09099   0.09427   0.09867   0.09997   0.10620
 Alpha virt. eigenvalues --    0.11412   0.11577   0.11973   0.12115   0.12744

  Beta  occ. eigenvalues --  -18.98896 -14.34766 -14.24924 -14.24823 -14.24426
  Beta  occ. eigenvalues --  -14.23100 -14.22139 -14.21129 -10.20275 -10.11613
  Beta  occ. eigenvalues --  -10.11505 -10.11433 -10.11269 -10.11037 -10.10955
  Beta  occ. eigenvalues --  -10.10164 -10.10152 -10.09982  -1.01515  -0.95591
  Beta  occ. eigenvalues --   -0.87256  -0.86204  -0.84986  -0.82213  -0.79801
  Beta  occ. eigenvalues --   -0.69536  -0.68616  -0.64279  -0.60951  -0.59173
  Beta  occ. eigenvalues --   -0.56997  -0.55255  -0.51018  -0.47738  -0.45984
  Beta  occ. eigenvalues --   -0.44658  -0.43645  -0.42284  -0.41558  -0.40042
  Beta  occ. eigenvalues --   -0.39228  -0.38565  -0.38232  -0.37257  -0.36991
  Beta  occ. eigenvalues --   -0.35438  -0.34736  -0.33371  -0.33091  -0.33020
  Beta  occ. eigenvalues --   -0.31500  -0.31180  -0.30814  -0.30043  -0.29026
  Beta  occ. eigenvalues --   -0.27927  -0.27205  -0.26578  -0.26231  -0.24833
  Beta  occ. eigenvalues --   -0.23556  -0.19577  -0.18718  -0.17038  -0.16197
  Beta  occ. eigenvalues --   -0.15062  -0.12072  -0.11671
  Beta virt. eigenvalues --    0.06343   0.07041   0.07363   0.07767   0.08388
  Beta virt. eigenvalues --    0.09126   0.09364   0.09622   0.10053   0.10338
  Beta virt. eigenvalues --    0.11139   0.11444   0.11664   0.12140   0.12358

 Mulliken charges and spin densities:
               1          2
     1  C   -0.014885  -0.520641
     2  C   -0.121134  -0.252574
     3  N   -0.025082   0.049788
     4  C   -0.189113  -0.237399
     5  C    0.015894  -0.009958
     6  N    0.295792   0.020488
     7  C   -0.761797   0.350952
     8  C   -0.246585  -0.353429
     9  N   -0.028257   0.177541
    10  C    0.085547  -0.565308
    11  C    0.043466  -0.122008
    12  C    0.498911  -0.962706
    13  N   -0.496395   0.155832
    14  N    0.541047   0.014350
    15  N   -0.292415   0.140799
    16  C    0.441856  -0.193787
    17  O   -0.389304  -0.011063
    18  N   -0.310935  -0.091709
    19  H    0.177072  -0.007381
    20  H    0.005316   0.169257
    21  H   -0.083533   0.264503
    22  H   -0.151010   0.365348
    23  H    0.094294   0.059243
    24  H    0.244153  -0.019638
    25  H    0.157167   0.013493
    26  H    0.141328  -0.008270
    27  H    0.184235   0.027185
    28  H   -0.014767   0.147808
    29  H    0.127138   0.004151
    30  H   -0.046830   0.238431
    31  H    0.261472  -0.205066
    32  H   -0.018181   0.182221
    33  H   -0.232326   0.371678
    34  H   -0.468953   0.666085
    35  H   -0.079306   0.248314
    36  H   -0.377181   0.630955
    37  H    0.033299   0.262515
 Sum of Mulliken charges =  -1.00000   1.00000

 Dipole moment (field-independent basis, Debye):
    X=             -0.6899    Y=              4.1669    Z=              2.4001  Tot=              4.8579
 Quadrupole moment (field-independent basis, Debye-Ang):
   XX=           -226.4434   YY=           -154.4928   ZZ=           -132.1269
   XY=             -5.5618   XZ=             -3.6815   YZ=             -2.9609

 Summary of Natural Population Analysis:

                                       Natural Population
                Natural  -----------------------------------------------
    Atom  No    Charge         Core      Valence    Rydberg      Total
 -----------------------------------------------------------------------
      C    1   -0.09069      0.99961     2.07902    0.01206     3.09069
      C    2   -0.09660      0.99960     2.08534    0.01165     3.09660
      N    3   -0.26947      0.99964     2.75836    0.01148     3.76947
      C    4   -0.09611      0.99961     2.08693    0.00957     3.09611
      C    5   -0.08542      0.99962     2.07666    0.00914     3.08542
      N    6   -0.27446      0.99971     2.76273    0.01203     3.77446
      C    7   -0.00796      0.99957     1.99414    0.01425     3.00796
      C    8   -0.07976      0.99963     2.06944    0.01069     3.07976
      N    9   -0.28832      0.99972     2.77476    0.01384     3.78832
      C   10   -0.09177      0.99963     2.08242    0.00972     3.09177
      C   11   -0.08559      0.99960     2.07377    0.01222     3.08559
      C   12   -0.09798      0.99959     2.08694    0.01145     3.09798
      N   13   -0.20568      0.99970     2.69119    0.01479     3.70568
      N   14    0.13136      0.99970     2.35314    0.01580     3.36864
      N   15   -0.02751      0.99982     2.51479    0.01290     3.52751
      C   16    0.40720      0.99969     1.57037    0.02275     2.59280
      O   17   -0.34608      0.99988     3.34094    0.00526     4.34608
      N   18   -0.41952      0.99972     2.91094    0.00885     3.91952
      H   19    0.09100      0.00000     0.40781    0.00119     0.40900
      H   20    0.10674      0.00000     0.39198    0.00127     0.39326
      H   21    0.10583      0.00000     0.39240    0.00177     0.39417
      H   22    0.09461      0.00000     0.40337    0.00203     0.40539
      H   23    0.08913      0.00000     0.40976    0.00110     0.41087
      H   24    0.11751      0.00000     0.38142    0.00108     0.38249
      H   25    0.09299      0.00000     0.40596    0.00105     0.40701
      H   26    0.09695      0.00000     0.40222    0.00083     0.40305
      H   27    0.09957      0.00000     0.39952    0.00091     0.40043
      H   28    0.09379      0.00000     0.40502    0.00119     0.40621
      H   29    0.08894      0.00000     0.40975    0.00130     0.41106
      H   30    0.08929      0.00000     0.40906    0.00165     0.41071
      H   31    0.08629      0.00000     0.41205    0.00166     0.41371
      H   32    0.09833      0.00000     0.40043    0.00124     0.40167
      H   33    0.09683      0.00000     0.40170    0.00147     0.40317
      H   34    0.10055      0.00000     0.39727    0.00217     0.39945
      H   35    0.08976      0.00000     0.40890    0.00135     0.41024
      H   36    0.19286      0.00000     0.30098    0.00616     0.30714
      H   37    0.19338      0.00000     0.30495    0.00167     0.30662
 =======================================================================
   * Total *   -0.00000     17.99402    49.75643    0.24955    68.00000

 Normal termination of Gaussian 16 at Sat Dec 12 00:38:41 2020.
