 Gaussian 16, Revision A.03,

 -----------------------------------------------------------
 # opt freq B3LYP/6-31G(d) empiricaldispersion=gd3bj scf=xqc
 -----------------------------------------------------------

 ------------------------------
 CID_86223726_JID_6533_neutraal
 ------------------------------
 Symbolic Z-matrix:
 Charge =  0 Multiplicity = 1

 SCF Done:  E(RB3LYP) =  -678.512595368     A.U. after   14 cycles
 SCF Done:  E(RB3LYP) =  -678.518423580     A.U. after   14 cycles
 SCF Done:  E(RB3LYP) =  -678.520648897     A.U. after   12 cycles
 SCF Done:  E(RB3LYP) =  -678.523013986     A.U. after   12 cycles
 SCF Done:  E(RB3LYP) =  -678.524280594     A.U. after   12 cycles
 SCF Done:  E(RB3LYP) =  -678.525158065     A.U. after   12 cycles
 SCF Done:  E(RB3LYP) =  -678.525576291     A.U. after   12 cycles
 SCF Done:  E(RB3LYP) =  -678.525470687     A.U. after   11 cycles
 SCF Done:  E(RB3LYP) =  -678.525869069     A.U. after   11 cycles
 SCF Done:  E(RB3LYP) =  -678.525890862     A.U. after   11 cycles
 SCF Done:  E(RB3LYP) =  -678.525903614     A.U. after    9 cycles
 SCF Done:  E(RB3LYP) =  -678.525904711     A.U. after    8 cycles
 SCF Done:  E(RB3LYP) =  -678.525905184     A.U. after    8 cycles
 SCF Done:  E(RB3LYP) =  -678.525905077     A.U. after    6 cycles
 Optimization completed.
    -- Stationary point found.
 Normal termination of Gaussian 16 at Thu Dec 10 23:32:40 2020.

 --------------------------------------------------------------------
 #N Geom=AllCheck Guess=TCheck SCRF=Check GenChk RB3LYP/6-31G(d) Freq
 --------------------------------------------------------------------

 Structure from the checkpoint file:  "JID_6533.chk"
 ------------------------------
 CID_86223726_JID_6533_neutraal
 ------------------------------
 Charge =  0 Multiplicity = 1

 SCF Done:  E(RB3LYP) =  -678.525905077     A.U. after    1 cycles

  Exact polarizability: 180.223   2.261 140.258   4.781  -0.262 141.905
 Approx polarizability: 241.807   2.202 196.127  14.781  -1.047 216.156

                      1                      2                      3
                      A                      A                      A
 Frequencies --     29.9993                44.7561                63.9384
 Red. masses --      3.3110                 3.2245                 3.9124
 Frc consts  --      0.0018                 0.0038                 0.0094
 IR Inten    --      0.1220                 0.0379                 0.9464

                      4                      5                      6
                      A                      A                      A
 Frequencies --     94.9760               106.7658               116.2999
 Red. masses --      2.1515                 3.0629                 2.4061
 Frc consts  --      0.0114                 0.0206                 0.0192
 IR Inten    --      0.0698                 0.1655                 0.0951

                      7                      8                      9
                      A                      A                      A
 Frequencies --    169.8258               190.9731               222.0713
 Red. masses --      2.8245                 2.3743                 1.1839
 Frc consts  --      0.0480                 0.0510                 0.0344
 IR Inten    --      0.0530                 0.3222                 0.1307

                     10                     11                     12
                      A                      A                      A
 Frequencies --    231.7451               252.9146               267.5025
 Red. masses --      1.0540                 1.2592                 1.1574
 Frc consts  --      0.0333                 0.0475                 0.0488
 IR Inten    --      0.3461                 0.0344                 0.0627

                     13                     14                     15
                      A                      A                      A
 Frequencies --    270.2667               283.1521               285.7657
 Red. masses --      1.2506                 1.9484                 2.2297
 Frc consts  --      0.0538                 0.0920                 0.1073
 IR Inten    --      0.3243                 0.9339                 0.2152

                     16                     17                     18
                      A                      A                      A
 Frequencies --    296.4943               303.7082               309.9601
 Red. masses --      3.1731                 2.3625                 2.4247
 Frc consts  --      0.1644                 0.1284                 0.1372
 IR Inten    --      1.5603                 0.1036                 1.8578

                     19                     20                     21
                      A                      A                      A
 Frequencies --    329.8047               340.6017               375.3054
 Red. masses --      2.5070                 2.5744                 2.5083
 Frc consts  --      0.1607                 0.1760                 0.2082
 IR Inten    --      3.8501                 1.2731                 0.1788

                     22                     23                     24
                      A                      A                      A
 Frequencies --    396.3840               419.7080               430.8244
 Red. masses --      2.5059                 3.1182                 1.9516
 Frc consts  --      0.2320                 0.3236                 0.2134
 IR Inten    --      0.8567                 0.4277                 1.5423

                     25                     26                     27
                      A                      A                      A
 Frequencies --    451.1777               478.2224               503.1073
 Red. masses --      2.9336                 3.2716                 3.0661
 Frc consts  --      0.3518                 0.4408                 0.4573
 IR Inten    --      0.8803                 0.8187                 2.6232

                     28                     29                     30
                      A                      A                      A
 Frequencies --    541.6741               574.7689               598.3820
 Red. masses --      2.8775                 2.1801                 2.3187
 Frc consts  --      0.4974                 0.4243                 0.4892
 IR Inten    --      2.9640                 0.6864                 2.3367

                     31                     32                     33
                      A                      A                      A
 Frequencies --    659.7164               716.0605               741.0783
 Red. masses --      2.6280                 5.2823                 2.5545
 Frc consts  --      0.6739                 1.5958                 0.8266
 IR Inten    --      5.8007                 5.0307                 3.2969

                     34                     35                     36
                      A                      A                      A
 Frequencies --    793.1401               821.4848               850.0259
 Red. masses --      2.9120                 2.2681                 2.1321
 Frc consts  --      1.0793                 0.9018                 0.9077
 IR Inten    --      0.7813                 2.0774                 6.1616

                     37                     38                     39
                      A                      A                      A
 Frequencies --    890.0579               896.8186               929.1223
 Red. masses --      1.6483                 2.3984                 2.0857
 Frc consts  --      0.7693                 1.1365                 1.0608
 IR Inten    --      4.6586                 0.3524                 0.9377

                     40                     41                     42
                      A                      A                      A
 Frequencies --    935.0031               939.5219               956.3352
 Red. masses --      3.3409                 1.3650                 1.5923
 Frc consts  --      1.7208                 0.7099                 0.8580
 IR Inten    --     61.4188                34.0931                 0.5123

                     43                     44                     45
                      A                      A                      A
 Frequencies --    959.4197               967.8893               988.4145
 Red. masses --      1.6231                 2.2537                 1.8472
 Frc consts  --      0.8802                 1.2439                 1.0633
 IR Inten    --      7.8320                56.2533                 8.6914

                     46                     47                     48
                      A                      A                      A
 Frequencies --   1005.1967              1017.5929              1029.7015
 Red. masses --      1.6251                 1.3819                 1.4656
 Frc consts  --      0.9675                 0.8431                 0.9155
 IR Inten    --     12.8646                43.0797                 1.0216

                     49                     50                     51
                      A                      A                      A
 Frequencies --   1037.2512              1043.2670              1076.6470
 Red. masses --      1.3163                 1.3287                 1.6183
 Frc consts  --      0.8344                 0.8521                 1.1052
 IR Inten    --     42.7221                21.7369                14.3662

                     52                     53                     54
                      A                      A                      A
 Frequencies --   1078.7246              1086.9961              1091.8763
 Red. masses --      1.6233                 1.7420                 1.9171
 Frc consts  --      1.1129                 1.2127                 1.3466
 IR Inten    --      5.5533                 1.9614                10.7497

                     55                     56                     57
                      A                      A                      A
 Frequencies --   1118.1519              1148.5364              1185.3655
 Red. masses --      1.7436                 2.4945                 1.8774
 Frc consts  --      1.2844                 1.9388                 1.5542
 IR Inten    --     13.4506                 1.9223                53.3550

                     58                     59                     60
                      A                      A                      A
 Frequencies --   1192.7235              1221.4871              1229.6996
 Red. masses --      1.9584                 3.1178                 2.2784
 Frc consts  --      1.6414                 2.7408                 2.0299
 IR Inten    --     52.6114                 3.3521                 1.2712

                     61                     62                     63
                      A                      A                      A
 Frequencies --   1239.7201              1259.9224              1274.8381
 Red. masses --      2.2127                 1.7782                 2.7738
 Frc consts  --      2.0037                 1.6631                 2.6560
 IR Inten    --      2.0846                 0.2367                 9.8332

                     64                     65                     66
                      A                      A                      A
 Frequencies --   1322.1835              1328.7878              1342.5971
 Red. masses --      2.2423                 1.2441                 1.2980
 Frc consts  --      2.3096                 1.2943                 1.3785
 IR Inten    --      0.5969                 3.2853                 0.0990

                     67                     68                     69
                      A                      A                      A
 Frequencies --   1351.9460              1385.9063              1395.8556
 Red. masses --      1.4170                 1.4109                 1.3205
 Frc consts  --      1.5260                 1.5967                 1.5159
 IR Inten    --      7.2589                 1.6474                17.1478

                     70                     71                     72
                      A                      A                      A
 Frequencies --   1402.9128              1408.9966              1418.9406
 Red. masses --      1.5007                 1.4309                 1.2117
 Frc consts  --      1.7403                 1.6737                 1.4374
 IR Inten    --      0.6405                 0.2992                 0.0662

                     73                     74                     75
                      A                      A                      A
 Frequencies --   1423.1681              1424.9165              1443.7095
 Red. masses --      1.2205                 1.2543                 1.2190
 Frc consts  --      1.4565                 1.5005                 1.4970
 IR Inten    --     11.8670                11.6528                12.3093

                     76                     77                     78
                      A                      A                      A
 Frequencies --   1446.3911              1467.8177              1505.4477
 Red. masses --      1.2279                 1.1964                 1.0634
 Frc consts  --      1.5135                 1.5187                 1.4199
 IR Inten    --      1.4158                 5.3228                 1.0589

                     79                     80                     81
                      A                      A                      A
 Frequencies --   1511.3916              1513.3887              1515.7495
 Red. masses --      1.0593                 1.0503                 1.0608
 Frc consts  --      1.4257                 1.4174                 1.4360
 IR Inten    --      1.1677                 1.9519                 0.9165

                     82                     83                     84
                      A                      A                      A
 Frequencies --   1518.5605              1525.9119              1526.8182
 Red. masses --      1.0640                 1.0588                 1.0543
 Frc consts  --      1.4456                 1.4526                 1.4480
 IR Inten    --      1.2786                 3.3276                 5.8827

                     85                     86                     87
                      A                      A                      A
 Frequencies --   1530.7164              1532.2388              1534.5902
 Red. masses --      1.0558                 1.0543                 1.0652
 Frc consts  --      1.4576                 1.4583                 1.4780
 IR Inten    --      1.8757                 1.7323                14.3426

                     88                     89                     90
                      A                      A                      A
 Frequencies --   1535.8088              1542.6587              1548.8089
 Red. masses --      1.0806                 1.0569                 1.0594
 Frc consts  --      1.5017                 1.4819                 1.4973
 IR Inten    --      2.9511                11.4897                 4.4420

                     91                     92                     93
                      A                      A                      A
 Frequencies --   1685.2299              1737.7430              3023.1955
 Red. masses --     11.7000                 4.7703                 1.0636
 Frc consts  --     19.5774                 8.4872                 5.7276
 IR Inten    --      4.0572                 1.7791                 9.2966

                     94                     95                     96
                      A                      A                      A
 Frequencies --   3026.6454              3034.9824              3044.7310
 Red. masses --      1.0636                 1.0834                 1.0563
 Frc consts  --      5.7404                 5.8795                 5.7694
 IR Inten    --     31.6472                27.7028                 7.6756

                     97                     98                     99
                      A                      A                      A
 Frequencies --   3046.9791              3048.2559              3050.9296
 Red. masses --      1.0403                 1.0458                 1.0413
 Frc consts  --      5.6903                 5.7256                 5.7105
 IR Inten    --      5.5056                50.0948                47.1650

                    100                    101                    102
                      A                      A                      A
 Frequencies --   3053.0563              3063.2439              3068.1497
 Red. masses --      1.0426                 1.0376                 1.0981
 Frc consts  --      5.7260                 5.7363                 6.0906
 IR Inten    --     13.2742                22.5298                46.8114

                    103                    104                    105
                      A                      A                      A
 Frequencies --   3072.4561              3084.8225              3103.7539
 Red. masses --      1.0925                 1.1042                 1.1013
 Frc consts  --      6.0762                 6.1908                 6.2505
 IR Inten    --     57.4096                51.2229                34.5162

                    106                    107                    108
                      A                      A                      A
 Frequencies --   3110.8449              3112.8001              3118.6963
 Red. masses --      1.1012                 1.1007                 1.0982
 Frc consts  --      6.2787                 6.2838                 6.2931
 IR Inten    --     18.1043                87.2558                18.6354

                    109                    110                    111
                      A                      A                      A
 Frequencies --   3128.4303              3138.8595              3146.9643
 Red. masses --      1.1017                 1.1019                 1.0843
 Frc consts  --      6.3529                 6.3965                 6.3266
 IR Inten    --     26.3239                15.9612                31.0956

                    112                    113                    114
                      A                      A                      A
 Frequencies --   3152.2142              3158.6068              3164.2852
 Red. masses --      1.1002                 1.0984                 1.1009
 Frc consts  --      6.4412                 6.4564                 6.4943
 IR Inten    --     12.1595                18.6397                16.6542

                    115                    116                    117
                      A                      A                      A
 Frequencies --   3179.0626              3197.6135              3262.6082
 Red. masses --      1.0664                 1.0943                 1.1145
 Frc consts  --      6.3502                 6.5924                 6.9896
 IR Inten    --     12.0409                 9.9695                15.2938

 - Thermochemistry -
 -------------------
 Temperature   298.150 Kelvin.  Pressure   1.00000 Atm.
 Atom     1 has atomic number  6 and mass  12.00000

 Molecular mass:   223.19361 amu.
 Principal axes and moments of inertia in atomic units:
                           1         2         3
     Eigenvalues --  2284.999204707.593225343.00324
           X            0.99998   0.00660   0.00230
           Y           -0.00661   0.99994   0.00825
           Z           -0.00224  -0.00826   0.99996
 This molecule is an asymmetric top.
 Rotational symmetry number  1.
 Warning -- assumption of classical behavior for rotation
           may cause significant error
 Rotational temperatures (Kelvin)      0.03791     0.01840     0.01621
 Rotational constants (GHZ):           0.78982     0.38337     0.33778
 Zero-point vibrational energy     973666.0 (Joules/Mol)
                                  232.71176 (Kcal/Mol)
 Warning -- explicit consideration of  30 degrees of freedom as
           vibrations may cause significant error
 Vibrational temperatures:     43.16    64.39    91.99   136.65   153.61
          (Kelvin)            167.33   244.34   274.77   319.51   333.43
                              363.89   384.88   388.85   407.39   411.15
                              426.59   436.97   445.96   474.52   490.05
                              539.98   570.31   603.87   619.86   649.14
                              688.06   723.86   779.35   826.96   860.94
                              949.18  1030.25  1066.25  1141.15  1181.93
                             1223.00  1280.59  1290.32  1336.80  1345.26
                             1351.76  1375.95  1380.39  1392.58  1422.11
                             1446.25  1464.09  1481.51  1492.37  1501.03
                             1549.05  1552.04  1563.94  1570.97  1608.77
                             1652.49  1705.48  1716.06  1757.45  1769.26
                             1783.68  1812.75  1834.21  1902.33  1911.83
                             1931.70  1945.15  1994.01  2008.32  2018.48
                             2027.23  2041.54  2047.62  2050.14  2077.18
                             2081.03  2111.86  2166.00  2174.56  2177.43
                             2180.83  2184.87  2195.45  2196.75  2202.36
                             2204.55  2207.93  2209.69  2219.54  2228.39
                             2424.67  2500.22  4349.70  4354.67  4366.66
                             4380.69  4383.92  4385.76  4389.61  4392.67
                             4407.32  4414.38  4420.58  4438.37  4465.61
                             4475.81  4478.63  4487.11  4501.11  4516.12
                             4527.78  4535.33  4544.53  4552.70  4573.96
                             4600.65  4694.17

 Zero-point correction=                           0.370850 (Hartree/Particle)
 Thermal correction to Energy=                    0.388928
 Thermal correction to Enthalpy=                  0.389872
 Thermal correction to Gibbs Free Energy=         0.326063
 Sum of electronic and zero-point Energies=           -678.155055
 Sum of electronic and thermal Energies=              -678.136977
 Sum of electronic and thermal Enthalpies=            -678.136033
 Sum of electronic and thermal Free Energies=         -678.199842

                     E (Thermal)             CV                S
                      KCal/Mol        Cal/Mol-Kelvin    Cal/Mol-Kelvin
 Total                  244.056             70.467            134.298
 Electronic               0.000              0.000              0.000
 Translational            0.889              2.981             42.111
 Rotational               0.889              2.981             32.419
 Vibrational            242.279             64.505             59.768
 Vibration     1          0.594              1.984              5.829
 Vibration     2          0.595              1.979              5.037
 Vibration     3          0.597              1.972              4.332
 Vibration     4          0.603              1.953              3.555
 Vibration     5          0.606              1.944              3.327
 Vibration     6          0.608              1.936              3.161
 Vibration     7          0.625              1.880              2.437
 Vibration     8          0.634              1.852              2.218
 Vibration     9          0.648              1.807              1.942
 Vibration    10          0.653              1.792              1.865
 Vibration    11          0.664              1.758              1.710
 Vibration    12          0.673              1.733              1.612
 Vibration    13          0.674              1.728              1.595
 Vibration    14          0.682              1.705              1.515
 Vibration    15          0.684              1.700              1.499
 Vibration    16          0.690              1.680              1.437
 Vibration    17          0.695              1.667              1.396
 Vibration    18          0.699              1.655              1.363
 Vibration    19          0.713              1.616              1.261
 Vibration    20          0.720              1.594              1.209
 Vibration    21          0.746              1.523              1.058
 Vibration    22          0.763              1.478              0.976
 Vibration    23          0.782              1.427              0.893
 Vibration    24          0.792              1.403              0.856
 Vibration    25          0.810              1.358              0.792
 Vibration    26          0.835              1.298              0.715
 Vibration    27          0.858              1.243              0.650
 Vibration    28          0.897              1.158              0.562
 Vibration    29          0.931              1.086              0.495
 Vibration    30          0.956              1.035              0.452

 Optimization completed.
    -- Stationary point found.
 Normal termination of Gaussian 16 at Thu Dec 10 23:49:53 2020.

 ----------------------------------------------------------------------
 # B3LYP/6-311++G(d,p) empiricaldispersion=gd3bj scf=xqc pop=npa geom=c
 heck
 ----------------------------------------------------------------------

 --------------------------------------
 CID_86223726_JID_6533_Energie_neutraal
 --------------------------------------
 Structure from the checkpoint file:  "JID_6533.chk"
 Charge =  0 Multiplicity = 1

 SCF Done:  E(RB3LYP) =  -678.711278119     A.U. after   14 cycles
 Normal termination of Gaussian 16 at Thu Dec 10 23:57:33 2020.

 ----------------------------------------------------------------------
 # B3LYP/6-311++G(d,p) empiricaldispersion=gd3bj scf=xqc pop=npa geom=c
 heck
 ----------------------------------------------------------------------

 ------------------------------------
 CID_86223726_JID_6533_Energie_kation
 ------------------------------------
 Structure from the checkpoint file:  "JID_6533.chk"
 Charge =  1 Multiplicity = 2

 SCF Done:  E(UB3LYP) =  -678.405244102     A.U. after   29 cycles
 Normal termination of Gaussian 16 at Fri Dec 11 00:19:20 2020.
 Gaussian 16:  ES64L-G16RevA.03 25-Dec-2016

 ----------------------------------------------------------------------
 # B3LYP/6-311++G(d,p) empiricaldispersion=gd3bj scf=xqc pop=npa geom=c
 heck
 ----------------------------------------------------------------------

 -----------------------------------
 CID_86223726_JID_6533_Energie_anion
 -----------------------------------
 Structure from the checkpoint file:  "JID_6533.chk"
 Charge = -1 Multiplicity = 2

                         Standard orientation:
 ---------------------------------------------------------------------
 Center     Atomic      Atomic             Coordinates (Angstroms)
 Number     Number       Type             X           Y           Z
 ---------------------------------------------------------------------
      1          6           0       -3.159812   -0.799145   -1.574952
      2          6           0       -2.981990    0.309267   -0.534186
      3          6           0       -3.591806   -0.046060    0.798450
      4          6           0       -2.995454    0.067921    1.982796
      5          8           0       -1.617020    0.740820   -0.425344
      6          7           0       -0.783752   -0.356196   -0.153575
      7          6           0        0.455442   -0.070739    0.014528
      8          6           0        1.072085    1.339860   -0.061198
      9          6           0        2.526555    1.374073    0.473459
     10          6           0        3.376298    0.162527    0.109307
     11          6           0        2.717977   -1.081031    0.697588
     12          6           0        1.316995   -1.355628    0.115207
     13          6           0        0.621185   -2.406493    0.999919
     14          6           0        1.459335   -1.931644   -1.313923
     15          6           0        1.056133    1.776828   -1.545211
     16          6           0        0.287320    2.368686    0.785338
     17          1           0       -2.682521   -1.721672   -1.239354
     18          1           0       -2.711367   -0.495682   -2.526185
     19          1           0       -4.226030   -0.991200   -1.738425
     20          1           0       -3.474556    1.217612   -0.908053
     21          1           0       -4.616928   -0.413693    0.739707
     22          1           0       -3.510078   -0.203031    2.900260
     23          1           0       -1.975936    0.425924    2.074442
     24          1           0        2.494869    1.442787    1.569989
     25          1           0        2.988947    2.304497    0.120527
     26          1           0        4.389301    0.283566    0.511772
     27          1           0        3.483953    0.069797   -0.978733
     28          1           0        2.637191   -0.947767    1.785891
     29          1           0        3.336178   -1.973420    0.538945
     30          1           0       -0.351760   -2.687643    0.593436
     31          1           0        1.248348   -3.303321    1.071952
     32          1           0        0.462296   -2.018099    2.011940
     33          1           0        1.958184   -1.233506   -1.993891
     34          1           0        2.047966   -2.856844   -1.290940
     35          1           0        0.471905   -2.153793   -1.727712
     36          1           0        0.042800    1.725911   -1.949858
     37          1           0        1.414594    2.809857   -1.630374
     38          1           0        1.705631    1.143806   -2.158692
     39          1           0        0.146895    2.001425    1.808572
     40          1           0        0.871824    3.295166    0.842286
     41          1           0       -0.690863    2.595605    0.367544
 ---------------------------------------------------------------------

 SCF Done:  E(UB3LYP) =  -678.695689986     A.U. after   33 cycles
 SCF Done:  E(UB3LYP) =  -678.695689986     a.u. after    1 cycles

 The electronic state is 2-A.
 Alpha  occ. eigenvalues --  -19.06236 -14.25234 -10.13514 -10.11319 -10.09931
 Alpha  occ. eigenvalues --  -10.09717 -10.08009 -10.06964 -10.06955 -10.06855
 Alpha  occ. eigenvalues --  -10.06842 -10.06557 -10.06475 -10.06350 -10.06053
 Alpha  occ. eigenvalues --  -10.05895  -0.98763  -0.79838  -0.73433  -0.71146
 Alpha  occ. eigenvalues --   -0.68944  -0.65408  -0.63645  -0.59477  -0.58885
 Alpha  occ. eigenvalues --   -0.57851  -0.55685  -0.52751  -0.49614  -0.47881
 Alpha  occ. eigenvalues --   -0.45529  -0.41774  -0.39817  -0.39175  -0.38217
 Alpha  occ. eigenvalues --   -0.36605  -0.35463  -0.34094  -0.33994  -0.33775
 Alpha  occ. eigenvalues --   -0.32947  -0.32780  -0.30460  -0.30073  -0.29599
 Alpha  occ. eigenvalues --   -0.29386  -0.29013  -0.28401  -0.27989  -0.27292
 Alpha  occ. eigenvalues --   -0.26939  -0.25994  -0.25160  -0.24822  -0.24539
 Alpha  occ. eigenvalues --   -0.23479  -0.22721  -0.21936  -0.20861  -0.17551
 Alpha  occ. eigenvalues --   -0.15712  -0.14796   0.04266
 Alpha virt. eigenvalues --    0.05762   0.06903   0.06971   0.07766   0.08045
 Alpha virt. eigenvalues --    0.08544   0.08704   0.08883   0.09141   0.09763
 Alpha virt. eigenvalues --    0.10308   0.10585   0.10760   0.11308   0.11930

  Beta  occ. eigenvalues --  -19.06233 -14.25230 -10.13504 -10.11316 -10.09930
  Beta  occ. eigenvalues --  -10.09716 -10.07990 -10.06948 -10.06939 -10.06837
  Beta  occ. eigenvalues --  -10.06822 -10.06530 -10.06456 -10.06330 -10.06044
  Beta  occ. eigenvalues --  -10.05882  -0.98756  -0.79829  -0.73411  -0.71131
  Beta  occ. eigenvalues --   -0.68908  -0.65381  -0.63609  -0.59447  -0.58852
  Beta  occ. eigenvalues --   -0.57817  -0.55652  -0.52704  -0.49566  -0.47846
  Beta  occ. eigenvalues --   -0.45490  -0.41737  -0.39785  -0.39150  -0.38189
  Beta  occ. eigenvalues --   -0.36578  -0.35440  -0.34067  -0.33962  -0.33750
  Beta  occ. eigenvalues --   -0.32923  -0.32741  -0.30441  -0.30052  -0.29570
  Beta  occ. eigenvalues --   -0.29359  -0.28980  -0.28378  -0.27960  -0.27268
  Beta  occ. eigenvalues --   -0.26921  -0.25967  -0.25130  -0.24804  -0.24515
  Beta  occ. eigenvalues --   -0.23460  -0.22695  -0.21914  -0.20838  -0.17500
  Beta  occ. eigenvalues --   -0.15678  -0.14787
  Beta virt. eigenvalues --    0.06215   0.06819   0.07311   0.07375   0.08348
  Beta virt. eigenvalues --    0.08404   0.08865   0.09052   0.09112   0.09444
  Beta virt. eigenvalues --    0.09897   0.10749   0.10979   0.11164   0.11577

 Mulliken charges and spin densities:
               1          2
     1  C    1.111094  -1.660347
     2  C   -0.545360   0.653053
     3  C   -0.519285   0.348700
     4  C    0.751276  -1.076498
     5  O    0.233364  -0.023528
     6  N   -0.042180   0.077709
     7  C   -0.264309  -1.018874
     8  C   -0.273995   1.006107
     9  C   -0.834529   0.385695
    10  C    0.310900  -0.700439
    11  C   -0.336530  -0.128105
    12  C    0.245283   0.823438
    13  C    0.096871  -0.611164
    14  C    0.103956  -0.671060
    15  C    0.483710  -1.139967
    16  C    0.229240  -0.845527
    17  H    0.113627   0.039810
    18  H   -0.205937   0.357599
    19  H   -0.279186   0.427274
    20  H   -0.268640   0.451725
    21  H   -0.454726   0.613430
    22  H   -0.147350   0.291554
    23  H    0.220258  -0.109588
    24  H   -0.020567   0.175020
    25  H   -0.067251   0.230238
    26  H   -0.729852   0.936678
    27  H    0.013944   0.116625
    28  H   -0.067563   0.214815
    29  H    0.035971   0.122925
    30  H    0.098001   0.031805
    31  H    0.008661   0.151020
    32  H    0.058215   0.084881
    33  H    0.011285   0.104375
    34  H   -0.218203   0.385878
    35  H    0.209179  -0.046353
    36  H    0.187002  -0.004637
    37  H   -0.218561   0.381540
    38  H    0.083797   0.032687
    39  H    0.012011   0.143062
    40  H   -0.008507   0.165467
    41  H   -0.115111   0.282979
 Sum of Mulliken charges =  -1.00000   1.00000

 Dipole moment (field-independent basis, Debye):
    X=              0.4762    Y=             -0.5800    Z=              0.5665  Tot=              0.9403
 Quadrupole moment (field-independent basis, Debye-Ang):
   XX=           -194.7309   YY=           -146.3848   ZZ=           -141.4791
   XY=             -1.3243   XZ=             -5.1655   YZ=             -0.1612

 Summary of Natural Population Analysis:

                                       Natural Population
                Natural  -----------------------------------------------
    Atom  No    Charge         Core      Valence    Rydberg      Total
 -----------------------------------------------------------------------
      C    1   -0.29463      0.99964     2.28940    0.00559     3.29463
      C    2    0.05175      0.99952     1.93208    0.01665     2.94825
      C    3   -0.09624      0.99954     2.08625    0.01045     3.09624
      C    4   -0.18568      0.99955     2.17873    0.00740     3.18568
      O    5   -0.23121      0.99989     3.21846    0.01286     4.23121
      N    6   -0.09306      0.99958     2.57872    0.01477     3.59306
      C    7    0.14558      0.99951     1.83462    0.02029     2.85442
      C    8   -0.06795      0.99954     2.05584    0.01258     3.06795
      C    9   -0.18223      0.99960     2.17225    0.01039     3.18223
      C   10   -0.19295      0.99962     2.18408    0.00925     3.19295
      C   11   -0.18463      0.99959     2.17470    0.01033     3.18463
      C   12   -0.05638      0.99954     2.04453    0.01231     3.05638
      C   13   -0.27857      0.99963     2.27291    0.00603     3.27857
      C   14   -0.27990      0.99962     2.27342    0.00686     3.27990
      C   15   -0.28085      0.99962     2.27418    0.00705     3.28085
      C   16   -0.27999      0.99963     2.27292    0.00744     3.27999
      H   17    0.10719      0.00000     0.39147    0.00134     0.39281
      H   18    0.10329      0.00000     0.39552    0.00119     0.39671
      H   19    0.10125      0.00000     0.39741    0.00134     0.39875
      H   20    0.09825      0.00000     0.39997    0.00178     0.40175
      H   21    0.09613      0.00000     0.40260    0.00127     0.40387
      H   22    0.09246      0.00000     0.40666    0.00088     0.40754
      H   23    0.09736      0.00000     0.40111    0.00153     0.40264
      H   24    0.09599      0.00000     0.40257    0.00144     0.40401
      H   25    0.10103      0.00000     0.39781    0.00116     0.39897
      H   26    0.10209      0.00000     0.39658    0.00133     0.39791
      H   27    0.09510      0.00000     0.40338    0.00151     0.40490
      H   28    0.09638      0.00000     0.40228    0.00133     0.40362
      H   29    0.10126      0.00000     0.39759    0.00115     0.39874
      H   30    0.10906      0.00000     0.38997    0.00096     0.39094
      H   31    0.09600      0.00000     0.40316    0.00084     0.40400
      H   32    0.09978      0.00000     0.39929    0.00093     0.40022
      H   33    0.09932      0.00000     0.39967    0.00100     0.40068
      H   34    0.09795      0.00000     0.40118    0.00087     0.40205
      H   35    0.10489      0.00000     0.39409    0.00102     0.39511
      H   36    0.10878      0.00000     0.38975    0.00147     0.39122
      H   37    0.09825      0.00000     0.40081    0.00094     0.40175
      H   38    0.09822      0.00000     0.40064    0.00114     0.40178
      H   39    0.09795      0.00000     0.40090    0.00115     0.40205
      H   40    0.09637      0.00000     0.40272    0.00092     0.40363
      H   41    0.11258      0.00000     0.38611    0.00131     0.38742
 =======================================================================
   * Total *   -0.00000     15.99361    45.80634    0.20005    62.00000

 Normal termination of Gaussian 16 at Fri Dec 11 00:43:36 2020.
