 Gaussian 16, Revision A.03,

 -----------------------------------------------------------
 # opt freq B3LYP/6-31G(d) empiricaldispersion=gd3bj scf=xqc
 -----------------------------------------------------------

 ------------------------------
 CID_80560413_JID_3638_neutraal
 ------------------------------
 Symbolic Z-matrix:
 Charge =  0 Multiplicity = 1

 SCF Done:  E(RB3LYP) =  -592.743904216     A.U. after   15 cycles
 SCF Done:  E(RB3LYP) =  -592.749338415     A.U. after   12 cycles
 SCF Done:  E(RB3LYP) =  -592.749394955     A.U. after   12 cycles
 SCF Done:  E(RB3LYP) =  -592.750089214     A.U. after   12 cycles
 SCF Done:  E(RB3LYP) =  -592.750305450     A.U. after   11 cycles
 SCF Done:  E(RB3LYP) =  -592.750451455     A.U. after   11 cycles
 SCF Done:  E(RB3LYP) =  -592.750552045     A.U. after   11 cycles
 SCF Done:  E(RB3LYP) =  -592.750660411     A.U. after   11 cycles
 SCF Done:  E(RB3LYP) =  -592.750832883     A.U. after   11 cycles
 SCF Done:  E(RB3LYP) =  -592.750868959     A.U. after   11 cycles
 SCF Done:  E(RB3LYP) =  -592.750903467     A.U. after   10 cycles
 SCF Done:  E(RB3LYP) =  -592.750915071     A.U. after   10 cycles
 SCF Done:  E(RB3LYP) =  -592.750914871     A.U. after    9 cycles
 SCF Done:  E(RB3LYP) =  -592.750916501     A.U. after    9 cycles
 SCF Done:  E(RB3LYP) =  -592.750916633     A.U. after    7 cycles
 Optimization completed.
    -- Stationary point found.
 Normal termination of Gaussian 16 at Sun Dec 13 12:22:08 2020.

 --------------------------------------------------------------------
 #N Geom=AllCheck Guess=TCheck SCRF=Check GenChk RB3LYP/6-31G(d) Freq
 --------------------------------------------------------------------

 Structure from the checkpoint file:  "JID_3638.chk"
 ------------------------------
 CID_80560413_JID_3638_neutraal
 ------------------------------
 Charge =  0 Multiplicity = 1

 SCF Done:  E(RB3LYP) =  -592.750916633     A.U. after    1 cycles

  Exact polarizability: 140.886   8.586 110.246   7.587  -0.333  88.896
 Approx polarizability: 191.837  23.311 170.713  17.959   1.728 132.150

                      1                      2                      3
                      A                      A                      A
 Frequencies --     48.5526                64.6748                71.3189
 Red. masses --      3.7331                 4.6216                 3.1536
 Frc consts  --      0.0052                 0.0114                 0.0095
 IR Inten    --      3.7110                 3.9928                 0.1996

                      4                      5                      6
                      A                      A                      A
 Frequencies --    116.6989               150.8969               186.2537
 Red. masses --      2.6029                 3.5567                 5.8131
 Frc consts  --      0.0209                 0.0477                 0.1188
 IR Inten    --      0.8920                10.1192                38.2229

                      7                      8                      9
                      A                      A                      A
 Frequencies --    194.5135               207.5865               240.3514
 Red. masses --      1.5055                 1.9033                 1.4921
 Frc consts  --      0.0336                 0.0483                 0.0508
 IR Inten    --     65.4977                23.9944                51.6140

                     10                     11                     12
                      A                      A                      A
 Frequencies --    249.9569               270.6368               285.5390
 Red. masses --      1.1086                 2.0537                 2.3736
 Frc consts  --      0.0408                 0.0886                 0.1140
 IR Inten    --      9.9489                 1.2754                13.2288

                     13                     14                     15
                      A                      A                      A
 Frequencies --    315.5421               347.7334               385.3262
 Red. masses --      2.0024                 2.1900                 2.9999
 Frc consts  --      0.1175                 0.1560                 0.2624
 IR Inten    --      0.3263                 1.6510                 0.7687

                     16                     17                     18
                      A                      A                      A
 Frequencies --    428.3919               433.9307               487.8763
 Red. masses --      2.1593                 2.5196                 1.5149
 Frc consts  --      0.2335                 0.2795                 0.2125
 IR Inten    --      5.6791                 4.3855                68.5844

                     19                     20                     21
                      A                      A                      A
 Frequencies --    508.7191               543.5552               595.0212
 Red. masses --      1.8774                 1.2861                 3.4550
 Frc consts  --      0.2863                 0.2239                 0.7207
 IR Inten    --     45.7458                26.8029                11.7928

                     22                     23                     24
                      A                      A                      A
 Frequencies --    630.2224               654.3792               718.3413
 Red. masses --      3.4747                 4.1925                 3.4554
 Frc consts  --      0.8131                 1.0578                 1.0505
 IR Inten    --      0.9702                 2.1937                 7.4232

                     25                     26                     27
                      A                      A                      A
 Frequencies --    747.1667               761.9996               783.2830
 Red. masses --      1.4267                 4.6729                 2.7368
 Frc consts  --      0.4693                 1.5986                 0.9893
 IR Inten    --      7.9102                27.7764                 6.5986

                     28                     29                     30
                      A                      A                      A
 Frequencies --    789.6164               851.6916               884.6327
 Red. masses --      3.6704                 1.6535                 2.1746
 Frc consts  --      1.3483                 0.7067                 1.0027
 IR Inten    --      8.2688                 1.5805                 5.8547

                     31                     32                     33
                      A                      A                      A
 Frequencies --    916.7637               957.6150               964.8973
 Red. masses --      1.6657                 2.2999                 2.6625
 Frc consts  --      0.8248                 1.2426                 1.4605
 IR Inten    --      2.4352                15.2743                14.3223

                     34                     35                     36
                      A                      A                      A
 Frequencies --    988.7805              1002.7701              1044.1832
 Red. masses --      1.6648                 1.7264                 1.6839
 Frc consts  --      0.9590                 1.0228                 1.0817
 IR Inten    --      3.2521                 1.8994                 1.2410

                     37                     38                     39
                      A                      A                      A
 Frequencies --   1088.4542              1104.5794              1130.1750
 Red. masses --      1.8257                 1.6366                 2.1367
 Frc consts  --      1.2744                 1.1765                 1.6080
 IR Inten    --      0.9038                 3.5588                 1.4779

                     40                     41                     42
                      A                      A                      A
 Frequencies --   1138.3530              1173.8813              1186.7600
 Red. masses --      1.8449                 2.8084                 2.0903
 Frc consts  --      1.4085                 2.2801                 1.7346
 IR Inten    --      6.0985                30.8942                14.6497

                     43                     44                     45
                      A                      A                      A
 Frequencies --   1192.6877              1233.9687              1277.0285
 Red. masses --      3.3571                 1.6564                 1.4186
 Frc consts  --      2.8137                 1.4860                 1.3631
 IR Inten    --     31.6710                37.0961                 3.6964

                     46                     47                     48
                      A                      A                      A
 Frequencies --   1290.0817              1321.4627              1356.4632
 Red. masses --      2.7720                 1.2204                 1.1330
 Frc consts  --      2.7181                 1.2557                 1.2283
 IR Inten    --    103.7736                 2.0766                 2.6930

                     49                     50                     51
                      A                      A                      A
 Frequencies --   1381.4742              1386.7734              1395.7628
 Red. masses --      1.6343                 1.4487                 1.5780
 Frc consts  --      1.8377                 1.6415                 1.8112
 IR Inten    --     18.5353                39.6032                 9.8169

                     52                     53                     54
                      A                      A                      A
 Frequencies --   1417.7414              1424.9425              1433.3468
 Red. masses --      1.4150                 1.4267                 1.4180
 Frc consts  --      1.6757                 1.7067                 1.7164
 IR Inten    --      4.8817                11.1650                 8.5125

                     55                     56                     57
                      A                      A                      A
 Frequencies --   1446.0969              1464.4104              1508.7712
 Red. masses --      1.2713                 2.0092                 1.0762
 Frc consts  --      1.5664                 2.5386                 1.4434
 IR Inten    --      4.5359                30.2744                 3.5796

                     58                     59                     60
                      A                      A                      A
 Frequencies --   1512.0153              1522.8790              1526.1436
 Red. masses --      1.0795                 1.0725                 1.0725
 Frc consts  --      1.4540                 1.4655                 1.4717
 IR Inten    --      2.8251                 4.4444                 4.2677

                     61                     62                     63
                      A                      A                      A
 Frequencies --   1528.3664              1534.4455              1535.8699
 Red. masses --      1.0798                 1.0713                 1.0670
 Frc consts  --      1.4861                 1.4861                 1.4829
 IR Inten    --      2.7748                17.4076                 3.9732

                     64                     65                     66
                      A                      A                      A
 Frequencies --   1544.7281              1635.5597              1700.5945
 Red. masses --      1.0766                 1.6798                 3.1250
 Frc consts  --      1.5136                 2.6475                 5.3249
 IR Inten    --      3.6336                82.1249               580.2922

                     67                     68                     69
                      A                      A                      A
 Frequencies --   1865.5450              3023.4002              3041.1500
 Red. masses --     11.1401                 1.0623                 1.0636
 Frc consts  --     22.8430                 5.7210                 5.7954
 IR Inten    --    446.1745                40.0199                14.2638

                     70                     71                     72
                      A                      A                      A
 Frequencies --   3043.7134              3047.8179              3052.4183
 Red. masses --      1.0708                 1.0407                 1.0682
 Frc consts  --      5.8449                 5.6959                 5.8640
 IR Inten    --     13.6408                14.9646                 8.1501

                     73                     74                     75
                      A                      A                      A
 Frequencies --   3059.5136              3068.4195              3079.3322
 Red. masses --      1.0795                 1.0406                 1.0973
 Frc consts  --      5.9538                 5.7723                 6.1303
 IR Inten    --     52.8448                25.9534                20.4301

                     76                     77                     78
                      A                      A                      A
 Frequencies --   3085.3440              3090.3901              3113.9399
 Red. masses --      1.0993                 1.1018                 1.1018
 Frc consts  --      6.1658                 6.2001                 6.2947
 IR Inten    --     55.9715                43.4525                52.1659

                     79                     80                     81
                      A                      A                      A
 Frequencies --   3119.8334              3137.9748              3155.9061
 Red. masses --      1.1019                 1.1001                 1.1024
 Frc consts  --      6.3192                 6.3822                 6.4689
 IR Inten    --     40.9568                21.1541                21.0805

                     82                     83                     84
                      A                      A                      A
 Frequencies --   3603.3308              3616.7726              3729.6696
 Red. masses --      1.0465                 1.0776                 1.1032
 Frc consts  --      8.0054                 8.3050                 9.0415
 IR Inten    --     53.7832                18.8161                63.7673

 - Thermochemistry -
 -------------------
 Temperature   298.150 Kelvin.  Pressure   1.00000 Atm.
 Atom     1 has atomic number  6 and mass  12.00000

 Molecular mass:   183.13716 amu.
 Principal axes and moments of inertia in atomic units:
                           1         2         3
     Eigenvalues --  1142.961974180.935934541.27511
           X            0.99990  -0.01274  -0.00599
           Y            0.01273   0.99992  -0.00205
           Z            0.00602   0.00197   0.99998
 This molecule is an asymmetric top.
 Rotational symmetry number  1.
 Warning -- assumption of classical behavior for rotation
           may cause significant error
 Rotational temperatures (Kelvin)      0.07578     0.02072     0.01907
 Rotational constants (GHZ):           1.57900     0.43166     0.39741
 Zero-point vibrational energy     694777.4 (Joules/Mol)
                                  166.05578 (Kcal/Mol)
 Warning -- explicit consideration of  21 degrees of freedom as
           vibrations may cause significant error
 Vibrational temperatures:     69.86    93.05   102.61   167.90   217.11
          (Kelvin)            267.98   279.86   298.67   345.81   359.63
                              389.39   410.83   453.99   500.31   554.40
                              616.36   624.33   701.95   731.93   782.05
                              856.10   906.75   941.51  1033.53  1075.01
                             1096.35  1126.97  1136.08  1225.39  1272.79
                             1319.02  1377.79  1388.27  1422.63  1442.76
                             1502.35  1566.04  1589.24  1626.07  1637.84
                             1688.95  1707.48  1716.01  1775.41  1837.36
                             1856.14  1901.29  1951.65  1987.63  1995.26
                             2008.19  2039.81  2050.17  2062.27  2080.61
                             2106.96  2170.79  2175.45  2191.08  2195.78
                             2198.98  2207.72  2209.77  2222.52  2353.21
                             2446.78  2684.10  4350.00  4375.54  4379.22
                             4385.13  4391.75  4401.96  4414.77  4430.47
                             4439.12  4446.38  4480.26  4488.74  4514.85
                             4540.65  5184.39  5203.73  5366.16

 Zero-point correction=                           0.264627 (Hartree/Particle)
 Thermal correction to Energy=                    0.278677
 Thermal correction to Enthalpy=                  0.279621
 Thermal correction to Gibbs Free Energy=         0.224285
 Sum of electronic and zero-point Energies=           -592.486290
 Sum of electronic and thermal Energies=              -592.472240
 Sum of electronic and thermal Enthalpies=            -592.471296
 Sum of electronic and thermal Free Energies=         -592.526632

                     E (Thermal)             CV                S
                      KCal/Mol        Cal/Mol-Kelvin    Cal/Mol-Kelvin
 Total                  174.872             53.367            116.465
 Electronic               0.000              0.000              0.000
 Translational            0.889              2.981             41.522
 Rotational               0.889              2.981             31.451
 Vibrational            173.095             47.406             43.492
 Vibration     1          0.595              1.978              4.875
 Vibration     2          0.597              1.971              4.309
 Vibration     3          0.598              1.968              4.117
 Vibration     4          0.608              1.936              3.154
 Vibration     5          0.618              1.902              2.661
 Vibration     6          0.632              1.859              2.265
 Vibration     7          0.635              1.848              2.184
 Vibration     8          0.641              1.829              2.065
 Vibration     9          0.657              1.779              1.800
 Vibration    10          0.663              1.763              1.731
 Vibration    11          0.674              1.727              1.592
 Vibration    12          0.683              1.701              1.500
 Vibration    13          0.703              1.644              1.333
 Vibration    14          0.725              1.580              1.176
 Vibration    15          0.754              1.502              1.018
 Vibration    16          0.790              1.408              0.864
 Vibration    17          0.795              1.396              0.846
 Vibration    18          0.844              1.277              0.689
 Vibration    19          0.864              1.231              0.637
 Vibration    20          0.899              1.154              0.558
 Vibration    21          0.953              1.042              0.458

 Optimization completed.
    -- Stationary point found.
 Normal termination of Gaussian 16 at Sun Dec 13 12:29:51 2020.

 ----------------------------------------------------------------------
 # B3LYP/6-311++G(d,p) empiricaldispersion=gd3bj scf=xqc pop=npa geom=c
 heck
 ----------------------------------------------------------------------

 --------------------------------------
 CID_80560413_JID_3638_Energie_neutraal
 --------------------------------------
 Structure from the checkpoint file:  "JID_3638.chk"
 Charge =  0 Multiplicity = 1

 SCF Done:  E(RB3LYP) =  -592.929753031     A.U. after   15 cycles
 Normal termination of Gaussian 16 at Sun Dec 13 12:32:59 2020.

 ----------------------------------------------------------------------
 # B3LYP/6-311++G(d,p) empiricaldispersion=gd3bj scf=xqc pop=npa geom=c
 heck
 ----------------------------------------------------------------------

 ------------------------------------
 CID_80560413_JID_3638_Energie_kation
 ------------------------------------
 Structure from the checkpoint file:  "JID_3638.chk"
 Charge =  1 Multiplicity = 2

 SCF Done:  E(UB3LYP) =  -592.599586446     A.U. after   30 cycles
 Normal termination of Gaussian 16 at Sun Dec 13 12:41:01 2020.
 Gaussian 16:  ES64L-G16RevA.03 25-Dec-2016

 ----------------------------------------------------------------------
 # B3LYP/6-311++G(d,p) empiricaldispersion=gd3bj scf=xqc pop=npa geom=c
 heck
 ----------------------------------------------------------------------

 -----------------------------------
 CID_80560413_JID_3638_Energie_anion
 -----------------------------------
 Structure from the checkpoint file:  "JID_3638.chk"
 Charge = -1 Multiplicity = 2

                         Standard orientation:
 ---------------------------------------------------------------------
 Center     Atomic      Atomic             Coordinates (Angstroms)
 Number     Number       Type             X           Y           Z
 ---------------------------------------------------------------------
      1          6           0        4.117338   -1.114087   -0.378404
      2          6           0        3.352121   -0.170450    0.554192
      3          6           0        2.525818    0.893840   -0.183371
      4          6           0        1.464281    0.347053   -1.152740
      5          6           0        0.433505   -0.661754   -0.614668
      6          6           0       -0.624050   -0.212618    0.436105
      7          6           0       -1.424222    1.011450   -0.025188
      8          7           0       -2.643620    0.767998   -0.386161
      9          6           0       -2.854727   -0.624301   -0.195430
     10          8           0       -3.839518   -1.252791   -0.517770
     11          7           0       -1.733306   -1.161519    0.454982
     12          7           0       -0.896579    2.255021    0.009108
     13          6           0       -0.059381   -0.028491    1.852643
     14          1           0        3.440420   -1.724641   -0.986190
     15          1           0        4.753283   -1.798892    0.192668
     16          1           0        4.762763   -0.552492   -1.064851
     17          1           0        2.700955   -0.756887    1.213897
     18          1           0        4.064406    0.341709    1.213515
     19          1           0        2.067791    1.558244    0.562641
     20          1           0        3.208674    1.530535   -0.762597
     21          1           0        0.935796    1.186909   -1.619552
     22          1           0        1.984426   -0.155418   -1.977147
     23          1           0       -0.134788   -1.026741   -1.477840
     24          1           0        0.953099   -1.533637   -0.195495
     25          1           0       -1.561852   -2.151776    0.340872
     26          1           0        0.091977    2.400926    0.133097
     27          1           0       -1.448021    3.011220   -0.371684
     28          1           0        0.411848   -0.958212    2.188237
     29          1           0        0.688525    0.766291    1.905772
     30          1           0       -0.872721    0.210837    2.542486
 ---------------------------------------------------------------------

 SCF Done:  E(UB3LYP) =  -592.925695371     A.U. after   31 cycles

 The electronic state is 2-A.
 Alpha  occ. eigenvalues --  -18.98987 -14.24991 -14.23395 -14.19862 -10.18921
 Alpha  occ. eigenvalues --  -10.16852 -10.14544 -10.09127 -10.08006 -10.07848
 Alpha  occ. eigenvalues --  -10.07115 -10.07080 -10.06504  -0.95353  -0.89177
 Alpha  occ. eigenvalues --   -0.83589  -0.77567  -0.72031  -0.68506  -0.64893
 Alpha  occ. eigenvalues --   -0.60164  -0.56338  -0.53579  -0.52599  -0.48935
 Alpha  occ. eigenvalues --   -0.46153  -0.44514  -0.41532  -0.39627  -0.38787
 Alpha  occ. eigenvalues --   -0.36259  -0.36148  -0.35333  -0.32992  -0.32010
 Alpha  occ. eigenvalues --   -0.31513  -0.30961  -0.30010  -0.29599  -0.27675
 Alpha  occ. eigenvalues --   -0.27602  -0.26774  -0.26090  -0.23444  -0.23035
 Alpha  occ. eigenvalues --   -0.22598  -0.18979  -0.17169  -0.16506  -0.15973
 Alpha  occ. eigenvalues --    0.03747
 Alpha virt. eigenvalues --    0.06006   0.07116   0.07333   0.07531   0.08596
 Alpha virt. eigenvalues --    0.09561   0.10039   0.10113   0.10365   0.11274
 Alpha virt. eigenvalues --    0.12283   0.12946   0.13353   0.13580   0.13727

  Beta  occ. eigenvalues --  -18.98984 -14.24913 -14.23390 -14.19856 -10.18916
  Beta  occ. eigenvalues --  -10.16845 -10.14543 -10.09115 -10.07976 -10.07828
  Beta  occ. eigenvalues --  -10.07076 -10.07054 -10.06470  -0.95344  -0.89151
  Beta  occ. eigenvalues --   -0.83527  -0.77535  -0.71985  -0.68465  -0.64849
  Beta  occ. eigenvalues --   -0.60098  -0.56264  -0.53503  -0.52552  -0.48873
  Beta  occ. eigenvalues --   -0.46070  -0.44460  -0.41477  -0.39585  -0.38748
  Beta  occ. eigenvalues --   -0.36205  -0.36111  -0.35302  -0.32973  -0.31964
  Beta  occ. eigenvalues --   -0.31487  -0.30923  -0.29968  -0.29565  -0.27631
  Beta  occ. eigenvalues --   -0.27554  -0.26735  -0.26055  -0.23404  -0.22973
  Beta  occ. eigenvalues --   -0.22544  -0.18953  -0.17158  -0.16478  -0.15949
  Beta virt. eigenvalues --    0.06118   0.07212   0.07536   0.07704   0.07951
  Beta virt. eigenvalues --    0.09334   0.09844   0.10237   0.10686   0.10902
  Beta virt. eigenvalues --    0.11873   0.12498   0.13203   0.13665   0.13954

 Mulliken charges and spin densities:
               1          2
     1  C    0.920904  -1.556098
     2  C   -0.644531   0.477045
     3  C    1.190832  -1.359985
     4  C   -0.682167   0.425382
     5  C    0.494340  -0.722700
     6  C    0.231859  -0.493967
     7  C   -0.351479   0.211455
     8  N   -0.198845  -0.027723
     9  C    0.387488  -0.183751
    10  O   -0.404317   0.007687
    11  N   -0.165190   0.113824
    12  N   -0.413345   0.101046
    13  C    0.559593  -1.038051
    14  H   -0.210614   0.342597
    15  H   -0.266862   0.406399
    16  H   -0.046932   0.190135
    17  H    0.042976   0.068401
    18  H   -0.419398   0.584048
    19  H   -0.268171   0.359155
    20  H   -0.585626   0.772667
    21  H   -0.157363   0.351093
    22  H   -0.001783   0.169335
    23  H    0.180754   0.028726
    24  H    0.056762   0.136343
    25  H    0.230399   0.042922
    26  H   -0.152940   0.457360
    27  H   -0.255264   0.572889
    28  H   -0.098287   0.269596
    29  H   -0.066837   0.200934
    30  H    0.094046   0.093234
 Sum of Mulliken charges =  -1.00000   1.00000

 Dipole moment (field-independent basis, Debye):
    X=             -0.8902    Y=             -3.6175    Z=              0.6534  Tot=              3.7823
 Quadrupole moment (field-independent basis, Debye-Ang):
   XX=           -173.7409   YY=           -126.3084   ZZ=           -109.5548
   XY=             -5.8550   XZ=             -6.5010   YZ=              0.8848

 Summary of Natural Population Analysis:

                                       Natural Population
                Natural  -----------------------------------------------
    Atom  No    Charge         Core      Valence    Rydberg      Total
 -----------------------------------------------------------------------
      C    1   -0.28507      0.99967     2.28094    0.00447     3.28507
      C    2   -0.19259      0.99964     2.18485    0.00810     3.19259
      C    3   -0.19010      0.99962     2.18060    0.00988     3.19010
      C    4   -0.19748      0.99962     2.18818    0.00968     3.19748
      C    5   -0.19012      0.99958     2.18171    0.00883     3.19012
      C    6    0.03707      0.99953     1.95132    0.01208     2.96293
      C    7    0.24558      0.99953     1.73487    0.02002     2.75442
      N    8   -0.30017      0.99964     2.79058    0.00996     3.80017
      C    9    0.39709      0.99971     1.57691    0.02629     2.60291
      O   10   -0.31648      0.99987     3.31087    0.00575     4.31648
      N   11   -0.34171      0.99966     2.83175    0.01030     3.84171
      N   12   -0.37795      0.99967     2.86837    0.00990     3.87795
      C   13   -0.28558      0.99962     2.27769    0.00827     3.28558
      H   14    0.09381      0.00000     0.40506    0.00113     0.40619
      H   15    0.09965      0.00000     0.39914    0.00121     0.40035
      H   16    0.09693      0.00000     0.40184    0.00123     0.40307
      H   17    0.09223      0.00000     0.40626    0.00151     0.40777
      H   18    0.09884      0.00000     0.39971    0.00145     0.40116
      H   19    0.09297      0.00000     0.40410    0.00293     0.40703
      H   20    0.10126      0.00000     0.39684    0.00190     0.39874
      H   21    0.10150      0.00000     0.39681    0.00169     0.39850
      H   22    0.10139      0.00000     0.39749    0.00111     0.39861
      H   23    0.10415      0.00000     0.39455    0.00130     0.39585
      H   24    0.10010      0.00000     0.39869    0.00121     0.39990
      H   25    0.19409      0.00000     0.30376    0.00215     0.30591
      H   26    0.20496      0.00000     0.28827    0.00678     0.29504
      H   27    0.20149      0.00000     0.29527    0.00324     0.29851
      H   28    0.10220      0.00000     0.39660    0.00120     0.39780
      H   29    0.10541      0.00000     0.39314    0.00145     0.39459
      H   30    0.10654      0.00000     0.39242    0.00104     0.39346
 =======================================================================
   * Total *   -0.00000     12.99536    36.82860    0.17605    50.00000

 Normal termination of Gaussian 16 at Sun Dec 13 12:49:27 2020.
