 Gaussian 16, Revision A.03,

 -----------------------------------------------------------
 # opt freq B3LYP/6-31G(d) empiricaldispersion=gd3bj scf=xqc
 -----------------------------------------------------------

 -------------------------------
 CID_153936941_JID_2927_neutraal
 -------------------------------
 Symbolic Z-matrix:
 Charge =  0 Multiplicity = 1

 SCF Done:  E(RB3LYP) =  -550.919484866     A.U. after   16 cycles
 SCF Done:  E(RB3LYP) =  -550.927701703     A.U. after   13 cycles
 SCF Done:  E(RB3LYP) =  -550.930774868     A.U. after   13 cycles
 SCF Done:  E(RB3LYP) =  -550.932389361     A.U. after   13 cycles
 SCF Done:  E(RB3LYP) =  -550.933212922     A.U. after   12 cycles
 SCF Done:  E(RB3LYP) =  -550.933701611     A.U. after   13 cycles
 SCF Done:  E(RB3LYP) =  -550.933880354     A.U. after   12 cycles
 SCF Done:  E(RB3LYP) =  -550.934012935     A.U. after   13 cycles
 SCF Done:  E(RB3LYP) =  -550.934079507     A.U. after   12 cycles
 SCF Done:  E(RB3LYP) =  -550.934113581     A.U. after   11 cycles
 SCF Done:  E(RB3LYP) =  -550.935021498     A.U. after    9 cycles
 SCF Done:  E(RB3LYP) =  -550.935027186     A.U. after   10 cycles
 SCF Done:  E(RB3LYP) =  -550.935029658     A.U. after    9 cycles
 SCF Done:  E(RB3LYP) =  -550.935029810     A.U. after    8 cycles
 SCF Done:  E(RB3LYP) =  -550.935029903     A.U. after    8 cycles
 Optimization completed.
    -- Stationary point found.
 Normal termination of Gaussian 16 at Wed Dec  9 18:23:22 2020.

 --------------------------------------------------------------------
 #N Geom=AllCheck Guess=TCheck SCRF=Check GenChk RB3LYP/6-31G(d) Freq
 --------------------------------------------------------------------

 Structure from the checkpoint file:  "JID_2927.chk"
 -------------------------------
 CID_153936941_JID_2927_neutraal
 -------------------------------
 Charge =  0 Multiplicity = 1

 SCF Done:  E(RB3LYP) =  -550.935029903     A.U. after    1 cycles

  Exact polarizability: 140.819   3.301 107.477  -3.455   0.293  62.420
 Approx polarizability: 188.677  21.229 191.269  -8.829  -0.754  94.300

                      1                      2                      3
                      A                      A                      A
 Frequencies --     41.6389                66.0518                87.6208
 Red. masses --      3.1417                 3.1974                 2.5064
 Frc consts  --      0.0032                 0.0082                 0.0113
 IR Inten    --      1.8359                 6.6496                 0.9792

                      4                      5                      6
                      A                      A                      A
 Frequencies --    150.1807               180.7347               224.7263
 Red. masses --      3.4111                 5.0921                 2.6238
 Frc consts  --      0.0453                 0.0980                 0.0781
 IR Inten    --      1.3316                19.6730                18.9471

                      7                      8                      9
                      A                      A                      A
 Frequencies --    246.8059               336.0727               376.1428
 Red. masses --      3.3212                 5.9789                 3.6698
 Frc consts  --      0.1192                 0.3979                 0.3059
 IR Inten    --      6.4557                 1.2285                 3.0656

                     10                     11                     12
                      A                      A                      A
 Frequencies --    432.0732               479.2136               532.1828
 Red. masses --      1.7698                 1.6008                 4.2094
 Frc consts  --      0.1947                 0.2166                 0.7024
 IR Inten    --     25.7060               102.0786                22.7184

                     13                     14                     15
                      A                      A                      A
 Frequencies --    546.5035               561.3078               564.5874
 Red. masses --      2.0521                 2.4334                 3.3633
 Frc consts  --      0.3611                 0.4517                 0.6317
 IR Inten    --     53.0002                48.0219                35.0098

                     16                     17                     18
                      A                      A                      A
 Frequencies --    639.4021               648.4522               700.5754
 Red. masses --      3.7571                 3.4077                 4.4926
 Frc consts  --      0.9050                 0.8442                 1.2991
 IR Inten    --     26.6444                86.7765                36.4538

                     19                     20                     21
                      A                      A                      A
 Frequencies --    762.0497               772.0897               791.5873
 Red. masses --      3.2025                 1.5253                 1.9697
 Frc consts  --      1.0957                 0.5357                 0.7272
 IR Inten    --     47.7250                 2.8897                72.2480

                     22                     23                     24
                      A                      A                      A
 Frequencies --    822.5367               840.8566               874.0593
 Red. masses --      2.4233                 1.3426                 1.7052
 Frc consts  --      0.9660                 0.5593                 0.7676
 IR Inten    --     33.8825                13.4919                20.5898

                     25                     26                     27
                      A                      A                      A
 Frequencies --    910.5983               933.8459               945.8360
 Red. masses --      2.3306                 1.7948                 3.7077
 Frc consts  --      1.1386                 0.9222                 1.9543
 IR Inten    --      2.0686                 1.0643                 3.6188

                     28                     29                     30
                      A                      A                      A
 Frequencies --   1020.9208              1060.6214              1093.8123
 Red. masses --      2.7658                 2.8173                 2.0886
 Frc consts  --      1.6985                 1.8673                 1.4723
 IR Inten    --      3.2765                 4.9613                 2.7783

                     31                     32                     33
                      A                      A                      A
 Frequencies --   1111.6977              1118.0608              1149.8224
 Red. masses --      1.9630                 1.9958                 2.3749
 Frc consts  --      1.4293                 1.4699                 1.8500
 IR Inten    --      8.9706                 4.7304                21.2668

                     34                     35                     36
                      A                      A                      A
 Frequencies --   1196.9096              1212.8973              1228.6832
 Red. masses --      1.7673                 1.8299                 1.6438
 Frc consts  --      1.4917                 1.5861                 1.4621
 IR Inten    --     17.8924                 0.7531                 7.0756

                     37                     38                     39
                      A                      A                      A
 Frequencies --   1252.9676              1273.3925              1290.2862
 Red. masses --      1.8822                 1.1931                 1.5019
 Frc consts  --      1.7410                 1.1399                 1.4732
 IR Inten    --     62.8372                 0.9783                21.1815

                     40                     41                     42
                      A                      A                      A
 Frequencies --   1323.6973              1348.3990              1365.9267
 Red. masses --      1.3939                 1.5393                 1.8812
 Frc consts  --      1.4390                 1.6490                 2.0680
 IR Inten    --     14.6242                30.6786                56.3429

                     43                     44                     45
                      A                      A                      A
 Frequencies --   1391.7458              1437.8213              1495.9608
 Red. masses --      2.0623                 3.1167                 1.2250
 Frc consts  --      2.3535                 3.7963                 1.6152
 IR Inten    --     62.7898                81.6885                26.9817

                     46                     47                     48
                      A                      A                      A
 Frequencies --   1506.6775              1530.4489              1555.4282
 Red. masses --      1.0910                 1.0899                 1.1039
 Frc consts  --      1.4592                 1.5041                 1.5736
 IR Inten    --      0.4274                 1.7774                 4.9461

                     49                     50                     51
                      A                      A                      A
 Frequencies --   1643.9905              1679.0557              1733.1889
 Red. masses --      1.2333                 5.9865                 8.3513
 Frc consts  --      1.9638                 9.9438                14.7808
 IR Inten    --    145.9835                66.4032                23.0326

                     52                     53                     54
                      A                      A                      A
 Frequencies --   1776.8239              3006.9373              3061.5646
 Red. masses --      8.1053                 1.0711                 1.0675
 Frc consts  --     15.0768                 5.7060                 5.8953
 IR Inten    --    298.7707                57.6707                24.0011

                     55                     56                     57
                      A                      A                      A
 Frequencies --   3092.7215              3108.2875              3122.0906
 Red. masses --      1.0635                 1.0921                 1.0989
 Frc consts  --      5.9932                 6.2167                 6.3113
 IR Inten    --     32.1991                43.7221                 4.2895

                     58                     59                     60
                      A                      A                      A
 Frequencies --   3141.4865              3196.1937              3247.9977
 Red. masses --      1.1060                 1.0913                 1.0917
 Frc consts  --      6.4310                 6.5687                 6.7857
 IR Inten    --     38.2007                 8.6718                 5.2358

                     61                     62                     63
                      A                      A                      A
 Frequencies --   3460.6016              3569.0422              3685.4661
 Red. masses --      1.0760                 1.0464                 1.1010
 Frc consts  --      7.5924                 7.8533                 8.8107
 IR Inten    --      3.4082                28.3535                16.9098

 - Thermochemistry -
 -------------------
 Temperature   298.150 Kelvin.  Pressure   1.00000 Atm.
 Atom     1 has atomic number  6 and mass  12.00000

 Molecular mass:   165.09021 amu.
 Principal axes and moments of inertia in atomic units:
                           1         2         3
     Eigenvalues --   820.041603103.429673674.68153
           X            0.99980  -0.02017   0.00035
           Y            0.02017   0.99979   0.00396
           Z           -0.00042  -0.00395   0.99999
 This molecule is an asymmetric top.
 Rotational symmetry number  1.
 Warning -- assumption of classical behavior for rotation
           may cause significant error
 Rotational temperatures (Kelvin)      0.10562     0.02791     0.02357
 Rotational constants (GHZ):           2.20079     0.58153     0.49113
 Zero-point vibrational energy     502188.5 (Joules/Mol)
                                  120.02593 (Kcal/Mol)
 Warning -- explicit consideration of  15 degrees of freedom as
           vibrations may cause significant error
 Vibrational temperatures:     59.91    95.03   126.07   216.08   260.04
          (Kelvin)            323.33   355.10   483.53   541.19   621.66
                              689.48   765.69   786.30   807.60   812.32
                              919.96   932.98  1007.97  1096.42  1110.86
                             1138.92  1183.45  1209.81  1257.58  1310.15
                             1343.60  1360.85  1468.88  1526.00  1573.75
                             1599.48  1608.64  1654.34  1722.09  1745.09
                             1767.80  1802.74  1832.13  1856.43  1904.51
                             1940.05  1965.26  2002.41  2068.70  2152.35
                             2167.77  2201.97  2237.91  2365.34  2415.79
                             2493.67  2556.45  4326.31  4404.91  4449.74
                             4472.13  4491.99  4519.90  4598.61  4673.14
                             4979.03  5135.06  5302.56

 Zero-point correction=                           0.191273 (Hartree/Particle)
 Thermal correction to Energy=                    0.202052
 Thermal correction to Enthalpy=                  0.202996
 Thermal correction to Gibbs Free Energy=         0.154019
 Sum of electronic and zero-point Energies=           -550.743756
 Sum of electronic and thermal Energies=              -550.732978
 Sum of electronic and thermal Enthalpies=            -550.732034
 Sum of electronic and thermal Free Energies=         -550.781011

                     E (Thermal)             CV                S
                      KCal/Mol        Cal/Mol-Kelvin    Cal/Mol-Kelvin
 Total                  126.790             41.300            103.081
 Electronic               0.000              0.000              0.000
 Translational            0.889              2.981             41.212
 Rotational               0.889              2.981             30.615
 Vibrational            125.012             35.338             31.254
 Vibration     1          0.594              1.981              5.180
 Vibration     2          0.597              1.970              4.268
 Vibration     3          0.601              1.958              3.712
 Vibration     4          0.618              1.902              2.670
 Vibration     5          0.630              1.866              2.321
 Vibration     6          0.649              1.803              1.921
 Vibration     7          0.661              1.768              1.753
 Vibration     8          0.717              1.603              1.231
 Vibration     9          0.747              1.521              1.055
 Vibration    10          0.793              1.400              0.852
 Vibration    11          0.836              1.296              0.712
 Vibration    12          0.887              1.179              0.582
 Vibration    13          0.902              1.147              0.551
 Vibration    14          0.917              1.115              0.521
 Vibration    15          0.920              1.108              0.515

 Optimization completed.
    -- Stationary point found.
 Normal termination of Gaussian 16 at Wed Dec  9 18:28:28 2020.

 ----------------------------------------------------------------------
 # B3LYP/6-311++G(d,p) empiricaldispersion=gd3bj scf=xqc pop=npa geom=c
 heck
 ----------------------------------------------------------------------

 ---------------------------------------
 CID_153936941_JID_2927_Energie_neutraal
 ---------------------------------------
 Structure from the checkpoint file:  "JID_2927.chk"
 Charge =  0 Multiplicity = 1

 SCF Done:  E(RB3LYP) =  -551.098843035     A.U. after   16 cycles
 Normal termination of Gaussian 16 at Wed Dec  9 18:30:25 2020.

 ----------------------------------------------------------------------
 # B3LYP/6-311++G(d,p) empiricaldispersion=gd3bj scf=xqc pop=npa geom=c
 heck
 ----------------------------------------------------------------------

 -------------------------------------
 CID_153936941_JID_2927_Energie_kation
 -------------------------------------
 Structure from the checkpoint file:  "JID_2927.chk"
 Charge =  1 Multiplicity = 2

 SCF Done:  E(UB3LYP) =  -550.845036038     A.U. after   22 cycles
 Normal termination of Gaussian 16 at Wed Dec  9 18:33:57 2020.
 Gaussian 16:  ES64L-G16RevA.03 25-Dec-2016

 ----------------------------------------------------------------------
 # B3LYP/6-311++G(d,p) empiricaldispersion=gd3bj scf=xqc pop=npa geom=c
 heck
 ----------------------------------------------------------------------

 ------------------------------------
 CID_153936941_JID_2927_Energie_anion
 ------------------------------------
 Structure from the checkpoint file:  "JID_2927.chk"
 Charge = -1 Multiplicity = 2

                         Standard orientation:
 ---------------------------------------------------------------------
 Center     Atomic      Atomic             Coordinates (Angstroms)
 Number     Number       Type             X           Y           Z
 ---------------------------------------------------------------------
      1          6           0        3.289781   -0.460075    0.556844
      2          6           0        2.336450   -1.465567   -0.171107
      3          6           0        1.076912   -0.668590   -0.346190
      4          6           0       -0.210055   -1.023949   -0.237344
      5          6           0       -1.221317    0.032279   -0.136272
      6          6           0       -0.839262    1.316685   -0.304879
      7          7           0        0.493952    1.697501   -0.521848
      8          7           0        1.496521    0.684823   -0.426763
      9          6           0        2.497908    0.867329    0.635636
     10          6           0       -2.629562   -0.360577    0.109025
     11          8           0       -3.039186   -1.490362   -0.134854
     12          7           0       -3.473785    0.631316    0.582181
     13          1           0        3.560902   -0.812058    1.554990
     14          1           0        4.214409   -0.326496   -0.009864
     15          1           0        2.154390   -2.376264    0.404570
     16          1           0        2.759748   -1.758840   -1.138704
     17          1           0       -0.526415   -2.057418   -0.180102
     18          1           0       -1.539192    2.147646   -0.310071
     19          1           0        0.614451    2.202634   -1.397881
     20          1           0        2.015040    0.994101    1.616864
     21          1           0        3.109325    1.751272    0.434417
     22          1           0       -3.082661    1.344436    1.181712
     23          1           0       -4.388457    0.293202    0.853628
 ---------------------------------------------------------------------

 SCF Done:  E(UB3LYP) =  -551.093376007     A.U. after   33 cycles
 SCF Done:  E(UB3LYP) =  -551.093376007     a.u. after    1 cycles

 The electronic state is 2-A.
 Alpha  occ. eigenvalues --  -18.95097 -14.22408 -14.22210 -14.19863 -10.13347
 Alpha  occ. eigenvalues --  -10.07899 -10.06736 -10.06533 -10.06085 -10.06003
 Alpha  occ. eigenvalues --  -10.03353 -10.02602  -0.90160  -0.87996  -0.77208
 Alpha  occ. eigenvalues --   -0.75127  -0.67736  -0.63653  -0.60767  -0.53435
 Alpha  occ. eigenvalues --   -0.50962  -0.47968  -0.44987  -0.42179  -0.39764
 Alpha  occ. eigenvalues --   -0.37779  -0.37225  -0.35787  -0.33399  -0.31119
 Alpha  occ. eigenvalues --   -0.30097  -0.29163  -0.28084  -0.27855  -0.25565
 Alpha  occ. eigenvalues --   -0.24428  -0.24020  -0.22683  -0.20014  -0.16171
 Alpha  occ. eigenvalues --   -0.15183  -0.14554  -0.12580  -0.04882   0.04777
 Alpha virt. eigenvalues --    0.07280   0.07996   0.08818   0.09282   0.09777
 Alpha virt. eigenvalues --    0.11035   0.11290   0.12423   0.12806   0.13166
 Alpha virt. eigenvalues --    0.14163   0.14851   0.15547   0.16499   0.16874

  Beta  occ. eigenvalues --  -18.94980 -14.22333 -14.22222 -14.19823 -10.13266
  Beta  occ. eigenvalues --  -10.07882 -10.06614 -10.06206 -10.06053 -10.06009
  Beta  occ. eigenvalues --  -10.03339 -10.02575  -0.89959  -0.87872  -0.77102
  Beta  occ. eigenvalues --   -0.74927  -0.67514  -0.63526  -0.60619  -0.53282
  Beta  occ. eigenvalues --   -0.50561  -0.47880  -0.44824  -0.42044  -0.39661
  Beta  occ. eigenvalues --   -0.37583  -0.37064  -0.35651  -0.33245  -0.30961
  Beta  occ. eigenvalues --   -0.30003  -0.29074  -0.27738  -0.27552  -0.25482
  Beta  occ. eigenvalues --   -0.24318  -0.23920  -0.22525  -0.19514  -0.15682
  Beta  occ. eigenvalues --   -0.14816  -0.14082  -0.12443  -0.04310
  Beta virt. eigenvalues --    0.07540   0.08154   0.09060   0.09490   0.09597
  Beta virt. eigenvalues --    0.10301   0.11321   0.11682   0.12576   0.13106
  Beta virt. eigenvalues --    0.13228   0.14378   0.15323   0.15744   0.16433

 Mulliken charges and spin densities:
               1          2
     1  C    0.243441  -0.571804
     2  C   -0.120817  -0.517562
     3  C   -0.137200  -0.165378
     4  C   -0.550693   0.760277
     5  C    0.645017   0.038082
     6  C   -0.353961  -0.142201
     7  N   -0.373652   0.203358
     8  N    0.310251  -0.035426
     9  C    0.298947  -0.562112
    10  C   -0.059779  -0.087226
    11  O   -0.386088   0.032185
    12  N   -0.286072  -0.071629
    13  H   -0.008854   0.148143
    14  H   -0.359538   0.499684
    15  H    0.158195  -0.043017
    16  H   -0.038588   0.198635
    17  H    0.155660   0.029198
    18  H    0.008931   0.101654
    19  H    0.115801   0.147681
    20  H   -0.026191   0.140619
    21  H   -0.232447   0.393292
    22  H   -0.144683   0.371035
    23  H    0.142321   0.132512
 Sum of Mulliken charges =  -1.00000   1.00000

 Dipole moment (field-independent basis, Debye):
    X=              0.4970    Y=              0.2025    Z=              0.0166  Tot=              0.5370
 Quadrupole moment (field-independent basis, Debye-Ang):
   XX=           -131.0965   YY=            -95.7599   ZZ=            -89.0219
   XY=             -8.3757   XZ=              1.9999   YZ=             -5.4033

 Summary of Natural Population Analysis:

                                       Natural Population
                Natural  -----------------------------------------------
    Atom  No    Charge         Core      Valence    Rydberg      Total
 -----------------------------------------------------------------------
      C    1   -0.19420      0.99964     2.18621    0.00835     3.19420
      C    2   -0.20324      0.99959     2.19413    0.00952     3.20324
      C    3    0.11188      0.99948     1.87553    0.01310     2.88812
      C    4   -0.13414      0.99944     2.12523    0.00946     3.13414
      C    5   -0.11309      0.99944     2.10253    0.01111     3.11309
      C    6    0.08697      0.99949     1.90177    0.01177     2.91303
      N    7   -0.22103      0.99971     2.70703    0.01429     3.72103
      N    8   -0.18809      0.99965     2.67369    0.01476     3.68809
      C    9   -0.07802      0.99962     2.06712    0.01128     3.07802
      C   10    0.33776      0.99965     1.63915    0.02343     2.66224
      O   11   -0.32291      0.99988     3.31728    0.00575     4.32291
      N   12   -0.41673      0.99972     2.90814    0.00887     3.91673
      H   13    0.09658      0.00000     0.40242    0.00100     0.40342
      H   14    0.09910      0.00000     0.39846    0.00244     0.40090
      H   15    0.10036      0.00000     0.39870    0.00094     0.39964
      H   16    0.10295      0.00000     0.39564    0.00141     0.39705
      H   17    0.11066      0.00000     0.38832    0.00102     0.38934
      H   18    0.09072      0.00000     0.40807    0.00121     0.40928
      H   19    0.17927      0.00000     0.31878    0.00195     0.32073
      H   20    0.08379      0.00000     0.41441    0.00180     0.41621
      H   21    0.09343      0.00000     0.40425    0.00231     0.40657
      H   22    0.19187      0.00000     0.30419    0.00394     0.30813
      H   23    0.18610      0.00000     0.31169    0.00221     0.31390
 =======================================================================
   * Total *    0.00000     11.99531    31.84275    0.16194    44.00000

 Normal termination of Gaussian 16 at Wed Dec  9 18:39:01 2020.
