 Gaussian 16, Revision A.03,

 -----------------------------------------------------------
 # opt freq B3LYP/6-31G(d) empiricaldispersion=gd3bj scf=xqc
 -----------------------------------------------------------

 ------------------------------
 CID_55220333_JID_7444_neutraal
 ------------------------------
 Symbolic Z-matrix:
 Charge =  0 Multiplicity = 1

 SCF Done:  E(RB3LYP) =  -732.699043186     A.U. after   13 cycles
 SCF Done:  E(RB3LYP) =  -732.704041949     A.U. after   12 cycles
 SCF Done:  E(RB3LYP) =  -732.701579482     A.U. after   12 cycles
 SCF Done:  E(RB3LYP) =  -732.704355865     A.U. after   12 cycles
 SCF Done:  E(RB3LYP) =  -732.706268308     A.U. after   11 cycles
 SCF Done:  E(RB3LYP) =  -732.707464458     A.U. after   12 cycles
 SCF Done:  E(RB3LYP) =  -732.707802110     A.U. after   12 cycles
 SCF Done:  E(RB3LYP) =  -732.708514334     A.U. after   11 cycles
 SCF Done:  E(RB3LYP) =  -732.708795851     A.U. after   11 cycles
 SCF Done:  E(RB3LYP) =  -732.708985019     A.U. after   11 cycles
 SCF Done:  E(RB3LYP) =  -732.709165975     A.U. after    9 cycles
 SCF Done:  E(RB3LYP) =  -732.709166491     A.U. after    8 cycles
 SCF Done:  E(RB3LYP) =  -732.709166960     A.U. after    8 cycles
 SCF Done:  E(RB3LYP) =  -732.709167005     A.U. after    8 cycles
 SCF Done:  E(RB3LYP) =  -732.709167043     A.U. after    6 cycles
 Optimization completed.
    -- Stationary point found.
 Normal termination of Gaussian 16 at Sun Dec 13 12:39:23 2020.

 --------------------------------------------------------------------
 #N Geom=AllCheck Guess=TCheck SCRF=Check GenChk RB3LYP/6-31G(d) Freq
 --------------------------------------------------------------------

 Structure from the checkpoint file:  "JID_7444.chk"
 ------------------------------
 CID_55220333_JID_7444_neutraal
 ------------------------------
 Charge =  0 Multiplicity = 1

 SCF Done:  E(RB3LYP) =  -732.709167043     A.U. after    1 cycles

  Exact polarizability: 200.350 -21.703 144.165  13.096  12.667 144.925
 Approx polarizability: 253.229 -36.215 217.968  24.690  30.342 227.492

                      1                      2                      3
                      A                      A                      A
 Frequencies --     11.7550                21.7988                35.2019
 Red. masses --      4.1528                 3.9769                 3.8058
 Frc consts  --      0.0003                 0.0011                 0.0028
 IR Inten    --      0.0159                 0.0121                 0.3181

                      4                      5                      6
                      A                      A                      A
 Frequencies --     59.3534                76.8509                93.0951
 Red. masses --      3.2667                 3.7164                 3.2015
 Frc consts  --      0.0068                 0.0129                 0.0163
 IR Inten    --      0.4069                 1.1543                 1.6649

                      7                      8                      9
                      A                      A                      A
 Frequencies --    119.8426               145.1168               169.3699
 Red. masses --      3.6450                 2.9496                 3.8166
 Frc consts  --      0.0308                 0.0366                 0.0645
 IR Inten    --      0.5954                 2.3085                 0.7018

                     10                     11                     12
                      A                      A                      A
 Frequencies --    191.2413               242.2064               245.8665
 Red. masses --      2.5959                 3.2094                 2.5643
 Frc consts  --      0.0559                 0.1109                 0.0913
 IR Inten    --      1.6885                 4.9450                 2.4637

                     13                     14                     15
                      A                      A                      A
 Frequencies --    253.6953               277.4804               311.4804
 Red. masses --      1.2211                 1.6905                 1.2587
 Frc consts  --      0.0463                 0.0767                 0.0719
 IR Inten    --      0.9104                 7.4724                10.9529

                     16                     17                     18
                      A                      A                      A
 Frequencies --    331.7297               354.2065               360.2702
 Red. masses --      2.3203                 2.1083                 1.4116
 Frc consts  --      0.1504                 0.1558                 0.1080
 IR Inten    --      2.4527                12.7159                54.7360

                     19                     20                     21
                      A                      A                      A
 Frequencies --    402.6534               417.5767               424.4306
 Red. masses --      2.1927                 3.1036                 3.2294
 Frc consts  --      0.2095                 0.3189                 0.3428
 IR Inten    --      0.1890                 2.8233                 0.0797

                     22                     23                     24
                      A                      A                      A
 Frequencies --    431.1072               451.8402               491.4778
 Red. masses --      2.7617                 2.7200                 2.5900
 Frc consts  --      0.3024                 0.3272                 0.3686
 IR Inten    --      3.4759                 4.4315                 0.6902

                     25                     26                     27
                      A                      A                      A
 Frequencies --    504.8953               520.4403               538.6490
 Red. masses --      2.2108                 2.8769                 2.0773
 Frc consts  --      0.3321                 0.4591                 0.3551
 IR Inten    --      7.4490                 4.1195                 4.7001

                     28                     29                     30
                      A                      A                      A
 Frequencies --    612.8487               631.4487               702.7002
 Red. masses --      4.7543                 6.3203                 2.3054
 Frc consts  --      1.0521                 1.4848                 0.6707
 IR Inten    --      1.5310                 0.3651                11.9584

                     31                     32                     33
                      A                      A                      A
 Frequencies --    717.5822               765.8775               806.6258
 Red. masses --      2.3015                 1.6131                 2.2722
 Frc consts  --      0.6982                 0.5575                 0.8710
 IR Inten    --      2.3544                55.3352                11.2090

                     34                     35                     36
                      A                      A                      A
 Frequencies --    830.0022               836.1980               850.9283
 Red. masses --      1.3327                 2.2899                 2.4693
 Frc consts  --      0.5409                 0.9434                 1.0534
 IR Inten    --      0.0863                17.5906                 2.9720

                     37                     38                     39
                      A                      A                      A
 Frequencies --    883.7226               892.6348               910.4748
 Red. masses --      2.1240                 1.4630                 2.1013
 Frc consts  --      0.9773                 0.6868                 1.0263
 IR Inten    --      7.6493                 7.2937                16.3652

                     40                     41                     42
                      A                      A                      A
 Frequencies --    924.2589               934.7639               952.7706
 Red. masses --      1.4178                 2.0381                 1.2621
 Frc consts  --      0.7136                 1.0493                 0.6750
 IR Inten    --     79.7199                 0.9252                 0.3036

                     43                     44                     45
                      A                      A                      A
 Frequencies --    955.1360               970.8688               981.3970
 Red. masses --      1.3235                 1.6897                 1.2275
 Frc consts  --      0.7114                 0.9384                 0.6966
 IR Inten    --      0.1081                22.0116                 0.6854

                     46                     47                     48
                      A                      A                      A
 Frequencies --    986.4937              1016.9226              1047.4404
 Red. masses --      1.7300                 5.6284                 2.5641
 Frc consts  --      0.9919                 3.4293                 1.6574
 IR Inten    --     36.1735                 0.7643                28.8168

                     49                     50                     51
                      A                      A                      A
 Frequencies --   1059.0811              1069.4031              1097.2760
 Red. masses --      2.0080                 1.8803                 2.3516
 Frc consts  --      1.3270                 1.2669                 1.6682
 IR Inten    --      7.0407                 6.4031                87.4902

                     52                     53                     54
                      A                      A                      A
 Frequencies --   1114.9170              1121.2248              1124.7629
 Red. masses --      1.5906                 2.4712                 1.8216
 Frc consts  --      1.1649                 1.8304                 1.3578
 IR Inten    --      7.4505                 4.8064                 7.0548

                     55                     56                     57
                      A                      A                      A
 Frequencies --   1131.3806              1147.2085              1188.5436
 Red. masses --      1.8380                 2.4328                 1.9693
 Frc consts  --      1.3862                 1.8864                 1.6390
 IR Inten    --     22.2122                 9.4465                 1.1272

                     58                     59                     60
                      A                      A                      A
 Frequencies --   1190.0522              1194.7080              1208.8152
 Red. masses --      1.1309                 1.4862                 1.1457
 Frc consts  --      0.9436                 1.2498                 0.9864
 IR Inten    --      4.0923                 6.1991                15.4770

                     61                     62                     63
                      A                      A                      A
 Frequencies --   1210.1061              1236.3730              1262.9826
 Red. masses --      1.9204                 2.1581                 1.1676
 Frc consts  --      1.6569                 1.9437                 1.0973
 IR Inten    --     28.1512                20.3197                 5.0854

                     64                     65                     66
                      A                      A                      A
 Frequencies --   1289.4399              1294.7551              1330.2221
 Red. masses --      1.6130                 2.9963                 1.2939
 Frc consts  --      1.5801                 2.9594                 1.3489
 IR Inten    --    106.6618               234.1621                 8.0280

                     67                     68                     69
                      A                      A                      A
 Frequencies --   1351.4680              1365.0466              1374.0052
 Red. masses --      1.9595                 1.1699                 2.5487
 Frc consts  --      2.1087                 1.2844                 2.8349
 IR Inten    --     20.2938                 7.7056                13.8781

                     70                     71                     72
                      A                      A                      A
 Frequencies --   1377.5871              1382.4006              1394.7422
 Red. masses --      1.1815                 1.2585                 1.3005
 Frc consts  --      1.3211                 1.4170                 1.4906
 IR Inten    --     19.5778                24.0783                15.9373

                     73                     74                     75
                      A                      A                      A
 Frequencies --   1411.1031              1417.2829              1433.3545
 Red. masses --      1.3185                 1.3591                 1.3237
 Frc consts  --      1.5468                 1.6084                 1.6023
 IR Inten    --     14.5422                15.8366                20.2218

                     76                     77                     78
                      A                      A                      A
 Frequencies --   1437.5664              1446.9854              1453.0349
 Red. masses --      1.3601                 1.3862                 1.2372
 Frc consts  --      1.6560                 1.7100                 1.5390
 IR Inten    --      6.8912                 4.3267                 8.4827

                     79                     80                     81
                      A                      A                      A
 Frequencies --   1461.7194              1495.0716              1507.0438
 Red. masses --      1.2994                 1.1049                 2.3316
 Frc consts  --      1.6358                 1.4551                 3.1200
 IR Inten    --     10.2721                 3.6710                 0.8306

                     82                     83                     84
                      A                      A                      A
 Frequencies --   1514.3187              1517.9211              1527.4489
 Red. masses --      1.0681                 1.0530                 1.0689
 Frc consts  --      1.4431                 1.4294                 1.4693
 IR Inten    --      0.0813                 0.2325                 0.5169

                     85                     86                     87
                      A                      A                      A
 Frequencies --   1530.5931              1533.2693              1539.9390
 Red. masses --      1.0850                 1.0852                 1.1087
 Frc consts  --      1.4976                 1.5031                 1.5491
 IR Inten    --     23.4869                 2.6538                21.5033

                     88                     89                     90
                      A                      A                      A
 Frequencies --   1545.2616              1559.2167              1562.6853
 Red. masses --      1.5632                 1.1829                 1.1663
 Frc consts  --      2.1992                 1.6944                 1.6780
 IR Inten    --    101.1829                 7.7166                 4.1145

                     91                     92                     93
                      A                      A                      A
 Frequencies --   1647.3401              1668.2473              1679.8259
 Red. masses --      5.9054                 5.6165                 1.0884
 Frc consts  --      9.4420                 9.2095                 1.8095
 IR Inten    --     22.0444                84.5356                40.9831

                     94                     95                     96
                      A                      A                      A
 Frequencies --   2946.1984              2966.2312              2991.5557
 Red. masses --      1.0831                 1.0714                 1.0722
 Frc consts  --      5.5392                 5.5539                 5.6537
 IR Inten    --     57.9548               125.0641                46.2366

                     97                     98                     99
                      A                      A                      A
 Frequencies --   3024.2048              3044.3069              3047.3309
 Red. masses --      1.0681                 1.0355                 1.0621
 Frc consts  --      5.7554                 5.6544                 5.8112
 IR Inten    --     32.8773                23.0994                33.2989

                    100                    101                    102
                      A                      A                      A
 Frequencies --   3055.1217              3058.3117              3067.3389
 Red. masses --      1.0480                 1.0617                 1.0825
 Frc consts  --      5.7631                 5.8510                 6.0009
 IR Inten    --     28.8927                11.3863                53.5515

                    103                    104                    105
                      A                      A                      A
 Frequencies --   3088.7042              3101.4867              3105.3795
 Red. masses --      1.0987                 1.0909                 1.0959
 Frc consts  --      6.1759                 6.1828                 6.2267
 IR Inten    --     13.4943                30.2050                44.7408

                    106                    107                    108
                      A                      A                      A
 Frequencies --   3110.2134              3114.6849              3120.3587
 Red. masses --      1.1023                 1.1013                 1.1005
 Frc consts  --      6.2827                 6.2946                 6.3129
 IR Inten    --     21.6556                63.2533                52.3173

                    109                    110                    111
                      A                      A                      A
 Frequencies --   3127.9900              3142.5834              3184.5016
 Red. masses --      1.0956                 1.1034                 1.0851
 Frc consts  --      6.3158                 6.4205                 6.4837
 IR Inten    --     27.2387                 6.7491                 2.8059

                    112                    113                    114
                      A                      A                      A
 Frequencies --   3192.1392              3208.7569              3216.8390
 Red. masses --      1.0894                 1.0929                 1.0957
 Frc consts  --      6.5402                 6.6301                 6.6805
 IR Inten    --     16.1922                33.0252                11.7929

                    115                    116                    117
                      A                      A                      A
 Frequencies --   3230.7720              3460.0151              3545.6816
 Red. masses --      1.0918                 1.0496                 1.0918
 Frc consts  --      6.7142                 7.4035                 8.0871
 IR Inten    --      8.4106                 4.9953                 0.0702

 - Thermochemistry -
 -------------------
 Temperature   298.150 Kelvin.  Pressure   1.00000 Atm.
 Atom     1 has atomic number  6 and mass  12.00000

 Molecular mass:   236.18886 amu.
 Principal axes and moments of inertia in atomic units:
                           1         2         3
     Eigenvalues --  2007.707058866.339589344.61684
           X            0.99999  -0.00459  -0.00244
           Y            0.00462   0.99990   0.01325
           Z            0.00238  -0.01326   0.99991
 This molecule is an asymmetric top.
 Rotational symmetry number  1.
 Warning -- assumption of classical behavior for rotation
           may cause significant error
 Rotational temperatures (Kelvin)      0.04314     0.00977     0.00927
 Rotational constants (GHZ):           0.89891     0.20355     0.19313
 Zero-point vibrational energy     970477.5 (Joules/Mol)
                                  231.94968 (Kcal/Mol)
 Warning -- explicit consideration of  28 degrees of freedom as
           vibrations may cause significant error
 Vibrational temperatures:     16.91    31.36    50.65    85.40   110.57
          (Kelvin)            133.94   172.43   208.79   243.69   275.15
                              348.48   353.75   365.01   399.23   448.15
                              477.29   509.62   518.35   579.33   600.80
                              610.66   620.27   650.10   707.13   726.43
                              748.80   775.00   881.75   908.51  1011.03
                             1032.44  1101.93  1160.55  1194.19  1203.10
                             1224.30  1271.48  1284.30  1309.97  1329.80
                             1344.92  1370.82  1374.23  1396.86  1412.01
                             1419.34  1463.12  1507.03  1523.78  1538.63
                             1578.74  1604.12  1613.19  1618.28  1627.80
                             1650.58  1710.05  1712.22  1718.92  1739.22
                             1741.07  1778.86  1817.15  1855.22  1862.86
                             1913.89  1944.46  1964.00  1976.89  1982.04
                             1988.97  2006.72  2030.26  2039.15  2062.28
                             2068.34  2081.89  2090.59  2103.09  2151.07
                             2168.30  2178.77  2183.95  2197.66  2202.18
                             2206.03  2215.63  2223.29  2243.37  2248.36
                             2370.15  2400.24  2416.89  4238.92  4267.75
                             4304.18  4351.16  4380.08  4384.43  4395.64
                             4400.23  4413.22  4443.96  4462.35  4467.95
                             4474.90  4481.34  4489.50  4500.48  4521.48
                             4581.79  4592.78  4616.69  4628.31  4648.36
                             4978.19  5101.45

 Zero-point correction=                           0.369635 (Hartree/Particle)
 Thermal correction to Energy=                    0.387631
 Thermal correction to Enthalpy=                  0.388575
 Thermal correction to Gibbs Free Energy=         0.321358
 Sum of electronic and zero-point Energies=           -732.339532
 Sum of electronic and thermal Energies=              -732.321536
 Sum of electronic and thermal Enthalpies=            -732.320592
 Sum of electronic and thermal Free Energies=         -732.387809

                     E (Thermal)             CV                S
                      KCal/Mol        Cal/Mol-Kelvin    Cal/Mol-Kelvin
 Total                  243.242             68.854            141.472
 Electronic               0.000              0.000              0.000
 Translational            0.889              2.981             42.280
 Rotational               0.889              2.981             33.475
 Vibrational            241.465             62.892             65.717
 Vibration     1          0.593              1.987              7.690
 Vibration     2          0.593              1.985              6.463
 Vibration     3          0.594              1.982              5.512
 Vibration     4          0.597              1.974              4.479
 Vibration     5          0.599              1.965              3.970
 Vibration     6          0.602              1.954              3.594
 Vibration     7          0.609              1.933              3.103
 Vibration     8          0.617              1.908              2.735
 Vibration     9          0.625              1.880              2.442
 Vibration    10          0.634              1.852              2.216
 Vibration    11          0.658              1.776              1.787
 Vibration    12          0.660              1.770              1.760
 Vibration    13          0.665              1.757              1.705
 Vibration    14          0.678              1.715              1.549
 Vibration    15          0.700              1.652              1.354
 Vibration    16          0.714              1.612              1.252
 Vibration    17          0.730              1.567              1.147
 Vibration    18          0.735              1.554              1.121
 Vibration    19          0.768              1.464              0.953
 Vibration    20          0.781              1.432              0.900
 Vibration    21          0.786              1.417              0.877
 Vibration    22          0.792              1.402              0.855
 Vibration    23          0.811              1.357              0.790
 Vibration    24          0.847              1.269              0.680
 Vibration    25          0.860              1.239              0.646
 Vibration    26          0.875              1.205              0.609
 Vibration    27          0.894              1.165              0.568
 Vibration    28          0.972              1.005              0.428

                           ! Non-Optimized Parameters !
 Normal termination of Gaussian 16 at Sun Dec 13 12:57:13 2020.

 ----------------------------------------------------------------------
 # B3LYP/6-311++G(d,p) empiricaldispersion=gd3bj scf=xqc pop=npa geom=c
 heck
 ----------------------------------------------------------------------

 --------------------------------------
 CID_55220333_JID_7444_Energie_neutraal
 --------------------------------------
 Structure from the checkpoint file:  "JID_7444.chk"
 Charge =  0 Multiplicity = 1

 SCF Done:  E(RB3LYP) =  -732.918275162     A.U. after   14 cycles
 Normal termination of Gaussian 16 at Sun Dec 13 13:05:49 2020.

 ----------------------------------------------------------------------
 # B3LYP/6-311++G(d,p) empiricaldispersion=gd3bj scf=xqc pop=npa geom=c
 heck
 ----------------------------------------------------------------------

 ------------------------------------
 CID_55220333_JID_7444_Energie_kation
 ------------------------------------
 Structure from the checkpoint file:  "JID_7444.chk"
 Charge =  1 Multiplicity = 2

 SCF Done:  E(UB3LYP) =  -732.646945725     A.U. after   24 cycles
 Normal termination of Gaussian 16 at Sun Dec 13 13:26:30 2020.
 Gaussian 16:  ES64L-G16RevA.03 25-Dec-2016

 ----------------------------------------------------------------------
 # B3LYP/6-311++G(d,p) empiricaldispersion=gd3bj scf=xqc pop=npa geom=c
 heck
 ----------------------------------------------------------------------

 -----------------------------------
 CID_55220333_JID_7444_Energie_anion
 -----------------------------------
 Structure from the checkpoint file:  "JID_7444.chk"
 Charge = -1 Multiplicity = 2

                         Standard orientation:
 ---------------------------------------------------------------------
 Center     Atomic      Atomic             Coordinates (Angstroms)
 Number     Number       Type             X           Y           Z
 ---------------------------------------------------------------------
      1          6           0        4.046609    0.551430   -1.646658
      2          6           0        3.460700   -0.591103   -0.810639
      3          6           0        4.486769   -1.035438    0.241788
      4          7           0        2.178513   -0.279988   -0.118995
      5          6           0        1.403958   -1.506260    0.096397
      6          6           0        0.581032   -1.568266    1.392097
      7          6           0       -0.713862   -0.766866    1.418069
      8          8           0       -1.494151   -1.153755    0.289095
      9          6           0       -2.665738   -0.493915    0.051896
     10          6           0       -3.197401    0.498520    0.882672
     11          6           0       -4.406580    1.108595    0.535672
     12          6           0       -5.087869    0.741942   -0.621822
     13          6           0       -4.548988   -0.252821   -1.444704
     14          6           0       -3.347496   -0.867868   -1.114562
     15          6           0        1.378464    0.856567   -0.597313
     16          6           0        1.373696    2.027500    0.395856
     17          7           0        2.743885    2.432385    0.717444
     18          1           0        4.101278    1.480903   -1.072213
     19          1           0        3.467414    0.741954   -2.555464
     20          1           0        5.056979    0.269157   -1.962278
     21          1           0        3.294349   -1.437762   -1.500614
     22          1           0        4.767672   -0.185824    0.875289
     23          1           0        4.087750   -1.819710    0.893361
     24          1           0        5.394643   -1.422357   -0.235991
     25          1           0        0.741401   -1.719106   -0.759063
     26          1           0        2.115568   -2.334778    0.147317
     27          1           0        0.322021   -2.620096    1.568778
     28          1           0        1.207344   -1.240087    2.230630
     29          1           0       -1.269267   -0.976603    2.343440
     30          1           0       -0.523404    0.310274    1.382025
     31          1           0       -2.687636    0.796850    1.790803
     32          1           0       -4.813279    1.878456    1.185885
     33          1           0       -6.026266    1.221718   -0.882526
     34          1           0       -5.068418   -0.550215   -2.351548
     35          1           0       -2.912784   -1.639781   -1.741572
     36          1           0        1.748869    1.226529   -1.556010
     37          1           0        0.345297    0.532656   -0.772368
     38          1           0        0.853608    2.876258   -0.066493
     39          1           0        0.793084    1.745195    1.291259
     40          1           0        2.729819    3.183844    1.405060
     41          1           0        3.190624    1.633696    1.167907
 ---------------------------------------------------------------------

 SCF Done:  E(UB3LYP) =  -732.904390527     A.U. after   33 cycles
 SCF Done:  E(UB3LYP) =  -732.904390527     a.u. after    1 cycles

 The electronic state is 2-A.
 Alpha  occ. eigenvalues --  -19.06277 -14.21024 -14.19431 -10.14699 -10.13164
 Alpha  occ. eigenvalues --  -10.11415 -10.10143 -10.09697 -10.09326 -10.08989
 Alpha  occ. eigenvalues --  -10.08777 -10.08389 -10.08345 -10.08077 -10.07946
 Alpha  occ. eigenvalues --  -10.06813 -10.06805  -0.97987  -0.83156  -0.78224
 Alpha  occ. eigenvalues --   -0.76659  -0.70464  -0.68184  -0.66256  -0.65128
 Alpha  occ. eigenvalues --   -0.62769  -0.59576  -0.58013  -0.53016  -0.51765
 Alpha  occ. eigenvalues --   -0.51425  -0.48849  -0.46421  -0.45164  -0.41512
 Alpha  occ. eigenvalues --   -0.40340  -0.40109  -0.38657  -0.38496  -0.37271
 Alpha  occ. eigenvalues --   -0.36581  -0.35803  -0.35271  -0.33886  -0.33289
 Alpha  occ. eigenvalues --   -0.32056  -0.31153  -0.30001  -0.29663  -0.29449
 Alpha  occ. eigenvalues --   -0.28751  -0.27943  -0.27376  -0.27326  -0.26907
 Alpha  occ. eigenvalues --   -0.25621  -0.25294  -0.24669  -0.24113  -0.23428
 Alpha  occ. eigenvalues --   -0.22797  -0.16964  -0.15021  -0.13765  -0.12065
 Alpha  occ. eigenvalues --    0.04118
 Alpha virt. eigenvalues --    0.05599   0.06149   0.06954   0.07170   0.07246
 Alpha virt. eigenvalues --    0.07561   0.08434   0.08590   0.08708   0.09335
 Alpha virt. eigenvalues --    0.09545   0.09805   0.10536   0.11087   0.11766

  Beta  occ. eigenvalues --  -19.06272 -14.21007 -14.19406 -10.14700 -10.13145
  Beta  occ. eigenvalues --  -10.11410 -10.10140 -10.09695 -10.09308 -10.08979
  Beta  occ. eigenvalues --  -10.08761 -10.08384 -10.08331 -10.08066 -10.07930
  Beta  occ. eigenvalues --  -10.06798 -10.06791  -0.97977  -0.83134  -0.78181
  Beta  occ. eigenvalues --   -0.76640  -0.70441  -0.68163  -0.66230  -0.65104
  Beta  occ. eigenvalues --   -0.62741  -0.59542  -0.57978  -0.52982  -0.51731
  Beta  occ. eigenvalues --   -0.51390  -0.48811  -0.46390  -0.45129  -0.41485
  Beta  occ. eigenvalues --   -0.40305  -0.40077  -0.38636  -0.38473  -0.37249
  Beta  occ. eigenvalues --   -0.36545  -0.35770  -0.35238  -0.33860  -0.33262
  Beta  occ. eigenvalues --   -0.32039  -0.31123  -0.29979  -0.29633  -0.29428
  Beta  occ. eigenvalues --   -0.28729  -0.27914  -0.27351  -0.27300  -0.26879
  Beta  occ. eigenvalues --   -0.25591  -0.25275  -0.24647  -0.24095  -0.23400
  Beta  occ. eigenvalues --   -0.22777  -0.16947  -0.14990  -0.13753  -0.11986
  Beta virt. eigenvalues --    0.05962   0.06254   0.06963   0.07166   0.07380
  Beta virt. eigenvalues --    0.07732   0.07888   0.08540   0.08888   0.09023
  Beta virt. eigenvalues --    0.09531   0.09773   0.10085   0.10787   0.11456

 Mulliken charges and spin densities:
               1          2
     1  C   -0.236959  -0.326885
     2  C   -0.894426   0.657371
     3  C    0.612558  -0.984745
     4  N    0.344418   0.029368
     5  C   -0.916042   0.254673
     6  C    0.400363  -1.053808
     7  C    0.082459  -0.035031
     8  O   -0.002932  -0.011928
     9  C   -0.317504   0.182403
    10  C    1.330958  -1.093162
    11  C   -0.387872   0.223653
    12  C    0.996062  -1.377003
    13  C    0.195882  -0.390153
    14  C   -1.519383   1.447653
    15  C    0.316004  -0.464652
    16  C    0.136866  -0.599063
    17  N   -0.485670   0.103825
    18  H    0.187194   0.007375
    19  H    0.103459   0.039615
    20  H   -0.025245   0.153632
    21  H    0.039420   0.083546
    22  H   -0.179213   0.320870
    23  H   -0.062469   0.189886
    24  H   -0.073037   0.192598
    25  H    0.126988   0.072686
    26  H    0.013731   0.104825
    27  H    0.079905   0.096023
    28  H   -0.264739   0.449835
    29  H   -0.466355   0.665136
    30  H    1.205146  -1.206498
    31  H   -0.283034   0.459075
    32  H   -0.552031   0.745414
    33  H   -0.213568   0.356323
    34  H   -0.204180   0.372606
    35  H    0.040678   0.113688
    36  H    0.097874   0.024504
    37  H    0.403552  -0.228723
    38  H    0.065521   0.074139
    39  H   -0.889854   1.065547
    40  H   -0.118433   0.382969
    41  H    0.313906  -0.097586
 Sum of Mulliken charges =  -1.00000   1.00000

 Dipole moment (field-independent basis, Debye):
    X=              2.0170    Y=             -2.9546    Z=             -4.6816  Tot=              5.8920
 Quadrupole moment (field-independent basis, Debye-Ang):
   XX=           -212.1746   YY=           -150.6404   ZZ=           -150.3911
   XY=              3.6019   XZ=             -3.4256   YZ=             -3.2927

 Summary of Natural Population Analysis:

                                       Natural Population
                Natural  -----------------------------------------------
    Atom  No    Charge         Core      Valence    Rydberg      Total
 -----------------------------------------------------------------------
      C    1   -0.29954      0.99964     2.29507    0.00483     3.29954
      C    2    0.00009      0.99960     1.98952    0.01079     2.99991
      C    3   -0.28558      0.99964     2.27956    0.00639     3.28558
      N    4   -0.29707      0.99969     2.78333    0.01406     3.79707
      C    5   -0.07894      0.99959     2.06900    0.01035     3.07894
      C    6   -0.20136      0.99961     2.19158    0.01016     3.20136
      C    7   -0.01482      0.99955     2.00337    0.01189     3.01482
      O    8   -0.27993      0.99985     3.27080    0.00928     4.27993
      C    9    0.16165      0.99939     1.82527    0.01369     2.83835
      C   10   -0.14334      0.99952     2.13453    0.00930     3.14334
      C   11   -0.08902      0.99957     2.07900    0.01045     3.08902
      C   12   -0.12034      0.99956     2.11032    0.01045     3.12034
      C   13   -0.09548      0.99957     2.08656    0.00935     3.09548
      C   14   -0.12243      0.99952     2.11378    0.00913     3.12243
      C   15   -0.09029      0.99960     2.08063    0.01007     3.09029
      C   16   -0.08888      0.99963     2.07805    0.01119     3.08888
      N   17   -0.42779      0.99977     2.91784    0.01019     3.92779
      H   18    0.11681      0.00000     0.38180    0.00139     0.38319
      H   19    0.09630      0.00000     0.40283    0.00087     0.40370
      H   20    0.09957      0.00000     0.39968    0.00075     0.40043
      H   21    0.07758      0.00000     0.42058    0.00183     0.42242
      H   22    0.09794      0.00000     0.40054    0.00153     0.40206
      H   23    0.09983      0.00000     0.39892    0.00125     0.40017
      H   24    0.09449      0.00000     0.40459    0.00092     0.40551
      H   25    0.08794      0.00000     0.41063    0.00143     0.41206
      H   26    0.09572      0.00000     0.40284    0.00143     0.40428
      H   27    0.09839      0.00000     0.40054    0.00107     0.40161
      H   28    0.10637      0.00000     0.39186    0.00177     0.39363
      H   29    0.08884      0.00000     0.40948    0.00167     0.41116
      H   30    0.08502      0.00000     0.41173    0.00325     0.41498
      H   31    0.10969      0.00000     0.38842    0.00189     0.39031
      H   32    0.10303      0.00000     0.39552    0.00145     0.39697
      H   33    0.10170      0.00000     0.39720    0.00111     0.39830
      H   34    0.10009      0.00000     0.39901    0.00090     0.39991
      H   35    0.10517      0.00000     0.39381    0.00102     0.39483
      H   36    0.09401      0.00000     0.40462    0.00137     0.40599
      H   37    0.09708      0.00000     0.40139    0.00153     0.40292
      H   38    0.08763      0.00000     0.41137    0.00100     0.41237
      H   39    0.07670      0.00000     0.42057    0.00273     0.42330
      H   40    0.17672      0.00000     0.32127    0.00201     0.32328
      H   41    0.17645      0.00000     0.32087    0.00268     0.32355
 =======================================================================
   * Total *    0.00000     16.99330    47.79827    0.20843    65.00000

 Normal termination of Gaussian 16 at Sun Dec 13 13:55:10 2020.
