 Gaussian 16, Revision A.03,

 -----------------------------------------------------------
 # opt freq B3LYP/6-31G(d) empiricaldispersion=gd3bj scf=xqc
 -----------------------------------------------------------

 -------------------------------
 CID_131038600_JID_3213_neutraal
 -------------------------------
 Symbolic Z-matrix:
 Charge =  0 Multiplicity = 1

 SCF Done:  E(RB3LYP) =  -525.903587361     A.U. after   13 cycles
 SCF Done:  E(RB3LYP) =  -525.910213165     A.U. after   11 cycles
 SCF Done:  E(RB3LYP) =  -525.911024957     A.U. after   10 cycles
 SCF Done:  E(RB3LYP) =  -525.911570688     A.U. after   10 cycles
 SCF Done:  E(RB3LYP) =  -525.911759602     A.U. after   10 cycles
 SCF Done:  E(RB3LYP) =  -525.911834578     A.U. after   10 cycles
 SCF Done:  E(RB3LYP) =  -525.911857203     A.U. after    9 cycles
 SCF Done:  E(RB3LYP) =  -525.911864387     A.U. after    8 cycles
 SCF Done:  E(RB3LYP) =  -525.911868448     A.U. after    7 cycles
 SCF Done:  E(RB3LYP) =  -525.911870252     A.U. after    7 cycles
 SCF Done:  E(RB3LYP) =  -525.911870512     A.U. after    6 cycles
 SCF Done:  E(RB3LYP) =  -525.911870571     A.U. after    6 cycles
 Optimization completed.
    -- Stationary point found.
 Normal termination of Gaussian 16 at Mon Dec 14 16:34:47 2020.

 --------------------------------------------------------------------
 #N Geom=AllCheck Guess=TCheck SCRF=Check GenChk RB3LYP/6-31G(d) Freq
 --------------------------------------------------------------------

 Structure from the checkpoint file:  "JID_3213.chk"
 -------------------------------
 CID_131038600_JID_3213_neutraal
 -------------------------------
 Charge =  0 Multiplicity = 1

 SCF Done:  E(RB3LYP) =  -525.911870571     A.U. after    1 cycles

  Exact polarizability: 146.826   1.818 121.527   2.150  -0.764 116.074
 Approx polarizability: 176.193   1.410 175.437   5.736  -2.901 174.561

 ******    1 imaginary frequencies (negative Signs) ******

                      1                      2                      3
                      A                      A                      A
 Frequencies --    -13.1581                40.1789                64.8679
 Red. masses --      1.6768                 3.2458                 3.1293
 Frc consts  --      0.0002                 0.0031                 0.0078
 IR Inten    --      0.0022                 0.0382                 0.0024

                      4                      5                      6
                      A                      A                      A
 Frequencies --     81.5452               115.6844               147.4788
 Red. masses --      2.3239                 3.0111                 3.0843
 Frc consts  --      0.0091                 0.0237                 0.0395
 IR Inten    --      0.0450                 1.3392                 0.3185

                      7                      8                      9
                      A                      A                      A
 Frequencies --    174.2335               197.7494               220.8584
 Red. masses --      2.3797                 2.0371                 1.3721
 Frc consts  --      0.0426                 0.0469                 0.0394
 IR Inten    --      2.6203                 0.2038                 0.1874

                     10                     11                     12
                      A                      A                      A
 Frequencies --    261.5477               273.8935               320.1583
 Red. masses --      1.8624                 1.7481                 1.1732
 Frc consts  --      0.0751                 0.0773                 0.0709
 IR Inten    --      0.0617                 0.3139                 0.2758

                     13                     14                     15
                      A                      A                      A
 Frequencies --    336.6298               359.9597               415.9016
 Red. masses --      2.3192                 2.2343                 2.1607
 Frc consts  --      0.1548                 0.1706                 0.2202
 IR Inten    --      1.0119                 0.0191                 0.5336

                     16                     17                     18
                      A                      A                      A
 Frequencies --    435.9226               445.1911               507.8780
 Red. masses --      2.1090                 2.0963                 3.0165
 Frc consts  --      0.2361                 0.2448                 0.4584
 IR Inten    --      0.3133                 0.1239                12.7156

                     19                     20                     21
                      A                      A                      A
 Frequencies --    549.8234               630.4812               644.2894
 Red. masses --      2.5950                 2.5919                 2.8930
 Frc consts  --      0.4622                 0.6070                 0.7076
 IR Inten    --      3.9186                 0.4265                 0.5186

                     22                     23                     24
                      A                      A                      A
 Frequencies --    682.1542               759.4557               793.4629
 Red. masses --      2.9218                 1.3113                 1.3155
 Frc consts  --      0.8011                 0.4456                 0.4880
 IR Inten    --      0.9639                 0.4040                 0.5444

                     25                     26                     27
                      A                      A                      A
 Frequencies --    829.3895               833.2371               885.8228
 Red. masses --      1.6360                 1.8879                 2.0463
 Frc consts  --      0.6631                 0.7722                 0.9461
 IR Inten    --      2.0837                 4.8955                 2.2081

                     28                     29                     30
                      A                      A                      A
 Frequencies --    896.0228               910.4260               916.6112
 Red. masses --      2.7423                 2.1125                 2.2653
 Frc consts  --      1.2972                 1.0317                 1.1214
 IR Inten    --      1.6374                 0.9931                 3.0729

                     31                     32                     33
                      A                      A                      A
 Frequencies --    924.8290               950.3554               955.5141
 Red. masses --      1.6592                 2.2557                 1.9025
 Frc consts  --      0.8361                 1.2003                 1.0234
 IR Inten    --      0.0802                 2.8686                 1.4696

                     34                     35                     36
                      A                      A                      A
 Frequencies --    981.8209               992.1947               994.0035
 Red. masses --      1.5863                 1.4802                 1.3560
 Frc consts  --      0.9009                 0.8585                 0.7894
 IR Inten    --      1.1044                 1.2099                 1.8660

                     37                     38                     39
                      A                      A                      A
 Frequencies --   1001.1477              1012.2298              1041.4629
 Red. masses --      1.9582                 1.9284                 1.3972
 Frc consts  --      1.1564                 1.1641                 0.8929
 IR Inten    --      3.0936                 3.3803                 1.0286

                     40                     41                     42
                      A                      A                      A
 Frequencies --   1062.3558              1076.1172              1117.7828
 Red. masses --      2.1660                 2.1884                 2.1603
 Frc consts  --      1.4403                 1.4931                 1.5903
 IR Inten    --      0.3340                10.2142                 1.7796

                     43                     44                     45
                      A                      A                      A
 Frequencies --   1151.9240              1158.6515              1188.7235
 Red. masses --      1.9984                 1.3048                 1.8836
 Frc consts  --      1.5623                 1.0320                 1.5682
 IR Inten    --      1.9505                 4.9080                10.5693

                     46                     47                     48
                      A                      A                      A
 Frequencies --   1197.6977              1215.5395              1221.9750
 Red. masses --      1.6024                 1.5213                 1.5065
 Frc consts  --      1.3543                 1.3243                 1.3254
 IR Inten    --      4.5957                 7.7066                 3.1505

                     49                     50                     51
                      A                      A                      A
 Frequencies --   1242.1531              1249.3763              1262.4150
 Red. masses --      1.3349                 1.7371                 1.4912
 Frc consts  --      1.2135                 1.5975                 1.4002
 IR Inten    --      1.7562                 0.9742                 9.8833

                     52                     53                     54
                      A                      A                      A
 Frequencies --   1276.4095              1280.9977              1288.3954
 Red. masses --      1.6175                 1.7824                 1.5013
 Frc consts  --      1.5527                 1.7233                 1.4683
 IR Inten    --      4.5840                21.7217                 6.8050

                     55                     56                     57
                      A                      A                      A
 Frequencies --   1305.3277              1314.0455              1333.7712
 Red. masses --      2.3052                 1.3062                 1.4992
 Frc consts  --      2.3142                 1.3289                 1.5714
 IR Inten    --     46.6529                 1.8894                 8.8320

                     58                     59                     60
                      A                      A                      A
 Frequencies --   1346.1354              1353.3131              1355.3077
 Red. masses --      1.2335                 1.5270                 1.5058
 Frc consts  --      1.3169                 1.6477                 1.6296
 IR Inten    --      1.6978                13.2313                15.9008

                     61                     62                     63
                      A                      A                      A
 Frequencies --   1366.2042              1381.3516              1400.6642
 Red. masses --      1.3609                 1.5156                 1.4096
 Frc consts  --      1.4966                 1.7038                 1.6294
 IR Inten    --      8.7466                 5.6016                 6.8630

                     64                     65                     66
                      A                      A                      A
 Frequencies --   1418.6811              1422.4298              1430.0323
 Red. masses --      1.3145                 1.3015                 1.4535
 Frc consts  --      1.5588                 1.5516                 1.7513
 IR Inten    --     17.7256                 8.6974                17.8346

                     67                     68                     69
                      A                      A                      A
 Frequencies --   1438.2167              1494.5214              1506.5901
 Red. masses --      1.2449                 1.0828                 1.0681
 Frc consts  --      1.5172                 1.4249                 1.4284
 IR Inten    --     10.6970                 4.5784                 3.1090

                     70                     71                     72
                      A                      A                      A
 Frequencies --   1510.3778              1514.4104              1515.9827
 Red. masses --      1.0666                 1.0782                 1.0911
 Frc consts  --      1.4335                 1.4570                 1.4774
 IR Inten    --      1.2115                 0.0117                 2.8198

                     73                     74                     75
                      A                      A                      A
 Frequencies --   1520.2380              1524.8196              1526.8535
 Red. masses --      1.0635                 1.0901                 1.0824
 Frc consts  --      1.4481                 1.4934                 1.4867
 IR Inten    --      0.6251                 0.7854                 4.4560

                     76                     77                     78
                      A                      A                      A
 Frequencies --   1532.1738              1538.6895              1549.7792
 Red. masses --      1.0643                 1.0589                 1.1045
 Frc consts  --      1.4721                 1.4770                 1.5630
 IR Inten    --      5.9079                 2.6218                 0.9315

                     79                     80                     81
                      A                      A                      A
 Frequencies --   1565.9888              2995.5907              3004.2184
 Red. masses --      1.1070                 1.0625                 1.0689
 Frc consts  --      1.5995                 5.6176                 5.6842
 IR Inten    --      4.6484                97.0240                 9.8769

                     82                     83                     84
                      A                      A                      A
 Frequencies --   3020.7029              3024.3051              3029.2920
 Red. masses --      1.0626                 1.0760                 1.0686
 Frc consts  --      5.7129                 5.7984                 5.7778
 IR Inten    --     48.3159                14.0481                14.3509

                     85                     86                     87
                      A                      A                      A
 Frequencies --   3032.8452              3038.2590              3043.9473
 Red. masses --      1.0966                 1.0367                 1.0730
 Frc consts  --      5.9427                 5.6383                 5.8578
 IR Inten    --     67.5746                20.4757                76.2297

                     88                     89                     90
                      A                      A                      A
 Frequencies --   3045.5366              3051.6187              3054.2886
 Red. masses --      1.0370                 1.1013                 1.0645
 Frc consts  --      5.6671                 6.0426                 5.8510
 IR Inten    --     19.5949                28.0296                17.6878

                     91                     92                     93
                      A                      A                      A
 Frequencies --   3066.8661              3084.2850              3087.4587
 Red. masses --      1.0652                 1.0940                 1.0954
 Frc consts  --      5.9030                 6.1316                 6.1523
 IR Inten    --     53.5127                21.6925                67.8473

                     94                     95                     96
                      A                      A                      A
 Frequencies --   3089.4219              3094.9623              3099.6992
 Red. masses --      1.0593                 1.0991                 1.1008
 Frc consts  --      5.9568                 6.2031                 6.2313
 IR Inten    --     35.0420                20.4763                17.9746

                     97                     98                     99
                      A                      A                      A
 Frequencies --   3102.1888              3110.2808              3114.6775
 Red. masses --      1.0966                 1.0998                 1.1049
 Frc consts  --      6.2175                 6.2683                 6.3154
 IR Inten    --     15.5733                57.3048                94.5910

                    100                    101                    102
                      A                      A                      A
 Frequencies --   3122.5735              3127.9716              3142.7612
 Red. masses --      1.1027                 1.1019                 1.1096
 Frc consts  --      6.3349                 6.3520                 6.4570
 IR Inten    --     27.6860                25.6879                35.1216

 - Thermochemistry -
 -------------------
 Temperature   298.150 Kelvin.  Pressure   1.00000 Atm.
 Atom     1 has atomic number  6 and mass  12.00000

 Molecular mass:   181.18305 amu.
 Principal axes and moments of inertia in atomic units:
                           1         2         3
     Eigenvalues --  1143.085594409.431614578.62698
           X            0.99998   0.00572   0.00136
           Y           -0.00572   0.99997   0.00525
           Z           -0.00133  -0.00526   0.99999
 This molecule is an asymmetric top.
 Rotational symmetry number  1.
 Warning -- assumption of classical behavior for rotation
           may cause significant error
 Rotational temperatures (Kelvin)      0.07577     0.01964     0.01892
 Rotational constants (GHZ):           1.57883     0.40929     0.39417
    1 imaginary frequencies ignored.
 Zero-point vibrational energy     881196.7 (Joules/Mol)
                                  210.61107 (Kcal/Mol)
 Warning -- explicit consideration of  18 degrees of freedom as
           vibrations may cause significant error
 Vibrational temperatures:     57.81    93.33   117.33   166.44   212.19
          (Kelvin)            250.68   284.52   317.77   376.31   394.07
                              460.64   484.34   517.90   598.39   627.20
                              640.53   730.72   791.07   907.12   926.99
                              981.47  1092.69  1141.62  1193.31  1198.84
                             1274.50  1289.18  1309.90  1318.80  1330.62
                             1367.35  1374.77  1412.62  1427.55  1430.15
                             1440.43  1456.37  1498.43  1528.49  1548.29
                             1608.24  1657.36  1667.04  1710.31  1723.22
                             1748.89  1758.15  1787.18  1797.57  1816.33
                             1836.47  1843.07  1853.71  1878.08  1890.62
                             1919.00  1936.79  1947.12  1949.99  1965.66
                             1987.46  2015.24  2041.17  2046.56  2057.50
                             2069.27  2150.28  2167.65  2173.10  2178.90
                             2181.16  2187.28  2193.88  2196.80  2204.46
                             2213.83  2229.79  2253.11  4309.99  4322.40
                             4346.12  4351.30  4358.48  4363.59  4371.38
                             4379.56  4381.85  4390.60  4394.44  4412.54
                             4437.60  4442.16  4444.99  4452.96  4459.78
                             4463.36  4475.00  4481.33  4492.69  4500.45
                             4521.73

 Zero-point correction=                           0.335630 (Hartree/Particle)
 Thermal correction to Energy=                    0.348941
 Thermal correction to Enthalpy=                  0.349885
 Thermal correction to Gibbs Free Energy=         0.295799
 Sum of electronic and zero-point Energies=           -525.576240
 Sum of electronic and thermal Energies=              -525.562930
 Sum of electronic and thermal Enthalpies=            -525.561986
 Sum of electronic and thermal Free Energies=         -525.616072

                     E (Thermal)             CV                S
                      KCal/Mol        Cal/Mol-Kelvin    Cal/Mol-Kelvin
 Total                  218.964             52.480            113.834
 Electronic               0.000              0.000              0.000
 Translational            0.889              2.981             41.490
 Rotational               0.889              2.981             31.512
 Vibrational            217.186             46.518             40.832
 Vibration     1          0.594              1.981              5.250
 Vibration     2          0.597              1.971              4.303
 Vibration     3          0.600              1.962              3.853
 Vibration     4          0.608              1.936              3.171
 Vibration     5          0.617              1.905              2.705
 Vibration     6          0.627              1.874              2.389
 Vibration     7          0.637              1.843              2.154
 Vibration     8          0.648              1.809              1.952
 Vibration     9          0.669              1.743              1.651
 Vibration    10          0.676              1.722              1.572
 Vibration    11          0.706              1.635              1.309
 Vibration    12          0.717              1.602              1.228
 Vibration    13          0.734              1.555              1.122
 Vibration    14          0.779              1.436              0.906
 Vibration    15          0.796              1.392              0.840
 Vibration    16          0.805              1.372              0.810
 Vibration    17          0.863              1.233              0.639
 Vibration    18          0.905              1.140              0.545

                           ! Non-Optimized Parameters !
 Normal termination of Gaussian 16 at Mon Dec 14 16:45:18 2020.

 ----------------------------------------------------------------------
 # B3LYP/6-311++G(d,p) empiricaldispersion=gd3bj scf=xqc pop=npa geom=c
 heck
 ----------------------------------------------------------------------

 ---------------------------------------
 CID_131038600_JID_3213_Energie_neutraal
 ---------------------------------------
 Structure from the checkpoint file:  "JID_3213.chk"
 Charge =  0 Multiplicity = 1

 SCF Done:  E(RB3LYP) =  -526.052548857     A.U. after   13 cycles
 Normal termination of Gaussian 16 at Mon Dec 14 16:49:46 2020.

 ----------------------------------------------------------------------
 # B3LYP/6-311++G(d,p) empiricaldispersion=gd3bj scf=xqc pop=npa geom=c
 heck
 ----------------------------------------------------------------------

 -------------------------------------
 CID_131038600_JID_3213_Energie_kation
 -------------------------------------
 Structure from the checkpoint file:  "JID_3213.chk"
 Charge =  1 Multiplicity = 2

 SCF Done:  E(UB3LYP) =  -525.783790430     A.U. after   17 cycles
 Normal termination of Gaussian 16 at Mon Dec 14 16:57:13 2020.
 Gaussian 16:  ES64L-G16RevA.03 25-Dec-2016

 ----------------------------------------------------------------------
 # B3LYP/6-311++G(d,p) empiricaldispersion=gd3bj scf=xqc pop=npa geom=c
 heck
 ----------------------------------------------------------------------

 ------------------------------------
 CID_131038600_JID_3213_Energie_anion
 ------------------------------------
 Structure from the checkpoint file:  "JID_3213.chk"
 Charge = -1 Multiplicity = 2

                         Standard orientation:
 ---------------------------------------------------------------------
 Center     Atomic      Atomic             Coordinates (Angstroms)
 Number     Number       Type             X           Y           Z
 ---------------------------------------------------------------------
      1          6           0       -3.808475   -0.569004    0.304878
      2          6           0       -2.500531   -0.085821   -0.318359
      3          6           0       -2.502138    1.357890   -0.908748
      4          6           0       -1.236437    1.629071   -0.059367
      5          7           0       -1.531649    0.407803    0.683963
      6          6           0       -0.628935   -0.354727    1.514198
      7          6           0        0.519964   -1.169247    0.876258
      8          6           0        1.532041   -0.377610    0.048063
      9          6           0        2.231119    0.776295    0.787474
     10          6           0        3.457553    1.118179   -0.088235
     11          6           0        3.769506   -0.173164   -0.903646
     12          6           0        2.725472   -1.213913   -0.445651
     13          6           0       -1.971971   -1.117904   -1.326658
     14          1           0       -4.197582    0.181478    0.999599
     15          1           0       -3.653362   -1.501619    0.861999
     16          1           0       -4.564008   -0.764423   -0.466040
     17          1           0       -2.386905    1.431470   -1.993095
     18          1           0       -3.368175    1.944502   -0.591863
     19          1           0       -1.230009    2.542146    0.552655
     20          1           0       -0.314665    1.617657   -0.661774
     21          1           0       -0.195693    0.351593    2.236090
     22          1           0       -1.239797   -1.049985    2.107629
     23          1           0        1.057767   -1.660687    1.702514
     24          1           0        0.105549   -1.977628    0.263242
     25          1           0        1.026935    0.036226   -0.836069
     26          1           0        1.580208    1.640043    0.956448
     27          1           0        2.554219    0.418331    1.775361
     28          1           0        4.310040    1.443156    0.516811
     29          1           0        3.220520    1.946378   -0.765426
     30          1           0        4.793891   -0.526325   -0.747632
     31          1           0        3.664853    0.022182   -1.976811
     32          1           0        3.117955   -1.802465    0.395467
     33          1           0        2.451830   -1.923128   -1.234855
     34          1           0       -1.833573   -2.098732   -0.858863
     35          1           0       -2.687277   -1.240814   -2.149171
     36          1           0       -1.014197   -0.804252   -1.755197
 ---------------------------------------------------------------------

 SCF Done:  E(UB3LYP) =  -526.035498096     A.U. after   29 cycles

 The electronic state is 2-A.
 Alpha  occ. eigenvalues --  -14.18921 -10.10637 -10.08976 -10.08895 -10.06489
 Alpha  occ. eigenvalues --  -10.06440 -10.06182 -10.06118 -10.06004 -10.05917
 Alpha  occ. eigenvalues --  -10.05863 -10.05481 -10.05471  -0.83750  -0.73841
 Alpha  occ. eigenvalues --   -0.68852  -0.65471  -0.62698  -0.60641  -0.58655
 Alpha  occ. eigenvalues --   -0.56898  -0.52078  -0.51169  -0.46376  -0.45798
 Alpha  occ. eigenvalues --   -0.40954  -0.38857  -0.37799  -0.37731  -0.37138
 Alpha  occ. eigenvalues --   -0.34976  -0.33249  -0.32042  -0.31744  -0.30670
 Alpha  occ. eigenvalues --   -0.29333  -0.29208  -0.28535  -0.27297  -0.25647
 Alpha  occ. eigenvalues --   -0.25253  -0.24359  -0.23927  -0.23598  -0.22343
 Alpha  occ. eigenvalues --   -0.21852  -0.21661  -0.21479  -0.20807  -0.20356
 Alpha  occ. eigenvalues --   -0.09938   0.04594
 Alpha virt. eigenvalues --    0.06518   0.07143   0.07486   0.08321   0.08816
 Alpha virt. eigenvalues --    0.08925   0.09692   0.09889   0.10561   0.10772
 Alpha virt. eigenvalues --    0.11191   0.11735   0.11973   0.13118   0.13374

  Beta  occ. eigenvalues --  -14.18920 -10.10635 -10.08967 -10.08879 -10.06481
  Beta  occ. eigenvalues --  -10.06419 -10.06164 -10.06099 -10.05992 -10.05902
  Beta  occ. eigenvalues --  -10.05850 -10.05455 -10.05442  -0.83743  -0.73817
  Beta  occ. eigenvalues --   -0.68830  -0.65441  -0.62669  -0.60603  -0.58602
  Beta  occ. eigenvalues --   -0.56859  -0.52022  -0.51129  -0.46317  -0.45750
  Beta  occ. eigenvalues --   -0.40905  -0.38823  -0.37771  -0.37696  -0.37102
  Beta  occ. eigenvalues --   -0.34941  -0.33222  -0.32011  -0.31714  -0.30641
  Beta  occ. eigenvalues --   -0.29302  -0.29177  -0.28505  -0.27271  -0.25621
  Beta  occ. eigenvalues --   -0.25224  -0.24330  -0.23895  -0.23561  -0.22314
  Beta  occ. eigenvalues --   -0.21825  -0.21627  -0.21443  -0.20778  -0.20331
  Beta  occ. eigenvalues --   -0.09929
  Beta virt. eigenvalues --    0.06605   0.07222   0.07769   0.08031   0.08805
  Beta virt. eigenvalues --    0.09243   0.09288   0.10112   0.10213   0.10877
  Beta virt. eigenvalues --    0.11126   0.11541   0.11977   0.12251   0.13449

 Mulliken charges and spin densities:
               1          2
     1  C    0.488661  -1.022487
     2  C   -2.263915   2.270457
     3  C    1.199776  -1.499214
     4  C   -0.239905  -0.010273
     5  N    0.320410  -0.084000
     6  C   -0.528179  -0.142091
     7  C    0.162969  -0.047735
     8  C   -0.439604   1.043491
     9  C   -0.364407  -0.026471
    10  C    0.708866  -1.256778
    11  C   -0.316126   0.012283
    12  C    0.709119  -1.304019
    13  C    1.325163  -1.951365
    14  H   -0.105134   0.252924
    15  H   -0.044379   0.182243
    16  H   -0.181743   0.313656
    17  H   -0.372330   0.534472
    18  H    0.079414   0.074237
    19  H   -0.341589   0.491046
    20  H    0.087954   0.017555
    21  H    0.185197  -0.020096
    22  H   -0.333431   0.503340
    23  H   -0.070968   0.210385
    24  H    0.191251  -0.057871
    25  H    0.743289  -0.695367
    26  H    0.062132   0.090296
    27  H   -0.090398   0.236691
    28  H   -0.101338   0.236861
    29  H   -0.218443   0.359315
    30  H   -0.121970   0.265536
    31  H   -0.182364   0.330975
    32  H   -0.021018   0.143025
    33  H   -0.141734   0.292183
    34  H   -0.116675   0.265020
    35  H   -0.032673   0.182143
    36  H   -0.635875   0.809634
 Sum of Mulliken charges =  -1.00000   1.00000

 Dipole moment (field-independent basis, Debye):
    X=              0.1550    Y=              0.0633    Z=              2.2610  Tot=              2.2671
 Quadrupole moment (field-independent basis, Debye-Ang):
   XX=           -161.3996   YY=           -125.3133   ZZ=           -126.3049
   XY=             -2.6382   XZ=              1.5240   YZ=             -0.0894

 Summary of Natural Population Analysis:

                                       Natural Population
                Natural  -----------------------------------------------
    Atom  No    Charge         Core      Valence    Rydberg      Total
 -----------------------------------------------------------------------
      C    1   -0.28857      0.99961     2.28233    0.00662     3.28857
      C    2    0.07337      0.99960     1.91255    0.01448     2.92663
      C    3   -0.18606      0.99957     2.17842    0.00808     3.18606
      C    4   -0.07374      0.99963     2.06383    0.01028     3.07374
      N    5   -0.29118      0.99968     2.77743    0.01407     3.79118
      C    6   -0.08014      0.99960     2.06858    0.01196     3.08014
      C    7   -0.19372      0.99960     2.18549    0.00863     3.19372
      C    8   -0.11606      0.99959     2.10626    0.01021     3.11606
      C    9   -0.19230      0.99962     2.18377    0.00891     3.19230
      C   10   -0.19034      0.99965     2.18405    0.00664     3.19034
      C   11   -0.19068      0.99965     2.18437    0.00666     3.19068
      C   12   -0.18620      0.99962     2.17787    0.00870     3.18620
      C   13   -0.29564      0.99961     2.28893    0.00709     3.29564
      H   14    0.10170      0.00000     0.39679    0.00151     0.39830
      H   15    0.09936      0.00000     0.39952    0.00113     0.40064
      H   16    0.09850      0.00000     0.40058    0.00092     0.40150
      H   17    0.09828      0.00000     0.40063    0.00109     0.40172
      H   18    0.09783      0.00000     0.40104    0.00113     0.40217
      H   19    0.08551      0.00000     0.41303    0.00146     0.41449
      H   20    0.08199      0.00000     0.41585    0.00216     0.41801
      H   21    0.09307      0.00000     0.40574    0.00119     0.40693
      H   22    0.09454      0.00000     0.40447    0.00099     0.40546
      H   23    0.09326      0.00000     0.40540    0.00135     0.40674
      H   24    0.09793      0.00000     0.40040    0.00167     0.40207
      H   25    0.09507      0.00000     0.40217    0.00277     0.40493
      H   26    0.10132      0.00000     0.39754    0.00114     0.39868
      H   27    0.09237      0.00000     0.40629    0.00134     0.40763
      H   28    0.09623      0.00000     0.40259    0.00119     0.40377
      H   29    0.09666      0.00000     0.40187    0.00147     0.40334
      H   30    0.09619      0.00000     0.40257    0.00124     0.40381
      H   31    0.09663      0.00000     0.40181    0.00156     0.40337
      H   32    0.09172      0.00000     0.40690    0.00138     0.40828
      H   33    0.10109      0.00000     0.39784    0.00107     0.39891
      H   34    0.09906      0.00000     0.39960    0.00134     0.40094
      H   35    0.10087      0.00000     0.39803    0.00109     0.39913
      H   36    0.10208      0.00000     0.39618    0.00173     0.39792
 =======================================================================
   * Total *   -0.00000     12.99502    37.85073    0.15425    51.00000

 Normal termination of Gaussian 16 at Mon Dec 14 17:10:29 2020.
