 Gaussian 16, Revision A.03,

 -----------------------------------------------------------
 # opt freq B3LYP/6-31G(d) empiricaldispersion=gd3bj scf=xqc
 -----------------------------------------------------------

 ------------------------------
 CID_61482886_JID_5539_neutraal
 ------------------------------
 Symbolic Z-matrix:
 Charge =  0 Multiplicity = 1

 SCF Done:  E(RB3LYP) =  -677.555092686     A.U. after   13 cycles
 SCF Done:  E(RB3LYP) =  -677.559756546     A.U. after   11 cycles
 SCF Done:  E(RB3LYP) =  -677.560725812     A.U. after   11 cycles
 SCF Done:  E(RB3LYP) =  -677.561415227     A.U. after   11 cycles
 SCF Done:  E(RB3LYP) =  -677.561801848     A.U. after   10 cycles
 SCF Done:  E(RB3LYP) =  -677.562012057     A.U. after   10 cycles
 SCF Done:  E(RB3LYP) =  -677.562153908     A.U. after   10 cycles
 SCF Done:  E(RB3LYP) =  -677.562315692     A.U. after   10 cycles
 SCF Done:  E(RB3LYP) =  -677.562765827     A.U. after   13 cycles
 SCF Done:  E(RB3LYP) =  -677.562705154     A.U. after   11 cycles
 SCF Done:  E(RB3LYP) =  -677.569988489     A.U. after    6 cycles
 SCF Done:  E(RB3LYP) =  -677.569988519     A.U. after    6 cycles
 SCF Done:  E(RB3LYP) =  -677.569988544     A.U. after    6 cycles
 SCF Done:  E(RB3LYP) =  -677.569988575     A.U. after    6 cycles
 SCF Done:  E(RB3LYP) =  -677.569988600     A.U. after    6 cycles
 SCF Done:  E(RB3LYP) =  -677.569988615     A.U. after    6 cycles
 Optimization completed.
    -- Stationary point found.
 Normal termination of Gaussian 16 at Thu Dec 10 17:29:22 2020.

 --------------------------------------------------------------------
 #N Geom=AllCheck Guess=TCheck SCRF=Check GenChk RB3LYP/6-31G(d) Freq
 --------------------------------------------------------------------

 Structure from the checkpoint file:  "JID_5539.chk"
 ------------------------------
 CID_61482886_JID_5539_neutraal
 ------------------------------
 Charge =  0 Multiplicity = 1

 SCF Done:  E(RB3LYP) =  -677.569988615     A.U. after    1 cycles

  Exact polarizability: 149.906  -1.821 140.473  -1.753   0.843 123.704
 Approx polarizability: 187.432   1.496 187.141  -1.776   3.438 183.581

                      1                      2                      3
                      A                      A                      A
 Frequencies --     16.1475                16.8316                33.6421
 Red. masses --      3.4948                 3.3619                 3.1019
 Frc consts  --      0.0005                 0.0006                 0.0021
 IR Inten    --      0.5171                 0.1335                 0.0178

                      4                      5                      6
                      A                      A                      A
 Frequencies --     42.8662                55.5828                84.9027
 Red. masses --      2.2090                 3.1335                 3.1286
 Frc consts  --      0.0024                 0.0057                 0.0133
 IR Inten    --      0.1756                 0.0381                 0.2809

                      7                      8                      9
                      A                      A                      A
 Frequencies --    104.3183               109.0496               165.4932
 Red. masses --      3.0612                 3.1146                 2.4971
 Frc consts  --      0.0196                 0.0218                 0.0403
 IR Inten    --      0.8990                 3.1535                 4.6003

                     10                     11                     12
                      A                      A                      A
 Frequencies --    184.1905               215.4912               227.3377
 Red. masses --      1.9438                 1.7959                 1.2598
 Frc consts  --      0.0389                 0.0491                 0.0384
 IR Inten    --      3.8304                 0.4219                 1.5052

                     13                     14                     15
                      A                      A                      A
 Frequencies --    235.6450               268.0038               273.8271
 Red. masses --      2.2562                 2.9136                 2.6714
 Frc consts  --      0.0738                 0.1233                 0.1180
 IR Inten    --      0.6939                 2.7237                 4.3906

                     16                     17                     18
                      A                      A                      A
 Frequencies --    280.0408               290.6327               370.7925
 Red. masses --      1.9463                 1.7558                 2.5951
 Frc consts  --      0.0899                 0.0874                 0.2102
 IR Inten    --      0.3408                 0.5332                 1.2990

                     19                     20                     21
                      A                      A                      A
 Frequencies --    391.4031               397.8300               467.1982
 Red. masses --      2.3011                 2.6465                 2.3336
 Frc consts  --      0.2077                 0.2468                 0.3001
 IR Inten    --      2.3602                 0.4797                11.8703

                     22                     23                     24
                      A                      A                      A
 Frequencies --    525.3523               557.0111               622.4133
 Red. masses --      2.4257                 2.6180                 2.9950
 Frc consts  --      0.3945                 0.4786                 0.6836
 IR Inten    --      2.0559                 4.7160                 2.9026

                     25                     26                     27
                      A                      A                      A
 Frequencies --    681.6837               746.8839               753.0635
 Red. masses --      2.9426                 1.6262                 1.7919
 Frc consts  --      0.8057                 0.5345                 0.5987
 IR Inten    --      3.0512                 4.9009                 9.6279

                     28                     29                     30
                      A                      A                      A
 Frequencies --    786.8937               795.1059               814.2619
 Red. masses --      2.8252                 1.4752                 1.5324
 Frc consts  --      1.0307                 0.5495                 0.5986
 IR Inten    --      1.1645                61.4496                 5.7330

                     31                     32                     33
                      A                      A                      A
 Frequencies --    832.9009               856.3825               883.7117
 Red. masses --      2.2753                 1.7386                 1.5865
 Frc consts  --      0.9300                 0.7512                 0.7300
 IR Inten    --      5.5719                 9.2232                 2.9203

                     34                     35                     36
                      A                      A                      A
 Frequencies --    918.2830               930.4775               935.3192
 Red. masses --      2.9481                 2.0330                 2.0816
 Frc consts  --      1.4647                 1.0370                 1.0729
 IR Inten    --      0.8187                26.0692                 2.2714

                     37                     38                     39
                      A                      A                      A
 Frequencies --    940.9244               951.6106               980.9110
 Red. masses --      1.6680                 2.3441                 1.8611
 Frc consts  --      0.8701                 1.2507                 1.0551
 IR Inten    --      2.1969                10.0029                 3.6169

                     40                     41                     42
                      A                      A                      A
 Frequencies --   1000.1880              1007.8360              1032.3312
 Red. masses --      1.5563                 1.8870                 2.1742
 Frc consts  --      0.9173                 1.1293                 1.3652
 IR Inten    --      5.7048                 6.8996                23.1867

                     43                     44                     45
                      A                      A                      A
 Frequencies --   1048.5362              1062.1795              1092.3212
 Red. masses --      2.0243                 2.3523                 1.8750
 Frc consts  --      1.3113                 1.5637                 1.3181
 IR Inten    --     36.1627                14.7456                 3.5849

                     46                     47                     48
                      A                      A                      A
 Frequencies --   1097.7521              1104.2462              1134.0911
 Red. masses --      1.8564                 2.9803                 2.4935
 Frc consts  --      1.3181                 2.1411                 1.8895
 IR Inten    --     12.2457                69.7992                25.1481

                     49                     50                     51
                      A                      A                      A
 Frequencies --   1142.5973              1157.1473              1167.7463
 Red. masses --      2.3302                 2.3222                 2.5410
 Frc consts  --      1.7923                 1.8320                 2.0415
 IR Inten    --     24.5870                19.5325                53.8036

                     52                     53                     54
                      A                      A                      A
 Frequencies --   1173.7341              1185.6908              1196.2397
 Red. masses --      3.0122                 2.2452                 2.2911
 Frc consts  --      2.4450                 1.8597                 1.9317
 IR Inten    --     80.8606                 5.7274                39.1344

                     55                     56                     57
                      A                      A                      A
 Frequencies --   1232.9720              1260.0654              1263.0417
 Red. masses --      1.3743                 1.1218                 1.1868
 Frc consts  --      1.2309                 1.0495                 1.1155
 IR Inten    --      3.6988                 0.6588                 2.0886

                     58                     59                     60
                      A                      A                      A
 Frequencies --   1275.1864              1277.3563              1286.6146
 Red. masses --      1.1935                 1.1777                 1.2488
 Frc consts  --      1.1435                 1.1321                 1.2179
 IR Inten    --      9.1255                 7.8284                 2.8338

                     61                     62                     63
                      A                      A                      A
 Frequencies --   1295.0468              1303.9968              1329.6078
 Red. masses --      1.2717                 1.2345                 1.2642
 Frc consts  --      1.2566                 1.2368                 1.3168
 IR Inten    --      9.4617                 4.1864                 2.0695

                     64                     65                     66
                      A                      A                      A
 Frequencies --   1336.3233              1344.7223              1372.3693
 Red. masses --      1.1189                 1.4246                 1.2230
 Frc consts  --      1.1772                 1.5177                 1.3571
 IR Inten    --      1.4028                 4.5135                 9.6814

                     67                     68                     69
                      A                      A                      A
 Frequencies --   1384.0030              1387.8918              1396.0369
 Red. masses --      1.3587                 1.4270                 1.3250
 Frc consts  --      1.5334                 1.6195                 1.5215
 IR Inten    --     25.2169                15.5980                16.4944

                     70                     71                     72
                      A                      A                      A
 Frequencies --   1407.0509              1410.7918              1414.3359
 Red. masses --      1.4542                 1.3482                 1.3049
 Frc consts  --      1.6962                 1.5810                 1.5379
 IR Inten    --      8.9111                10.7743                 6.7729

                     73                     74                     75
                      A                      A                      A
 Frequencies --   1431.1550              1435.3585              1442.5561
 Red. masses --      1.3408                 1.2679                 1.2711
 Frc consts  --      1.6180                 1.5391                 1.5585
 IR Inten    --     13.6733                 8.3415                 5.5293

                     76                     77                     78
                      A                      A                      A
 Frequencies --   1459.9178              1503.6465              1506.5441
 Red. masses --      1.4563                 1.0825                 1.0860
 Frc consts  --      1.8288                 1.4420                 1.4522
 IR Inten    --      3.7735                 1.1803                 3.4015

                     79                     80                     81
                      A                      A                      A
 Frequencies --   1519.6105              1523.9063              1525.4182
 Red. masses --      1.0704                 1.0760                 1.0539
 Frc consts  --      1.4564                 1.4722                 1.4449
 IR Inten    --      0.7579                 6.8867                 2.4576

                     82                     83                     84
                      A                      A                      A
 Frequencies --   1526.4914              1530.8368              1534.4652
 Red. masses --      1.0640                 1.0554                 1.0721
 Frc consts  --      1.4608                 1.4572                 1.4872
 IR Inten    --      7.1045                 4.0931                 8.5488

                     85                     86                     87
                      A                      A                      A
 Frequencies --   1539.3190              1544.7951              1550.6707
 Red. masses --      1.1061                 1.0750                 1.1339
 Frc consts  --      1.5442                 1.5115                 1.6064
 IR Inten    --      9.4058                 7.8536                10.7212

                     88                     89                     90
                      A                      A                      A
 Frequencies --   1562.1402              1565.2702              2924.6861
 Red. masses --      1.1198                 1.1024                 1.0800
 Frc consts  --      1.6100                 1.5913                 5.4429
 IR Inten    --      5.1872                 5.8990                50.5233

                     91                     92                     93
                      A                      A                      A
 Frequencies --   2981.7745              2992.8127              3011.4652
 Red. masses --      1.0552                 1.0563                 1.1035
 Frc consts  --      5.5273                 5.5743                 5.8962
 IR Inten    --     10.2820                94.3320                60.3124

                     94                     95                     96
                      A                      A                      A
 Frequencies --   3016.2700              3037.7061              3044.7825
 Red. masses --      1.1051                 1.0636                 1.0385
 Frc consts  --      5.9235                 5.7823                 5.6724
 IR Inten    --     28.3789                36.7522                30.2445

                     97                     98                     99
                      A                      A                      A
 Frequencies --   3049.2706              3051.5566              3054.2387
 Red. masses --      1.0640                 1.0625                 1.0422
 Frc consts  --      5.8288                 5.8293                 5.7279
 IR Inten    --     26.1228                44.4308                18.1094

                    100                    101                    102
                      A                      A                      A
 Frequencies --   3060.4036              3066.2629              3070.4606
 Red. masses --      1.0634                 1.0800                 1.0610
 Frc consts  --      5.8679                 5.9824                 5.8935
 IR Inten    --     62.2454                33.0043                42.3908

                    103                    104                    105
                      A                      A                      A
 Frequencies --   3075.4675              3085.5838              3089.0777
 Red. masses --      1.1012                 1.0646                 1.0991
 Frc consts  --      6.1369                 5.9717                 6.1794
 IR Inten    --     34.8132                21.7061                34.5906

                    106                    107                    108
                      A                      A                      A
 Frequencies --   3097.7176              3105.3554              3111.5126
 Red. masses --      1.1041                 1.1031                 1.1007
 Frc consts  --      6.2423                 6.2676                 6.2789
 IR Inten    --     10.5684                40.9071                55.2194

                    109                    110                    111
                      A                      A                      A
 Frequencies --   3113.8698              3115.9060              3120.2035
 Red. masses --      1.1063                 1.1007                 1.1024
 Frc consts  --      6.3201                 6.2964                 6.3234
 IR Inten    --     26.7926                30.3865                50.5672

                    112                    113                    114
                      A                      A                      A
 Frequencies --   3129.7627              3152.4643              3529.7974
 Red. masses --      1.1064                 1.1008                 1.0722
 Frc consts  --      6.3856                 6.4457                 7.8711
 IR Inten    --     66.3775                15.9868                 1.1151

 - Thermochemistry -
 -------------------
 Temperature   298.150 Kelvin.  Pressure   1.00000 Atm.
 Atom     1 has atomic number  6 and mass  12.00000

 Molecular mass:   215.18853 amu.
 Principal axes and moments of inertia in atomic units:
                           1         2         3
     Eigenvalues --  2103.900275446.428676564.60724
           X            0.99988  -0.01481  -0.00326
           Y            0.01483   0.99986   0.00730
           Z            0.00316  -0.00734   0.99997
 This molecule is an asymmetric top.
 Rotational symmetry number  1.
 Warning -- assumption of classical behavior for rotation
           may cause significant error
 Rotational temperatures (Kelvin)      0.04117     0.01590     0.01319
 Rotational constants (GHZ):           0.85781     0.33136     0.27492
 Zero-point vibrational energy     969662.9 (Joules/Mol)
                                  231.75499 (Kcal/Mol)
 Warning -- explicit consideration of  23 degrees of freedom as
           vibrations may cause significant error
 Vibrational temperatures:     23.23    24.22    48.40    61.67    79.97
          (Kelvin)            122.16   150.09   156.90   238.11   265.01
                              310.04   327.09   339.04   385.60   393.98
                              402.92   418.16   533.49   563.14   572.39
                              672.19   755.86   801.41   895.51   980.79
                             1074.60  1083.49  1132.16  1143.98  1171.54
                             1198.36  1232.14  1271.46  1321.20  1338.75
                             1345.72  1353.78  1369.16  1411.31  1439.05
                             1450.05  1485.29  1508.61  1528.24  1571.61
                             1579.42  1588.76  1631.70  1643.94  1664.88
                             1680.13  1688.74  1705.94  1721.12  1773.97
                             1812.95  1817.24  1834.71  1837.83  1851.15
                             1863.28  1876.16  1913.01  1922.67  1934.76
                             1974.53  1991.27  1996.87  2008.59  2024.43
                             2029.81  2034.91  2059.11  2065.16  2075.52
                             2100.50  2163.41  2167.58  2186.38  2192.56
                             2194.74  2196.28  2202.53  2207.75  2214.74
                             2222.62  2231.07  2247.57  2252.07  4207.97
                             4290.11  4305.99  4332.83  4339.74  4370.58
                             4380.76  4387.22  4390.51  4394.37  4403.24
                             4411.67  4417.71  4424.91  4439.47  4444.49
                             4456.92  4467.91  4476.77  4480.16  4483.09
                             4489.28  4503.03  4535.69  5078.59

 Zero-point correction=                           0.369325 (Hartree/Particle)
 Thermal correction to Energy=                    0.386687
 Thermal correction to Enthalpy=                  0.387631
 Thermal correction to Gibbs Free Energy=         0.320760
 Sum of electronic and zero-point Energies=           -677.200664
 Sum of electronic and thermal Energies=              -677.183301
 Sum of electronic and thermal Enthalpies=            -677.182357
 Sum of electronic and thermal Free Energies=         -677.249229

                     E (Thermal)             CV                S
                      KCal/Mol        Cal/Mol-Kelvin    Cal/Mol-Kelvin
 Total                  242.650             63.345            140.744
 Electronic               0.000              0.000              0.000
 Translational            0.889              2.981             42.002
 Rotational               0.889              2.981             32.686
 Vibrational            240.872             57.384             66.055
 Vibration     1          0.593              1.986              7.059
 Vibration     2          0.593              1.986              6.977
 Vibration     3          0.594              1.983              5.602
 Vibration     4          0.595              1.980              5.122
 Vibration     5          0.596              1.975              4.608
 Vibration     6          0.601              1.960              3.774
 Vibration     7          0.605              1.946              3.372
 Vibration     8          0.606              1.942              3.286
 Vibration     9          0.624              1.885              2.486
 Vibration    10          0.631              1.861              2.286
 Vibration    11          0.645              1.817              1.997
 Vibration    12          0.651              1.799              1.900
 Vibration    13          0.655              1.786              1.836
 Vibration    14          0.673              1.732              1.609
 Vibration    15          0.676              1.722              1.572
 Vibration    16          0.680              1.711              1.533
 Vibration    17          0.687              1.691              1.470
 Vibration    18          0.743              1.532              1.077
 Vibration    19          0.759              1.489              0.995
 Vibration    20          0.764              1.475              0.971
 Vibration    21          0.824              1.323              0.745
 Vibration    22          0.880              1.194              0.598
 Vibration    23          0.913              1.124              0.530

 Optimization completed.
    -- Stationary point found.
 Normal termination of Gaussian 16 at Thu Dec 10 17:44:12 2020.

 ----------------------------------------------------------------------
 # B3LYP/6-311++G(d,p) empiricaldispersion=gd3bj scf=xqc pop=npa geom=c
 heck
 ----------------------------------------------------------------------

 --------------------------------------
 CID_61482886_JID_5539_Energie_neutraal
 --------------------------------------
 Structure from the checkpoint file:  "JID_5539.chk"
 Charge =  0 Multiplicity = 1

 SCF Done:  E(RB3LYP) =  -677.766137587     A.U. after   13 cycles
 Normal termination of Gaussian 16 at Thu Dec 10 17:50:13 2020.

 ----------------------------------------------------------------------
 # B3LYP/6-311++G(d,p) empiricaldispersion=gd3bj scf=xqc pop=npa geom=c
 heck
 ----------------------------------------------------------------------

 ------------------------------------
 CID_61482886_JID_5539_Energie_kation
 ------------------------------------
 Structure from the checkpoint file:  "JID_5539.chk"
 Charge =  1 Multiplicity = 2

 SCF Done:  E(UB3LYP) =  -677.468101575     A.U. after   20 cycles
 Normal termination of Gaussian 16 at Thu Dec 10 18:03:19 2020.
 Gaussian 16:  ES64L-G16RevA.03 25-Dec-2016

 ----------------------------------------------------------------------
 # B3LYP/6-311++G(d,p) empiricaldispersion=gd3bj scf=xqc pop=npa geom=c
 heck
 ----------------------------------------------------------------------

 -----------------------------------
 CID_61482886_JID_5539_Energie_anion
 -----------------------------------
 Structure from the checkpoint file:  "JID_5539.chk"
 Charge = -1 Multiplicity = 2

                         Standard orientation:
 ---------------------------------------------------------------------
 Center     Atomic      Atomic             Coordinates (Angstroms)
 Number     Number       Type             X           Y           Z
 ---------------------------------------------------------------------
      1          6           0        4.560706   -0.494549   -1.049858
      2          6           0        3.467386   -1.289458   -0.331205
      3          6           0        3.101145   -0.736493    1.053727
      4          6           0        2.619025    0.709173    1.036092
      5          8           0        1.549865    0.817347    0.112525
      6          6           0        0.937178    2.095441    0.083992
      7          6           0       -0.174413    2.036059   -0.967929
      8          7           0       -1.088752    0.907813   -0.807756
      9          6           0       -1.963398    0.973836    0.373156
     10          6           0       -3.171543    1.863719    0.078658
     11          6           0       -2.420066   -0.430757    0.816717
     12          6           0       -1.257474   -1.431284    1.026412
     13          6           0       -1.305803   -2.347846   -0.223564
     14          6           0       -2.518238   -1.825728   -1.027114
     15          8           0       -3.301326   -1.061034   -0.111605
     16          1           0        4.223403    0.520272   -1.287019
     17          1           0        4.840590   -0.976278   -1.993100
     18          1           0        5.466095   -0.413594   -0.435068
     19          1           0        2.564757   -1.307611   -0.952490
     20          1           0        3.788678   -2.332318   -0.213641
     21          1           0        2.316704   -1.363002    1.497257
     22          1           0        3.970273   -0.793707    1.723625
     23          1           0        2.283299    1.012219    2.041567
     24          1           0        3.432941    1.393012    0.745690
     25          1           0        0.538489    2.340076    1.081555
     26          1           0        1.671776    2.874903   -0.177605
     27          1           0       -0.736164    2.976357   -0.957208
     28          1           0        0.290876    1.949719   -1.957163
     29          1           0       -0.495314    0.085547   -0.739136
     30          1           0       -1.430385    1.385113    1.252370
     31          1           0       -3.771942    1.410885   -0.714038
     32          1           0       -3.796094    1.977645    0.972487
     33          1           0       -2.863582    2.864131   -0.243123
     34          1           0       -3.002151   -0.294969    1.735188
     35          1           0       -0.295433   -0.921229    1.134747
     36          1           0       -1.425420   -2.013747    1.936299
     37          1           0       -0.382911   -2.297156   -0.811189
     38          1           0       -1.447636   -3.392418    0.067875
     39          1           0       -2.196990   -1.195354   -1.864960
     40          1           0       -3.157938   -2.626379   -1.410497
 ---------------------------------------------------------------------

 SCF Done:  E(UB3LYP) =  -677.752764459     A.U. after   27 cycles

 The electronic state is 2-A.
 Alpha  occ. eigenvalues --  -19.03109 -19.02497 -14.19854 -10.12278 -10.11869
 Alpha  occ. eigenvalues --  -10.11716 -10.11599 -10.10131 -10.09949 -10.07839
 Alpha  occ. eigenvalues --  -10.07340 -10.06805 -10.06607 -10.06090 -10.05915
 Alpha  occ. eigenvalues --   -0.94574  -0.94385  -0.81301  -0.70316  -0.68727
 Alpha  occ. eigenvalues --   -0.67854  -0.64195  -0.62232  -0.60450  -0.54793
 Alpha  occ. eigenvalues --   -0.53556  -0.50417  -0.50060  -0.47321  -0.46225
 Alpha  occ. eigenvalues --   -0.41741  -0.40992  -0.39935  -0.39362  -0.38509
 Alpha  occ. eigenvalues --   -0.36736  -0.36070  -0.34430  -0.33575  -0.33084
 Alpha  occ. eigenvalues --   -0.31404  -0.30944  -0.30478  -0.29952  -0.28995
 Alpha  occ. eigenvalues --   -0.28477  -0.27660  -0.26689  -0.26154  -0.26119
 Alpha  occ. eigenvalues --   -0.25170  -0.24186  -0.23393  -0.23178  -0.22772
 Alpha  occ. eigenvalues --   -0.22138  -0.21900  -0.16999  -0.16150  -0.13325
 Alpha  occ. eigenvalues --    0.04219
 Alpha virt. eigenvalues --    0.06259   0.06469   0.07069   0.07960   0.08439
 Alpha virt. eigenvalues --    0.08587   0.09116   0.09419   0.10204   0.10506
 Alpha virt. eigenvalues --    0.10947   0.11430   0.11675   0.12205   0.12540

  Beta  occ. eigenvalues --  -19.03099 -19.02495 -14.19852 -10.12270 -10.11843
  Beta  occ. eigenvalues --  -10.11711 -10.11572 -10.10121 -10.09939 -10.07828
  Beta  occ. eigenvalues --  -10.07324 -10.06787 -10.06596 -10.06079 -10.05884
  Beta  occ. eigenvalues --   -0.94560  -0.94376  -0.81290  -0.70281  -0.68701
  Beta  occ. eigenvalues --   -0.67832  -0.64161  -0.62208  -0.60404  -0.54746
  Beta  occ. eigenvalues --   -0.53500  -0.50374  -0.50030  -0.47269  -0.46186
  Beta  occ. eigenvalues --   -0.41709  -0.40959  -0.39900  -0.39318  -0.38480
  Beta  occ. eigenvalues --   -0.36707  -0.36042  -0.34408  -0.33551  -0.33063
  Beta  occ. eigenvalues --   -0.31382  -0.30919  -0.30448  -0.29911  -0.28972
  Beta  occ. eigenvalues --   -0.28452  -0.27632  -0.26658  -0.26129  -0.26098
  Beta  occ. eigenvalues --   -0.25117  -0.24167  -0.23362  -0.23149  -0.22746
  Beta  occ. eigenvalues --   -0.22118  -0.21849  -0.16977  -0.16142  -0.13314
  Beta virt. eigenvalues --    0.06254   0.06951   0.07057   0.07580   0.08381
  Beta virt. eigenvalues --    0.08840   0.08912   0.09579   0.09632   0.10551
  Beta virt. eigenvalues --    0.10834   0.11206   0.11735   0.11979   0.12489

 Mulliken charges and spin densities:
               1          2
     1  C    1.175868  -1.761576
     2  C   -0.794539   0.646788
     3  C    0.079528  -0.310140
     4  C    0.445461  -0.750109
     5  O   -0.082218   0.035487
     6  C    0.592392  -0.742108
     7  C   -0.745357   0.271340
     8  N    0.104482  -0.022032
     9  C   -0.473292   0.158893
    10  C    0.088102  -0.525257
    11  C    0.017708  -0.098090
    12  C    0.357698  -0.853429
    13  C   -0.731911   0.381440
    14  C    0.095994  -0.334447
    15  O   -0.066223  -0.012895
    16  H   -0.017920   0.165319
    17  H   -0.185654   0.321021
    18  H   -0.229059   0.360353
    19  H    0.202062  -0.080719
    20  H   -0.233301   0.383637
    21  H   -0.224685   0.380800
    22  H   -0.362001   0.529599
    23  H   -0.300247   0.440887
    24  H   -0.088930   0.258118
    25  H    0.040026   0.107140
    26  H   -0.381804   0.530808
    27  H   -0.040464   0.151187
    28  H    0.042603   0.147003
    29  H    0.605517  -0.359929
    30  H   -0.223546   0.306634
    31  H    0.159114   0.016118
    32  H   -0.022879   0.145170
    33  H    0.033481   0.087882
    34  H   -0.199080   0.455831
    35  H    0.834809  -0.681907
    36  H   -0.390732   0.571779
    37  H   -0.160820   0.269444
    38  H   -0.046695   0.212272
    39  H    0.120611   0.048186
    40  H    0.005901   0.149499
 Sum of Mulliken charges =  -1.00000   1.00000

 Dipole moment (field-independent basis, Debye):
    X=             -4.2483    Y=              0.3571    Z=             -2.8338  Tot=              5.1192
 Quadrupole moment (field-independent basis, Debye-Ang):
   XX=           -185.6347   YY=           -142.0480   ZZ=           -136.6817
   XY=             -0.4999   XZ=              2.5079   YZ=              1.4399

 Summary of Natural Population Analysis:

                                       Natural Population
                Natural  -----------------------------------------------
    Atom  No    Charge         Core      Valence    Rydberg      Total
 -----------------------------------------------------------------------
      C    1   -0.28604      0.99967     2.28188    0.00449     3.28604
      C    2   -0.19163      0.99964     2.18325    0.00874     3.19163
      C    3   -0.19656      0.99962     2.18794    0.00900     3.19656
      C    4   -0.00606      0.99958     1.99438    0.01210     3.00606
      O    5   -0.31127      0.99988     3.30173    0.00966     4.31127
      C    6   -0.01596      0.99959     2.00533    0.01104     3.01596
      C    7   -0.09368      0.99962     2.08200    0.01205     3.09368
      N    8   -0.34871      0.99974     2.83839    0.01058     3.84871
      C    9   -0.02164      0.99957     2.00890    0.01317     3.02164
      C   10   -0.28876      0.99964     2.28185    0.00727     3.28876
      C   11    0.06614      0.99953     1.91744    0.01688     2.93386
      C   12   -0.21298      0.99962     2.20383    0.00953     3.21298
      C   13   -0.20936      0.99964     2.20250    0.00721     3.20936
      C   14   -0.01425      0.99960     2.00394    0.01071     3.01425
      O   15   -0.30409      0.99989     3.29551    0.00869     4.30409
      H   16    0.09785      0.00000     0.40080    0.00134     0.40215
      H   17    0.09762      0.00000     0.40130    0.00108     0.40238
      H   18    0.09499      0.00000     0.40363    0.00138     0.40501
      H   19    0.09735      0.00000     0.40074    0.00191     0.40265
      H   20    0.09420      0.00000     0.40469    0.00111     0.40580
      H   21    0.09832      0.00000     0.39997    0.00171     0.40168
      H   22    0.09809      0.00000     0.40059    0.00132     0.40191
      H   23    0.08313      0.00000     0.41523    0.00164     0.41687
      H   24    0.07941      0.00000     0.41881    0.00178     0.42059
      H   25    0.07951      0.00000     0.41869    0.00179     0.42049
      H   26    0.08297      0.00000     0.41544    0.00159     0.41703
      H   27    0.09394      0.00000     0.40509    0.00097     0.40606
      H   28    0.09458      0.00000     0.40434    0.00108     0.40542
      H   29    0.17965      0.00000     0.31555    0.00479     0.32035
      H   30    0.08418      0.00000     0.41338    0.00245     0.41582
      H   31    0.10593      0.00000     0.39293    0.00114     0.39407
      H   32    0.09718      0.00000     0.40205    0.00077     0.40282
      H   33    0.09614      0.00000     0.40301    0.00085     0.40386
      H   34    0.09429      0.00000     0.40432    0.00139     0.40571
      H   35    0.10833      0.00000     0.38937    0.00230     0.39167
      H   36    0.10487      0.00000     0.39381    0.00131     0.39513
      H   37    0.10030      0.00000     0.39851    0.00120     0.39970
      H   38    0.10054      0.00000     0.39836    0.00110     0.39946
      H   39    0.08602      0.00000     0.41241    0.00158     0.41398
      H   40    0.08543      0.00000     0.41334    0.00124     0.41457
 =======================================================================
   * Total *   -0.00000     14.99482    44.81524    0.18994    60.00000

 Normal termination of Gaussian 16 at Thu Dec 10 18:19:13 2020.
