 Gaussian 16, Revision A.03,

 -----------------------------------------------------------
 # opt freq B3LYP/6-31G(d) empiricaldispersion=gd3bj scf=xqc
 -----------------------------------------------------------

 ------------------------------
 CID_64572290_JID_2832_neutraal
 ------------------------------
 Symbolic Z-matrix:
 Charge =  0 Multiplicity = 1

 SCF Done:  E(RB3LYP) =  -523.692834153     A.U. after   13 cycles
 SCF Done:  E(RB3LYP) =  -523.695283401     A.U. after   11 cycles
 SCF Done:  E(RB3LYP) =  -523.694711265     A.U. after   12 cycles
 SCF Done:  E(RB3LYP) =  -523.695947032     A.U. after   11 cycles
 SCF Done:  E(RB3LYP) =  -523.696324589     A.U. after   11 cycles
 SCF Done:  E(RB3LYP) =  -523.696464757     A.U. after   11 cycles
 SCF Done:  E(RB3LYP) =  -523.696478780     A.U. after   10 cycles
 SCF Done:  E(RB3LYP) =  -523.696484412     A.U. after    9 cycles
 SCF Done:  E(RB3LYP) =  -523.696487181     A.U. after    9 cycles
 SCF Done:  E(RB3LYP) =  -523.696488253     A.U. after    9 cycles
 SCF Done:  E(RB3LYP) =  -523.696488586     A.U. after    9 cycles
 SCF Done:  E(RB3LYP) =  -523.696488711     A.U. after    7 cycles
 SCF Done:  E(RB3LYP) =  -523.696488740     A.U. after    7 cycles
 Optimization completed.
    -- Stationary point found.
 Normal termination of Gaussian 16 at Wed Dec  9 18:05:59 2020.

 --------------------------------------------------------------------
 #N Geom=AllCheck Guess=TCheck SCRF=Check GenChk RB3LYP/6-31G(d) Freq
 --------------------------------------------------------------------

 Structure from the checkpoint file:  "JID_2832.chk"
 ------------------------------
 CID_64572290_JID_2832_neutraal
 ------------------------------
 Charge =  0 Multiplicity = 1

 SCF Done:  E(RB3LYP) =  -523.696488740     A.U. after    1 cycles

  Exact polarizability: 123.815   8.990 114.244  -5.261  -3.132 106.071
 Approx polarizability: 155.481  13.138 158.508 -10.511  -9.448 162.190

                      1                      2                      3
                      A                      A                      A
 Frequencies --     19.9324                52.5838                78.5400
 Red. masses --      3.1285                 3.6224                 3.3180
 Frc consts  --      0.0007                 0.0059                 0.0121
 IR Inten    --      0.1803                 0.5200                 0.2534

                      4                      5                      6
                      A                      A                      A
 Frequencies --    104.0223               111.2638               120.6008
 Red. masses --      2.2183                 2.4421                 2.1786
 Frc consts  --      0.0141                 0.0178                 0.0187
 IR Inten    --      0.3429                 0.2681                 1.2033

                      7                      8                      9
                      A                      A                      A
 Frequencies --    170.3749               224.2621               236.8244
 Red. masses --      2.1790                 1.5861                 1.1265
 Frc consts  --      0.0373                 0.0470                 0.0372
 IR Inten    --      0.3814                 0.6240                 0.0215

                     10                     11                     12
                      A                      A                      A
 Frequencies --    254.8032               277.0877               289.5307
 Red. masses --      2.9345                 3.0761                 1.0822
 Frc consts  --      0.1123                 0.1392                 0.0535
 IR Inten    --      2.8535                 3.2778                35.3910

                     13                     14                     15
                      A                      A                      A
 Frequencies --    301.3449               320.0950               336.7634
 Red. masses --      2.3075                 1.7688                 1.3634
 Frc consts  --      0.1235                 0.1068                 0.0911
 IR Inten    --      2.1962                 1.3426                 1.2525

                     16                     17                     18
                      A                      A                      A
 Frequencies --    357.7713               366.2571               393.6539
 Red. masses --      1.8507                 2.1801                 2.2090
 Frc consts  --      0.1396                 0.1723                 0.2017
 IR Inten    --      2.1865                 2.6788                 2.4188

                     19                     20                     21
                      A                      A                      A
 Frequencies --    445.6334               474.7017               501.2894
 Red. masses --      2.4725                 2.6307                 2.6255
 Frc consts  --      0.2893                 0.3493                 0.3887
 IR Inten    --      2.9901                 2.3241                 1.4404

                     22                     23                     24
                      A                      A                      A
 Frequencies --    523.2185               586.5228               688.6723
 Red. masses --      2.3667                 2.9106                 2.1487
 Frc consts  --      0.3817                 0.5899                 0.6004
 IR Inten    --      1.4424                 5.4825                 3.9927

                     25                     26                     27
                      A                      A                      A
 Frequencies --    723.0164               783.2982               807.2625
 Red. masses --      3.1299                 1.2398                 2.0467
 Frc consts  --      0.9640                 0.4482                 0.7859
 IR Inten    --      2.1508                 3.3717                13.8024

                     28                     29                     30
                      A                      A                      A
 Frequencies --    816.1343               877.0664               914.4019
 Red. masses --      1.2805                 2.1480                 2.2222
 Frc consts  --      0.5025                 0.9735                 1.0947
 IR Inten    --      1.7077                10.0010                71.2149

                     31                     32                     33
                      A                      A                      A
 Frequencies --    927.6447               944.2789               974.4138
 Red. masses --      1.7320                 1.3524                 1.4339
 Frc consts  --      0.8781                 0.7105                 0.8022
 IR Inten    --     23.5982                39.2194                78.2043

                     34                     35                     36
                      A                      A                      A
 Frequencies --    993.3857              1014.4298              1025.1182
 Red. masses --      1.8279                 1.7802                 1.7433
 Frc consts  --      1.0628                 1.0793                 1.0794
 IR Inten    --      2.3806                 4.9511                 9.2869

                     37                     38                     39
                      A                      A                      A
 Frequencies --   1043.2557              1059.2735              1064.8060
 Red. masses --      1.0799                 2.0994                 2.1053
 Frc consts  --      0.6925                 1.3879                 1.4064
 IR Inten    --     16.0060                11.4678                 1.8320

                     40                     41                     42
                      A                      A                      A
 Frequencies --   1084.8760              1086.6820              1093.0351
 Red. masses --      1.9175                 1.5500                 1.6483
 Frc consts  --      1.3297                 1.0784                 1.1603
 IR Inten    --     61.0352                 6.9332                10.7313

                     43                     44                     45
                      A                      A                      A
 Frequencies --   1134.3532              1167.1678              1195.6504
 Red. masses --      1.6622                 2.9937                 2.0840
 Frc consts  --      1.2602                 2.4028                 1.7553
 IR Inten    --      1.7590               191.9233                25.5095

                     46                     47                     48
                      A                      A                      A
 Frequencies --   1211.0775              1230.3486              1305.7956
 Red. masses --      2.5231                 2.1738                 1.3324
 Frc consts  --      2.1804                 1.9388                 1.3385
 IR Inten    --     11.3141                 9.6370                 2.5099

                     49                     50                     51
                      A                      A                      A
 Frequencies --   1316.6078              1333.4863              1348.7515
 Red. masses --      1.1714                 1.2985                 1.2101
 Frc consts  --      1.1964                 1.3604                 1.2969
 IR Inten    --      3.4213                 2.3087                 5.0121

                     52                     53                     54
                      A                      A                      A
 Frequencies --   1374.5961              1382.0035              1389.0544
 Red. masses --      1.4236                 1.3640                 1.5198
 Frc consts  --      1.5849                 1.5349                 1.7277
 IR Inten    --      7.2459                12.9269                 3.0287

                     55                     56                     57
                      A                      A                      A
 Frequencies --   1398.7399              1413.4333              1429.4900
 Red. masses --      1.2414                 1.5414                 1.3340
 Frc consts  --      1.4310                 1.8143                 1.6061
 IR Inten    --      0.2881                 0.4542                 6.3314

                     58                     59                     60
                      A                      A                      A
 Frequencies --   1432.8664              1439.5567              1446.2792
 Red. masses --      1.2992                 1.3074                 1.2702
 Frc consts  --      1.5716                 1.5963                 1.5654
 IR Inten    --      7.6195                 7.4083                 4.5732

                     61                     62                     63
                      A                      A                      A
 Frequencies --   1474.1774              1516.2402              1516.8703
 Red. masses --      1.1844                 1.0604                 1.0654
 Frc consts  --      1.5165                 1.4363                 1.4443
 IR Inten    --     11.7956                 1.0980                 1.7169

                     64                     65                     66
                      A                      A                      A
 Frequencies --   1525.0631              1531.0829              1535.1877
 Red. masses --      1.0644                 1.0468                 1.0492
 Frc consts  --      1.4585                 1.4458                 1.4569
 IR Inten    --      2.7821                10.5703                 3.4091

                     67                     68                     69
                      A                      A                      A
 Frequencies --   1535.3661              1539.9882              1542.5466
 Red. masses --      1.0607                 1.0505                 1.0585
 Frc consts  --      1.4733                 1.4678                 1.4840
 IR Inten    --      8.2870                 2.5923                 0.4353

                     70                     71                     72
                      A                      A                      A
 Frequencies --   1550.1296              1701.2311              1730.0577
 Red. masses --      1.0694                 1.0900                 4.5009
 Frc consts  --      1.5140                 1.8588                 7.9373
 IR Inten    --      0.8326                29.8856                 3.1686

                     73                     74                     75
                      A                      A                      A
 Frequencies --   2999.2047              3018.2211              3029.2045
 Red. masses --      1.0832                 1.0714                 1.0685
 Frc consts  --      5.7405                 5.7506                 5.7767
 IR Inten    --     50.5382                10.7173                89.6698

                     76                     77                     78
                      A                      A                      A
 Frequencies --   3041.1123              3052.0530              3054.0760
 Red. masses --      1.0673                 1.0377                 1.0378
 Frc consts  --      5.8159                 5.6949                 5.7032
 IR Inten    --     25.3170                22.6463                29.3883

                     79                     80                     81
                      A                      A                      A
 Frequencies --   3065.6981              3088.3304              3098.0194
 Red. masses --      1.0358                 1.0918                 1.0954
 Frc consts  --      5.7358                 6.1355                 6.1943
 IR Inten    --      6.3669                12.4798                 4.7517

                     82                     83                     84
                      A                      A                      A
 Frequencies --   3108.1253              3114.9772              3118.3156
 Red. masses --      1.0948                 1.0974                 1.0995
 Frc consts  --      6.2313                 6.2740                 6.2991
 IR Inten    --     29.0308                54.2266                49.7057

                     85                     86                     87
                      A                      A                      A
 Frequencies --   3123.9544              3135.1076              3141.5021
 Red. masses --      1.1015                 1.1010                 1.1034
 Frc consts  --      6.3337                 6.3761                 6.4159
 IR Inten    --     32.8688                22.6939                18.1622

                     88                     89                     90
                      A                      A                      A
 Frequencies --   3142.0771              3157.3815              3171.8376
 Red. masses --      1.1010                 1.0779                 1.0716
 Frc consts  --      6.4046                 6.3312                 6.3519
 IR Inten    --     21.4527                15.6023                 5.1862

                     91                     92                     93
                      A                      A                      A
 Frequencies --   3244.3126              3442.3090              3527.1202
 Red. masses --      1.1157                 1.0500                 1.0902
 Frc consts  --      6.9188                 7.3303                 7.9911
 IR Inten    --     15.3008                 4.3918                 1.7354

 - Thermochemistry -
 -------------------
 Temperature   298.150 Kelvin.  Pressure   1.00000 Atm.
 Atom     1 has atomic number  6 and mass  12.00000

 Molecular mass:   171.16231 amu.
 Principal axes and moments of inertia in atomic units:
                           1         2         3
     Eigenvalues --  1430.213453103.399593428.58490
           X            0.99999   0.00421  -0.00116
           Y           -0.00418   0.99959   0.02834
           Z            0.00128  -0.02833   0.99960
 This molecule is an asymmetric top.
 Rotational symmetry number  1.
 Warning -- assumption of classical behavior for rotation
           may cause significant error
 Rotational temperatures (Kelvin)      0.06056     0.02791     0.02526
 Rotational constants (GHZ):           1.26187     0.58154     0.52638
 Zero-point vibrational energy     795446.5 (Joules/Mol)
                                  190.11627 (Kcal/Mol)
 Warning -- explicit consideration of  23 degrees of freedom as
           vibrations may cause significant error
 Vibrational temperatures:     28.68    75.66   113.00   149.66   160.08
          (Kelvin)            173.52   245.13   322.66   340.74   366.60
                              398.67   416.57   433.57   460.55   484.53
                              514.75   526.96   566.38   641.17   682.99
                              721.24   752.79   843.88   990.85  1040.26
                             1126.99  1161.47  1174.24  1261.90  1315.62
                             1334.67  1358.61  1401.96  1429.26  1459.54
                             1474.92  1501.01  1524.06  1532.02  1560.89
                             1563.49  1572.63  1632.08  1679.29  1720.27
                             1742.47  1770.20  1878.75  1894.30  1918.59
                             1940.55  1977.74  1988.39  1998.54  2012.47
                             2033.62  2056.72  2061.58  2071.20  2080.87
                             2121.01  2181.53  2182.44  2194.23  2202.89
                             2208.79  2209.05  2215.70  2219.38  2230.29
                             2447.69  2489.17  4315.19  4342.55  4358.35
                             4375.48  4391.22  4394.13  4410.86  4443.42
                             4457.36  4471.90  4481.76  4486.56  4494.67
                             4510.72  4519.92  4520.75  4542.77  4563.57
                             4667.84  4952.71  5074.74

 Zero-point correction=                           0.302970 (Hartree/Particle)
 Thermal correction to Energy=                    0.317970
 Thermal correction to Enthalpy=                  0.318914
 Thermal correction to Gibbs Free Energy=         0.261007
 Sum of electronic and zero-point Energies=           -523.393519
 Sum of electronic and thermal Energies=              -523.378519
 Sum of electronic and thermal Enthalpies=            -523.377575
 Sum of electronic and thermal Free Energies=         -523.435482

                     E (Thermal)             CV                S
                      KCal/Mol        Cal/Mol-Kelvin    Cal/Mol-Kelvin
 Total                  199.529             56.132            121.876
 Electronic               0.000              0.000              0.000
 Translational            0.889              2.981             41.320
 Rotational               0.889              2.981             31.099
 Vibrational            197.752             50.170             49.457
 Vibration     1          0.593              1.986              6.641
 Vibration     2          0.596              1.977              4.718
 Vibration     3          0.600              1.964              3.927
 Vibration     4          0.605              1.946              3.378
 Vibration     5          0.607              1.940              3.247
 Vibration     6          0.609              1.932              3.091
 Vibration     7          0.625              1.879              2.431
 Vibration     8          0.649              1.804              1.924
 Vibration     9          0.656              1.784              1.827
 Vibration    10          0.665              1.755              1.697
 Vibration    11          0.678              1.716              1.552
 Vibration    12          0.686              1.693              1.477
 Vibration    13          0.693              1.671              1.409
 Vibration    14          0.706              1.635              1.310
 Vibration    15          0.717              1.602              1.227
 Vibration    16          0.733              1.559              1.132
 Vibration    17          0.739              1.542              1.095
 Vibration    18          0.761              1.484              0.986
 Vibration    19          0.805              1.371              0.809
 Vibration    20          0.831              1.306              0.724
 Vibration    21          0.857              1.247              0.655
 Vibration    22          0.878              1.199              0.603
 Vibration    23          0.944              1.061              0.473

 Optimization completed.
    -- Stationary point found.
 Normal termination of Gaussian 16 at Wed Dec  9 18:14:55 2020.

 ----------------------------------------------------------------------
 # B3LYP/6-311++G(d,p) empiricaldispersion=gd3bj scf=xqc pop=npa geom=c
 heck
 ----------------------------------------------------------------------

 --------------------------------------
 CID_64572290_JID_2832_Energie_neutraal
 --------------------------------------
 Structure from the checkpoint file:  "JID_2832.chk"
 Charge =  0 Multiplicity = 1

 SCF Done:  E(RB3LYP) =  -523.855211544     A.U. after   13 cycles
 Normal termination of Gaussian 16 at Wed Dec  9 18:18:47 2020.

 ----------------------------------------------------------------------
 # B3LYP/6-311++G(d,p) empiricaldispersion=gd3bj scf=xqc pop=npa geom=c
 heck
 ----------------------------------------------------------------------

 ------------------------------------
 CID_64572290_JID_2832_Energie_kation
 ------------------------------------
 Structure from the checkpoint file:  "JID_2832.chk"
 Charge =  1 Multiplicity = 2

 SCF Done:  E(UB3LYP) =  -523.546574113     A.U. after   26 cycles
 Normal termination of Gaussian 16 at Wed Dec  9 18:28:04 2020.
 Gaussian 16:  ES64L-G16RevA.03 25-Dec-2016

 ----------------------------------------------------------------------
 # B3LYP/6-311++G(d,p) empiricaldispersion=gd3bj scf=xqc pop=npa geom=c
 heck
 ----------------------------------------------------------------------

 -----------------------------------
 CID_64572290_JID_2832_Energie_anion
 -----------------------------------
 Structure from the checkpoint file:  "JID_2832.chk"
 Charge = -1 Multiplicity = 2

                         Standard orientation:
 ---------------------------------------------------------------------
 Center     Atomic      Atomic             Coordinates (Angstroms)
 Number     Number       Type             X           Y           Z
 ---------------------------------------------------------------------
      1          6           0       -1.644989    2.300139   -0.541886
      2          6           0       -0.730919    1.074252   -0.496886
      3          6           0       -1.197048   -0.044673    0.459159
      4          6           0       -2.635228   -0.509019    0.150219
      5          6           0       -2.889617   -1.006329   -1.275725
      6          6           0       -0.246117   -1.263425    0.360433
      7          8           0        1.013090   -1.043979    0.990168
      8          6           0        2.219804   -0.799833    0.240934
      9          6           0        2.204534   -1.260407   -1.212576
     10          6           0        2.627019    0.643929    0.430656
     11          6           0        3.157707    1.456449   -0.482603
     12          7           0       -1.201696    0.503623    1.827690
     13          1           0       -2.611575    2.074969   -1.006905
     14          1           0       -1.181625    3.106104   -1.122063
     15          1           0       -1.834267    2.663554    0.471887
     16          1           0       -0.613446    0.656480   -1.505833
     17          1           0        0.270411    1.387663   -0.185130
     18          1           0       -2.893889   -1.309370    0.859495
     19          1           0       -3.309405    0.323619    0.377609
     20          1           0       -2.261840   -1.867267   -1.531388
     21          1           0       -3.933320   -1.318615   -1.390232
     22          1           0       -2.697388   -0.223175   -2.016562
     23          1           0       -0.701296   -2.100749    0.907713
     24          1           0       -0.125415   -1.581860   -0.678693
     25          1           0        2.969050   -1.411497    0.766615
     26          1           0        1.542447   -0.650448   -1.834434
     27          1           0        3.216751   -1.181213   -1.620748
     28          1           0        1.898088   -2.307825   -1.286947
     29          1           0        2.476108    1.004130    1.447975
     30          1           0        3.439989    2.475372   -0.233064
     31          1           0        3.329556    1.148429   -1.510135
     32          1           0       -1.633306   -0.176971    2.454798
     33          1           0       -0.229359    0.568632    2.130523
 ---------------------------------------------------------------------

 SCF Done:  E(UB3LYP) =  -523.839902352     A.U. after   31 cycles

 The electronic state is 2-A.
 Alpha  occ. eigenvalues --  -19.02080 -14.18750 -10.12964 -10.10818 -10.10022
 Alpha  occ. eigenvalues --  -10.07829 -10.06971 -10.06579 -10.06176 -10.05908
 Alpha  occ. eigenvalues --  -10.05778 -10.05393  -0.92866  -0.79271  -0.70351
 Alpha  occ. eigenvalues --   -0.68261  -0.64709  -0.63386  -0.60764  -0.55689
 Alpha  occ. eigenvalues --   -0.52626  -0.51154  -0.45135  -0.43481  -0.40377
 Alpha  occ. eigenvalues --   -0.38827  -0.37880  -0.37739  -0.36327  -0.34086
 Alpha  occ. eigenvalues --   -0.33786  -0.31798  -0.31285  -0.30653  -0.29845
 Alpha  occ. eigenvalues --   -0.28608  -0.27733  -0.27043  -0.25923  -0.25588
 Alpha  occ. eigenvalues --   -0.25112  -0.24033  -0.22884  -0.21249  -0.20668
 Alpha  occ. eigenvalues --   -0.17096  -0.16457  -0.13941   0.04530
 Alpha virt. eigenvalues --    0.06570   0.07195   0.07484   0.08584   0.08836
 Alpha virt. eigenvalues --    0.09080   0.09534   0.09904   0.10371   0.11489
 Alpha virt. eigenvalues --    0.12022   0.12120   0.12503   0.12617   0.13692

  Beta  occ. eigenvalues --  -19.02079 -14.18742 -10.12955 -10.10797 -10.10021
  Beta  occ. eigenvalues --  -10.07816 -10.06938 -10.06564 -10.06126 -10.05874
  Beta  occ. eigenvalues --  -10.05764 -10.05382  -0.92856  -0.79256  -0.70309
  Beta  occ. eigenvalues --   -0.68234  -0.64681  -0.63337  -0.60714  -0.55634
  Beta  occ. eigenvalues --   -0.52566  -0.51093  -0.45078  -0.43436  -0.40352
  Beta  occ. eigenvalues --   -0.38781  -0.37860  -0.37713  -0.36298  -0.34042
  Beta  occ. eigenvalues --   -0.33756  -0.31772  -0.31250  -0.30627  -0.29815
  Beta  occ. eigenvalues --   -0.28559  -0.27688  -0.27002  -0.25889  -0.25550
  Beta  occ. eigenvalues --   -0.25078  -0.24006  -0.22862  -0.21229  -0.20647
  Beta  occ. eigenvalues --   -0.17024  -0.16437  -0.13926
  Beta virt. eigenvalues --    0.06678   0.07421   0.07657   0.08056   0.08968
  Beta virt. eigenvalues --    0.09181   0.09512   0.10014   0.10281   0.10800
  Beta virt. eigenvalues --    0.11786   0.12351   0.12436   0.12954   0.13140

 Mulliken charges and spin densities:
               1          2
     1  C    0.207689  -0.845751
     2  C   -0.158688  -0.039383
     3  C   -0.042692   0.253662
     4  C   -0.182072  -0.133417
     5  C    0.572159  -1.174732
     6  C   -0.659814   0.008343
     7  O   -0.074649  -0.002631
     8  C    0.296641  -0.247305
     9  C    1.045679  -1.649719
    10  C   -0.563171   0.659760
    11  C    0.303350  -0.851550
    12  N   -0.269409   0.077174
    13  H    0.094141   0.032093
    14  H    0.019727   0.110558
    15  H    0.081267   0.119038
    16  H   -0.042529   0.193599
    17  H    0.540117  -0.339800
    18  H   -0.055847   0.186742
    19  H    0.102256   0.058937
    20  H   -0.480287   0.636957
    21  H   -0.487560   0.636893
    22  H   -0.132253   0.272022
    23  H   -0.454198   0.617753
    24  H    1.100828  -0.923142
    25  H   -0.328722   0.526995
    26  H   -0.460413   0.633589
    27  H   -0.575134   0.728543
    28  H   -0.364818   0.528005
    29  H   -0.071735   0.234885
    30  H   -0.128855   0.252000
    31  H   -0.158122   0.288436
    32  H    0.095321   0.131815
    33  H    0.231795   0.019633
 Sum of Mulliken charges =  -1.00000   1.00000

 Dipole moment (field-independent basis, Debye):
    X=             -1.4327    Y=              3.5064    Z=              3.3267  Tot=              5.0413
 Quadrupole moment (field-independent basis, Debye-Ang):
   XX=           -148.1195   YY=           -123.7868   ZZ=           -117.6582
   XY=             -0.2875   XZ=              3.4153   YZ=             -5.6617

 Summary of Natural Population Analysis:

                                       Natural Population
                Natural  -----------------------------------------------
    Atom  No    Charge         Core      Valence    Rydberg      Total
 -----------------------------------------------------------------------
      C    1   -0.28699      0.99966     2.28294    0.00439     3.28699
      C    2   -0.20023      0.99958     2.19072    0.00993     3.20023
      C    3    0.04451      0.99955     1.94182    0.01412     2.95549
      C    4   -0.19499      0.99959     2.18433    0.01107     3.19499
      C    5   -0.28736      0.99966     2.28224    0.00547     3.28736
      C    6   -0.01347      0.99948     1.99933    0.01466     3.01347
      O    7   -0.31348      0.99988     3.30328    0.01032     4.31348
      C    8    0.05250      0.99951     1.93319    0.01480     2.94750
      C    9   -0.30712      0.99965     2.30046    0.00702     3.30712
      C   10   -0.09243      0.99954     2.08124    0.01164     3.09243
      C   11   -0.18980      0.99955     2.18348    0.00676     3.18980
      N   12   -0.42703      0.99976     2.91736    0.00991     3.92703
      H   13    0.09361      0.00000     0.40547    0.00092     0.40639
      H   14    0.09585      0.00000     0.40341    0.00075     0.40415
      H   15    0.10561      0.00000     0.39316    0.00123     0.39439
      H   16    0.09681      0.00000     0.40164    0.00155     0.40319
      H   17    0.10522      0.00000     0.39244    0.00234     0.39478
      H   18    0.09489      0.00000     0.40383    0.00129     0.40511
      H   19    0.10202      0.00000     0.39674    0.00123     0.39798
      H   20    0.09903      0.00000     0.39948    0.00149     0.40097
      H   21    0.10005      0.00000     0.39893    0.00103     0.39995
      H   22    0.09782      0.00000     0.40110    0.00108     0.40218
      H   23    0.08621      0.00000     0.41205    0.00174     0.41379
      H   24    0.09124      0.00000     0.40669    0.00207     0.40876
      H   25    0.09286      0.00000     0.40538    0.00176     0.40714
      H   26    0.10189      0.00000     0.39643    0.00168     0.39811
      H   27    0.11005      0.00000     0.38809    0.00186     0.38995
      H   28    0.10803      0.00000     0.39034    0.00163     0.39197
      H   29    0.09523      0.00000     0.40355    0.00122     0.40477
      H   30    0.09393      0.00000     0.40504    0.00102     0.40607
      H   31    0.09507      0.00000     0.40365    0.00128     0.40493
      H   32    0.17116      0.00000     0.32712    0.00171     0.32884
      H   33    0.17930      0.00000     0.31866    0.00204     0.32070
 =======================================================================
   * Total *    0.00000     11.99541    35.85356    0.15103    48.00000

 Normal termination of Gaussian 16 at Wed Dec  9 18:38:13 2020.
