 Gaussian 16, Revision A.03,

 -----------------------------------------------------------
 # opt freq B3LYP/6-31G(d) empiricaldispersion=gd3bj scf=xqc
 -----------------------------------------------------------

 -------------------------------
 CID_105776133_JID_5431_neutraal
 -------------------------------
 Symbolic Z-matrix:
 Charge =  0 Multiplicity = 1

 SCF Done:  E(RB3LYP) =  -1088.37315997     A.U. after   14 cycles
 SCF Done:  E(RB3LYP) =  -1088.37784749     A.U. after   12 cycles
 SCF Done:  E(RB3LYP) =  -1088.37751043     A.U. after   12 cycles
 SCF Done:  E(RB3LYP) =  -1088.37881516     A.U. after   12 cycles
 SCF Done:  E(RB3LYP) =  -1088.37972974     A.U. after   12 cycles
 SCF Done:  E(RB3LYP) =  -1088.38029218     A.U. after   13 cycles
 SCF Done:  E(RB3LYP) =  -1088.38170687     A.U. after   12 cycles
 SCF Done:  E(RB3LYP) =  -1088.38338605     A.U. after   14 cycles
 SCF Done:  E(RB3LYP) =  -1088.38378444     A.U. after   12 cycles
 SCF Done:  E(RB3LYP) =  -1088.38457402     A.U. after   11 cycles
 SCF Done:  E(RB3LYP) =  -1088.38547388     A.U. after   11 cycles
 SCF Done:  E(RB3LYP) =  -1088.38549401     A.U. after   10 cycles
 SCF Done:  E(RB3LYP) =  -1088.38549854     A.U. after   10 cycles
 SCF Done:  E(RB3LYP) =  -1088.38549889     A.U. after    9 cycles
 SCF Done:  E(RB3LYP) =  -1088.38549939     A.U. after    8 cycles
 SCF Done:  E(RB3LYP) =  -1088.38549933     A.U. after    6 cycles
 Optimization completed.
    -- Stationary point found.
 Normal termination of Gaussian 16 at Thu Dec 10 16:17:17 2020.

 --------------------------------------------------------------------
 #N Geom=AllCheck Guess=TCheck SCRF=Check GenChk RB3LYP/6-31G(d) Freq
 --------------------------------------------------------------------

 Structure from the checkpoint file:  "JID_5431.chk"
 -------------------------------
 CID_105776133_JID_5431_neutraal
 -------------------------------
 Charge =  0 Multiplicity = 1

 SCF Done:  E(RB3LYP) =  -1088.38549933     A.U. after    1 cycles

  Exact polarizability: 146.656  -1.542 122.859   1.159  -4.489 124.458
 Approx polarizability: 191.125  -3.074 185.222   7.616  -5.539 199.760

                      1                      2                      3
                      A                      A                      A
 Frequencies --     40.8598                43.4087                63.1887
 Red. masses --      3.6134                 3.4436                 3.4666
 Frc consts  --      0.0036                 0.0038                 0.0082
 IR Inten    --      1.6541                 1.2751                 3.9147

                      4                      5                      6
                      A                      A                      A
 Frequencies --     71.8249                82.4936               106.3793
 Red. masses --      6.1578                 3.0592                 2.6334
 Frc consts  --      0.0187                 0.0123                 0.0176
 IR Inten    --      1.6639                 3.4359                 2.9144

                      7                      8                      9
                      A                      A                      A
 Frequencies --    137.8374               155.8758               177.5837
 Red. masses --      2.2362                 4.1948                 1.7149
 Frc consts  --      0.0250                 0.0601                 0.0319
 IR Inten    --      5.2242                 0.8373                 0.4300

                     10                     11                     12
                      A                      A                      A
 Frequencies --    198.5062               211.9721               220.3561
 Red. masses --      1.4397                 2.8969                 1.5980
 Frc consts  --      0.0334                 0.0767                 0.0457
 IR Inten    --      9.3894                 0.3065                 2.3740

                     13                     14                     15
                      A                      A                      A
 Frequencies --    230.4714               252.7385               258.2082
 Red. masses --      1.3476                 1.8564                 1.5118
 Frc consts  --      0.0422                 0.0699                 0.0594
 IR Inten    --     25.0302                10.1065                 0.5447

                     16                     17                     18
                      A                      A                      A
 Frequencies --    288.5951               294.4796               309.2098
 Red. masses --      2.4912                 2.4452                 2.8623
 Frc consts  --      0.1222                 0.1249                 0.1612
 IR Inten    --      5.2346                 0.9356                 0.7699

                     19                     20                     21
                      A                      A                      A
 Frequencies --    341.9728               369.8133               389.5082
 Red. masses --      2.8829                 2.4762                 5.5892
 Frc consts  --      0.1986                 0.1995                 0.4996
 IR Inten    --      2.5277                 2.8343                 7.6019

                     22                     23                     24
                      A                      A                      A
 Frequencies --    400.7117               421.4524               440.4548
 Red. masses --      4.1430                 3.4421                 2.6111
 Frc consts  --      0.3920                 0.3602                 0.2985
 IR Inten    --     22.2419                22.2131                 4.7671

                     25                     26                     27
                      A                      A                      A
 Frequencies --    480.1318               527.9647               555.7265
 Red. masses --      5.5060                 3.8886                 3.2298
 Frc consts  --      0.7478                 0.6386                 0.5877
 IR Inten    --     15.3209                 5.6383                 6.4781

                     28                     29                     30
                      A                      A                      A
 Frequencies --    596.9284               638.1516               685.0061
 Red. masses --      4.1455                 3.8900                 3.3027
 Frc consts  --      0.8703                 0.9334                 0.9131
 IR Inten    --     22.5774                 3.9839                 2.9348

                     31                     32                     33
                      A                      A                      A
 Frequencies --    706.5684               741.4468               805.9674
 Red. masses --      2.6468                 3.6071                 1.2576
 Frc consts  --      0.7785                 1.1683                 0.4813
 IR Inten    --     30.6030                17.9598                23.1825

                     34                     35                     36
                      A                      A                      A
 Frequencies --    807.6810               826.3542               847.1791
 Red. masses --      1.2425                 1.3995                 2.3498
 Frc consts  --      0.4776                 0.5631                 0.9937
 IR Inten    --     22.5183               121.6094                 7.7920

                     37                     38                     39
                      A                      A                      A
 Frequencies --    876.2653               929.2998               969.5681
 Red. masses --      2.1056                 1.9789                 2.1092
 Frc consts  --      0.9526                 1.0069                 1.1682
 IR Inten    --     56.8693                67.9964                10.9021

                     40                     41                     42
                      A                      A                      A
 Frequencies --    988.0582               999.1706              1008.4037
 Red. masses --      1.6091                 1.7853                 1.8648
 Frc consts  --      0.9256                 1.0501                 1.1172
 IR Inten    --     61.2887                 7.2355                45.4990

                     43                     44                     45
                      A                      A                      A
 Frequencies --   1022.5973              1058.4931              1072.3814
 Red. masses --      1.5334                 1.8366                 1.8586
 Frc consts  --      0.9447                 1.2124                 1.2593
 IR Inten    --     11.5008                29.9837                25.9297

                     46                     47                     48
                      A                      A                      A
 Frequencies --   1086.2574              1088.1583              1111.8866
 Red. masses --      1.6369                 1.9708                 2.9281
 Frc consts  --      1.1380                 1.3749                 2.1328
 IR Inten    --      8.6123                 7.8673                64.1837

                     49                     50                     51
                      A                      A                      A
 Frequencies --   1118.7672              1137.0514              1182.8478
 Red. masses --      1.6610                 2.7742                 2.4016
 Frc consts  --      1.2249                 2.1133                 1.9797
 IR Inten    --     15.5662                80.7661                51.8936

                     52                     53                     54
                      A                      A                      A
 Frequencies --   1208.0684              1243.5546              1261.8728
 Red. masses --      1.3266                 1.9580                 1.9558
 Frc consts  --      1.1407                 1.7840                 1.8349
 IR Inten    --      2.3655                26.2923                23.9470

                     55                     56                     57
                      A                      A                      A
 Frequencies --   1286.1069              1301.7964              1321.3887
 Red. masses --      1.5248                 2.1260                 1.4671
 Frc consts  --      1.4860                 2.1227                 1.5093
 IR Inten    --     44.7297                77.6497                41.8224

                     58                     59                     60
                      A                      A                      A
 Frequencies --   1345.7587              1351.5150              1356.7355
 Red. masses --      1.3670                 1.4377                 2.1161
 Frc consts  --      1.4586                 1.5472                 2.2949
 IR Inten    --     23.2380                 8.8462                90.8671

                     61                     62                     63
                      A                      A                      A
 Frequencies --   1381.8318              1390.1221              1425.4150
 Red. masses --      1.4627                 1.6454                 1.3724
 Frc consts  --      1.6455                 1.8734                 1.6429
 IR Inten    --      0.4967                 9.0226                12.9494

                     64                     65                     66
                      A                      A                      A
 Frequencies --   1431.3178              1440.8168              1442.9654
 Red. masses --      1.2568                 1.2246                 1.2595
 Frc consts  --      1.5170                 1.4979                 1.5451
 IR Inten    --      4.9908                 1.9749                10.9489

                     67                     68                     69
                      A                      A                      A
 Frequencies --   1479.6007              1496.7048              1505.2885
 Red. masses --      1.0903                 1.0871                 1.2493
 Frc consts  --      1.4063                 1.4348                 1.6678
 IR Inten    --      7.6800                 6.4681                26.3293

                     70                     71                     72
                      A                      A                      A
 Frequencies --   1513.7119              1514.1951              1520.2878
 Red. masses --      1.1366                 1.1523                 1.0711
 Frc consts  --      1.5345                 1.5567                 1.4586
 IR Inten    --      5.1462                13.3709                 5.4008

                     73                     74                     75
                      A                      A                      A
 Frequencies --   1527.0444              1529.4645              1531.6004
 Red. masses --      1.0486                 1.0722                 1.0508
 Frc consts  --      1.4406                 1.4777                 1.4523
 IR Inten    --      6.2299                24.5828                 3.4742

                     76                     77                     78
                      A                      A                      A
 Frequencies --   1539.7084              1546.2041              1716.3589
 Red. masses --      1.0583                 1.0554                 1.1258
 Frc consts  --      1.4782                 1.4867                 1.9540
 IR Inten    --      5.2422                 1.6080                 7.3706

                     79                     80                     81
                      A                      A                      A
 Frequencies --   1739.4120              3033.2442              3060.1806
 Red. masses --      6.1819                 1.0693                 1.0379
 Frc consts  --     11.0199                 5.7967                 5.7266
 IR Inten    --    242.8667                35.4765                30.0750

                     82                     83                     84
                      A                      A                      A
 Frequencies --   3065.9921              3068.1681              3085.2282
 Red. masses --      1.0366                 1.0388                 1.0606
 Frc consts  --      5.7411                 5.7618                 5.9483
 IR Inten    --     11.6192                12.0286                 6.2938

                     85                     86                     87
                      A                      A                      A
 Frequencies --   3096.4276              3101.2217              3110.3706
 Red. masses --      1.0662                 1.0810                 1.0661
 Frc consts  --      6.0227                 6.1256                 6.0767
 IR Inten    --      5.8588                21.8964                18.7440

                     88                     89                     90
                      A                      A                      A
 Frequencies --   3118.3926              3128.1841              3135.2075
 Red. masses --      1.1023                 1.1008                 1.0989
 Frc consts  --      6.3154                 6.3469                 6.3639
 IR Inten    --     39.5695                24.3371                17.1440

                     91                     92                     93
                      A                      A                      A
 Frequencies --   3142.5680              3151.9777              3156.9387
 Red. masses --      1.1058                 1.1035                 1.1025
 Frc consts  --      6.4341                 6.4594                 6.4738
 IR Inten    --      7.1893                21.8163                 8.4730

                     94                     95                     96
                      A                      A                      A
 Frequencies --   3158.8475              3160.0157              3167.2878
 Red. masses --      1.1033                 1.1006                 1.1027
 Frc consts  --      6.4861                 6.4753                 6.5176
 IR Inten    --      7.8680                10.0300                 8.1647

                     97                     98                     99
                      A                      A                      A
 Frequencies --   3457.4048              3531.3007              3537.5983
 Red. masses --      1.0508                 1.0896                 1.0750
 Frc consts  --      7.4007                 8.0054                 7.9267
 IR Inten    --      0.9884                 2.1698                40.9828

 - Thermochemistry -
 -------------------
 Temperature   298.150 Kelvin.  Pressure   1.00000 Atm.
 Atom     1 has atomic number  6 and mass  12.00000

 Molecular mass:   236.11946 amu.
 Principal axes and moments of inertia in atomic units:
                           1         2         3
     Eigenvalues --  2002.001985822.327545993.73871
           X            0.99980   0.00477  -0.01963
           Y           -0.00681   0.99443  -0.10519
           Z            0.01902   0.10530   0.99426
 This molecule is an asymmetric top.
 Rotational symmetry number  1.
 Warning -- assumption of classical behavior for rotation
           may cause significant error
 Rotational temperatures (Kelvin)      0.04326     0.01488     0.01445
 Rotational constants (GHZ):           0.90147     0.30997     0.30110
 Zero-point vibrational energy     796662.8 (Joules/Mol)
                                  190.40698 (Kcal/Mol)
 Warning -- explicit consideration of  28 degrees of freedom as
           vibrations may cause significant error
 Vibrational temperatures:     58.79    62.46    90.91   103.34   118.69
          (Kelvin)            153.06   198.32   224.27   255.50   285.61
                              304.98   317.04   331.60   363.63   371.50
                              415.22   423.69   444.88   492.02   532.08
                              560.42   576.53   606.38   633.72   690.80
                              759.62   799.57   858.85   918.16   985.57
                             1016.59  1066.78  1159.61  1162.07  1188.94
                             1218.90  1260.75  1337.06  1394.99  1421.60
                             1437.58  1450.87  1471.29  1522.94  1542.92
                             1562.88  1565.62  1599.76  1609.66  1635.96
                             1701.85  1738.14  1789.20  1815.55  1850.42
                             1872.99  1901.18  1936.25  1944.53  1952.04
                             1988.15  2000.08  2050.85  2059.35  2073.01
                             2076.11  2128.82  2153.42  2165.77  2177.89
                             2178.59  2187.36  2197.08  2200.56  2203.63
                             2215.30  2224.64  2469.46  2502.63  4364.16
                             4402.92  4411.28  4414.41  4438.96  4455.07
                             4461.97  4475.13  4486.67  4500.76  4510.86
                             4521.45  4534.99  4542.13  4544.88  4546.56
                             4557.02  4974.43  5080.75  5089.81

 Zero-point correction=                           0.303433 (Hartree/Particle)
 Thermal correction to Energy=                    0.321465
 Thermal correction to Enthalpy=                  0.322409
 Thermal correction to Gibbs Free Energy=         0.257645
 Sum of electronic and zero-point Energies=          -1088.082067
 Sum of electronic and thermal Energies=             -1088.064034
 Sum of electronic and thermal Enthalpies=           -1088.063090
 Sum of electronic and thermal Free Energies=        -1088.127854

                     E (Thermal)             CV                S
                      KCal/Mol        Cal/Mol-Kelvin    Cal/Mol-Kelvin
 Total                  201.722             66.543            136.307
 Electronic               0.000              0.000              0.000
 Translational            0.889              2.981             42.279
 Rotational               0.889              2.981             32.613
 Vibrational            199.945             60.581             61.415
 Vibration     1          0.594              1.981              5.217
 Vibration     2          0.595              1.980              5.097
 Vibration     3          0.597              1.972              4.355
 Vibration     4          0.598              1.967              4.103
 Vibration     5          0.600              1.961              3.831
 Vibration     6          0.605              1.944              3.334
 Vibration     7          0.614              1.916              2.834
 Vibration     8          0.620              1.896              2.599
 Vibration     9          0.628              1.870              2.354
 Vibration    10          0.637              1.842              2.147
 Vibration    11          0.643              1.823              2.027
 Vibration    12          0.647              1.810              1.956
 Vibration    13          0.652              1.794              1.875
 Vibration    14          0.664              1.758              1.711
 Vibration    15          0.667              1.749              1.674
 Vibration    16          0.685              1.695              1.482
 Vibration    17          0.689              1.684              1.448
 Vibration    18          0.699              1.656              1.367
 Vibration    19          0.721              1.592              1.203
 Vibration    20          0.742              1.534              1.081
 Vibration    21          0.757              1.493              1.002
 Vibration    22          0.767              1.469              0.960
 Vibration    23          0.784              1.424              0.887
 Vibration    24          0.800              1.382              0.825
 Vibration    25          0.836              1.294              0.710
 Vibration    26          0.883              1.188              0.592
 Vibration    27          0.911              1.127              0.532
 Vibration    28          0.955              1.038              0.455

                           ! Non-Optimized Parameters !
 Normal termination of Gaussian 16 at Thu Dec 10 16:31:14 2020.

 ----------------------------------------------------------------------
 # B3LYP/6-311++G(d,p) empiricaldispersion=gd3bj scf=xqc pop=npa geom=c
 heck
 ----------------------------------------------------------------------

 ---------------------------------------
 CID_105776133_JID_5431_Energie_neutraal
 ---------------------------------------
 Structure from the checkpoint file:  "JID_5431.chk"
 Charge =  0 Multiplicity = 1

 SCF Done:  E(RB3LYP) =  -1088.62496334     A.U. after   15 cycles
 Normal termination of Gaussian 16 at Thu Dec 10 16:38:38 2020.

 ----------------------------------------------------------------------
 # B3LYP/6-311++G(d,p) empiricaldispersion=gd3bj scf=xqc pop=npa geom=c
 heck
 ----------------------------------------------------------------------

 -------------------------------------
 CID_105776133_JID_5431_Energie_kation
 -------------------------------------
 Structure from the checkpoint file:  "JID_5431.chk"
 Charge =  1 Multiplicity = 2

 SCF Done:  E(UB3LYP) =  -1088.29122554     A.U. after   29 cycles
 Normal termination of Gaussian 16 at Thu Dec 10 16:58:46 2020.
 Gaussian 16:  ES64L-G16RevA.03 25-Dec-2016

 ----------------------------------------------------------------------
 # B3LYP/6-311++G(d,p) empiricaldispersion=gd3bj scf=xqc pop=npa geom=c
 heck
 ----------------------------------------------------------------------

 ------------------------------------
 CID_105776133_JID_5431_Energie_anion
 ------------------------------------
 Structure from the checkpoint file:  "JID_5431.chk"
 Charge = -1 Multiplicity = 2

                         Standard orientation:
 ---------------------------------------------------------------------
 Center     Atomic      Atomic             Coordinates (Angstroms)
 Number     Number       Type             X           Y           Z
 ---------------------------------------------------------------------
      1          6           0        3.323798   -1.603756   -1.506692
      2          6           0        2.119756   -1.016084   -0.767604
      3          6           0        2.470215    0.162735    0.178313
      4          6           0        3.119663    1.340460   -0.566518
      5          6           0        1.183653    0.615918    0.932663
      6          8           0        1.040670    0.327122    2.120557
      7          7           0        0.229262    1.397287    0.324046
      8          6           0       -0.237415    1.407987   -1.054040
      9          6           0       -1.217948    0.273087   -1.380433
     10         16           0       -2.605469    0.162718   -0.192601
     11          8           0       -2.777293    1.501988    0.408934
     12          8           0       -3.719431   -0.492613   -0.897228
     13          6           0       -2.048982   -0.953769    1.131186
     14          6           0       -1.806878   -2.382935    0.661130
     15          7           0        3.448012   -0.333282    1.152897
     16          1           0        3.742827   -0.888079   -2.222146
     17          1           0        3.027379   -2.496609   -2.067864
     18          1           0        4.108251   -1.874671   -0.797042
     19          1           0        1.371534   -0.694339   -1.498952
     20          1           0        1.646161   -1.799544   -0.159007
     21          1           0        2.556617    1.647730   -1.450841
     22          1           0        3.206450    2.211698    0.091900
     23          1           0        4.124428    1.052177   -0.885415
     24          1           0       -0.499476    1.668961    0.978990
     25          1           0       -0.738244    2.364847   -1.217776
     26          1           0        0.603209    1.356447   -1.746249
     27          1           0       -1.708756    0.437465   -2.344517
     28          1           0       -0.736656   -0.707327   -1.403249
     29          1           0       -1.169024   -0.507210    1.602303
     30          1           0       -2.881083   -0.897934    1.841351
     31          1           0       -0.930135   -2.454477    0.008923
     32          1           0       -1.619969   -3.020786    1.530611
     33          1           0       -2.676439   -2.770125    0.123940
     34          1           0        3.793541    0.459631    1.694019
     35          1           0        2.939237   -0.893212    1.837907
 ---------------------------------------------------------------------

 SCF Done:  E(UB3LYP) =  -1088.61861898     A.U. after   32 cycles

 The electronic state is 2-A.
 Alpha  occ. eigenvalues --  -88.95745 -19.02972 -19.02781 -19.00826 -14.25152
 Alpha  occ. eigenvalues --  -14.19697 -10.18541 -10.13769 -10.12734 -10.12621
 Alpha  occ. eigenvalues --  -10.12512 -10.09379 -10.07779 -10.07190 -10.05578
 Alpha  occ. eigenvalues --   -8.02277  -5.98541  -5.98424  -5.98366  -1.01969
 Alpha  occ. eigenvalues --   -0.95903  -0.91770  -0.84225  -0.80443  -0.72694
 Alpha  occ. eigenvalues --   -0.69930  -0.68169  -0.63294  -0.61205  -0.58102
 Alpha  occ. eigenvalues --   -0.56507  -0.51381  -0.49935  -0.46959  -0.42968
 Alpha  occ. eigenvalues --   -0.42292  -0.40637  -0.40205  -0.39484  -0.38841
 Alpha  occ. eigenvalues --   -0.37744  -0.36913  -0.35981  -0.34525  -0.33764
 Alpha  occ. eigenvalues --   -0.33312  -0.31976  -0.31648  -0.30609  -0.30499
 Alpha  occ. eigenvalues --   -0.29500  -0.29231  -0.28487  -0.27578  -0.26345
 Alpha  occ. eigenvalues --   -0.24621  -0.24424  -0.23675  -0.23564  -0.22135
 Alpha  occ. eigenvalues --   -0.20360  -0.18697  -0.16959  -0.15931   0.03941
 Alpha virt. eigenvalues --    0.06277   0.07170   0.07340   0.08297   0.08856
 Alpha virt. eigenvalues --    0.09192   0.09460   0.09661   0.10298   0.11223
 Alpha virt. eigenvalues --    0.11439   0.11749   0.12409   0.12814   0.13138

  Beta  occ. eigenvalues --  -88.95745 -19.02966 -19.02778 -19.00804 -14.25152
  Beta  occ. eigenvalues --  -14.19678 -10.18512 -10.13740 -10.12734 -10.12611
  Beta  occ. eigenvalues --  -10.12477 -10.09347 -10.07754 -10.07146 -10.05543
  Beta  occ. eigenvalues --   -8.02276  -5.98541  -5.98423  -5.98366  -1.01961
  Beta  occ. eigenvalues --   -0.95862  -0.91761  -0.84203  -0.80415  -0.72667
  Beta  occ. eigenvalues --   -0.69884  -0.68120  -0.63235  -0.61153  -0.58034
  Beta  occ. eigenvalues --   -0.56443  -0.51319  -0.49890  -0.46911  -0.42935
  Beta  occ. eigenvalues --   -0.42263  -0.40597  -0.40173  -0.39441  -0.38807
  Beta  occ. eigenvalues --   -0.37709  -0.36883  -0.35945  -0.34485  -0.33716
  Beta  occ. eigenvalues --   -0.33272  -0.31928  -0.31596  -0.30574  -0.30447
  Beta  occ. eigenvalues --   -0.29455  -0.29178  -0.28449  -0.27540  -0.26291
  Beta  occ. eigenvalues --   -0.24596  -0.24399  -0.23646  -0.23531  -0.22129
  Beta  occ. eigenvalues --   -0.20337  -0.18676  -0.16915  -0.15898
  Beta virt. eigenvalues --    0.06307   0.06984   0.07690   0.08001   0.08630
  Beta virt. eigenvalues --    0.09263   0.09358   0.09832   0.10151   0.10604
  Beta virt. eigenvalues --    0.11623   0.11753   0.12008   0.12566   0.12965

 Mulliken charges and spin densities:
               1          2
     1  C    1.179826  -1.867971
     2  C   -0.722355   0.671809
     3  C   -0.742394   0.813050
     4  C    0.788146  -1.291189
     5  C    0.274902  -0.583166
     6  O   -0.291363   0.020119
     7  N   -0.190464   0.058856
     8  C    0.919448  -1.362140
     9  C   -0.657445   0.318521
    10  S    0.588858  -0.290835
    11  O   -0.162151  -0.009583
    12  O   -0.208497   0.034934
    13  C   -0.822180   0.272936
    14  C    0.357726  -0.869226
    15  N   -0.247958  -0.010176
    16  H   -0.066714   0.211148
    17  H   -0.519229   0.678642
    18  H    0.064809   0.116771
    19  H   -0.221008   0.329260
    20  H    0.137922   0.037537
    21  H   -0.433633   0.575804
    22  H   -0.051784   0.219068
    23  H   -0.066594   0.232950
    24  H    0.261768   0.061348
    25  H    0.153161   0.080304
    26  H   -0.326613   0.502236
    27  H   -0.565125   0.871227
    28  H    0.174518   0.042168
    29  H    0.329027  -0.042446
    30  H    0.154333   0.091190
    31  H   -0.280295   0.450722
    32  H   -0.095125   0.250381
    33  H    0.013230   0.166290
    34  H    0.162016   0.071112
    35  H    0.111239   0.148349
 Sum of Mulliken charges =  -1.00000   1.00000

 Dipole moment (field-independent basis, Debye):
    X=             -1.7245    Y=              1.2190    Z=              5.2033  Tot=              5.6156
 Quadrupole moment (field-independent basis, Debye-Ang):
   XX=           -171.7370   YY=           -143.0801   ZZ=           -151.9844
   XY=              5.2062   XZ=              2.1948   YZ=             -2.0302

 Summary of Natural Population Analysis:

                                       Natural Population
                Natural  -----------------------------------------------
    Atom  No    Charge         Core      Valence    Rydberg      Total
 -----------------------------------------------------------------------
      C    1   -0.28717      0.99966     2.28152    0.00599     3.28717
      C    2   -0.19076      0.99959     2.18060    0.01058     3.19076
      C    3    0.01868      0.99956     1.96770    0.01407     2.98132
      C    4   -0.28907      0.99962     2.28171    0.00774     3.28907
      C    5    0.35112      0.99960     1.62523    0.02405     2.64888
      O    6   -0.33074      0.99988     3.32455    0.00630     4.33074
      N    7   -0.32824      0.99967     2.81887    0.00970     3.82824
      C    8   -0.10060      0.99959     2.08740    0.01361     3.10060
      C    9   -0.29547      0.99957     2.28388    0.01201     3.29547
      S   10    1.01491      4.99927     1.89240    0.09343     6.98509
      O   11   -0.47907      0.99991     3.47384    0.00532     4.47907
      O   12   -0.46802      0.99991     3.46252    0.00559     4.46802
      C   13   -0.29447      0.99958     2.28331    0.01158     3.29447
      C   14   -0.29695      0.99965     2.29111    0.00620     3.29695
      N   15   -0.41760      0.99976     2.90848    0.00936     3.91760
      H   16    0.09796      0.00000     0.40098    0.00105     0.40204
      H   17    0.10167      0.00000     0.39714    0.00119     0.39833
      H   18    0.10633      0.00000     0.39222    0.00144     0.39367
      H   19    0.09676      0.00000     0.39972    0.00352     0.40324
      H   20    0.09656      0.00000     0.40145    0.00199     0.40344
      H   21    0.10442      0.00000     0.39403    0.00155     0.39558
      H   22    0.10092      0.00000     0.39798    0.00110     0.39908
      H   23    0.10845      0.00000     0.39044    0.00110     0.39155
      H   24    0.19999      0.00000     0.29751    0.00250     0.30001
      H   25    0.10756      0.00000     0.39116    0.00128     0.39244
      H   26    0.11308      0.00000     0.38433    0.00259     0.38692
      H   27    0.12623      0.00000     0.37186    0.00191     0.37377
      H   28    0.11676      0.00000     0.38107    0.00216     0.38324
      H   29    0.12456      0.00000     0.37345    0.00199     0.37544
      H   30    0.11425      0.00000     0.38463    0.00111     0.38575
      H   31    0.10389      0.00000     0.39458    0.00152     0.39611
      H   32    0.10787      0.00000     0.39119    0.00094     0.39213
      H   33    0.10973      0.00000     0.38912    0.00115     0.39027
      H   34    0.17350      0.00000     0.32489    0.00161     0.32650
      H   35    0.18295      0.00000     0.31518    0.00187     0.31705
 =======================================================================
   * Total *   -0.00000     18.99482    44.73605    0.26913    64.00000

 Normal termination of Gaussian 16 at Thu Dec 10 17:21:11 2020.
