 Gaussian 16, Revision A.03,

 -----------------------------------------------------------
 # opt freq B3LYP/6-31G(d) empiricaldispersion=gd3bj scf=xqc
 -----------------------------------------------------------

 -----------------------------
 CID_3367705_JID_3530_neutraal
 -----------------------------
 Symbolic Z-matrix:
 Charge =  0 Multiplicity = 1

 SCF Done:  E(RB3LYP) =  -1332.89479805     A.U. after   15 cycles
 SCF Done:  E(RB3LYP) =  -1332.90275782     A.U. after   13 cycles
 SCF Done:  E(RB3LYP) =  -1332.90240131     A.U. after   15 cycles
 SCF Done:  E(RB3LYP) =  -1332.90237032     A.U. after   14 cycles
 SCF Done:  E(RB3LYP) =  -1332.90230086     A.U. after   13 cycles
 SCF Done:  E(RB3LYP) =  -1332.90355005     A.U. after   11 cycles
 SCF Done:  E(RB3LYP) =  -1332.90424421     A.U. after   12 cycles
 SCF Done:  E(RB3LYP) =  -1332.90438170     A.U. after   13 cycles
 SCF Done:  E(RB3LYP) =  -1332.90454046     A.U. after   12 cycles
 SCF Done:  E(RB3LYP) =  -1332.90456716     A.U. after   11 cycles
 SCF Done:  E(RB3LYP) =  -1332.90458755     A.U. after   12 cycles
 SCF Done:  E(RB3LYP) =  -1332.90459105     A.U. after   11 cycles
 SCF Done:  E(RB3LYP) =  -1332.90459152     A.U. after    8 cycles
 SCF Done:  E(RB3LYP) =  -1332.90459164     A.U. after    8 cycles
 Optimization completed.
    -- Stationary point found.
 Normal termination of Gaussian 16 at Wed Dec  9 23:35:15 2020.

 --------------------------------------------------------------------
 #N Geom=AllCheck Guess=TCheck SCRF=Check GenChk RB3LYP/6-31G(d) Freq
 --------------------------------------------------------------------

 Structure from the checkpoint file:  "JID_3530.chk"
 -----------------------------
 CID_3367705_JID_3530_neutraal
 -----------------------------
 Charge =  0 Multiplicity = 1

 SCF Done:  E(RB3LYP) =  -1332.90459164     A.U. after    1 cycles

  Exact polarizability: 172.774   0.660 127.522  10.526  -8.576  83.186
 Approx polarizability: 232.621   6.346 235.890  24.344 -20.714 151.641

                      1                      2                      3
                      A                      A                      A
 Frequencies --     13.6842                34.3173                68.3311
 Red. masses --      6.0843                 5.1210                 5.0797
 Frc consts  --      0.0007                 0.0036                 0.0140
 IR Inten    --      2.9160                 1.1973                 2.1658

                      4                      5                      6
                      A                      A                      A
 Frequencies --     82.0377               157.5030               183.7203
 Red. masses --      8.2395                 5.8793                 4.1230
 Frc consts  --      0.0327                 0.0859                 0.0820
 IR Inten    --      0.4359                 3.0335                 3.1289

                      7                      8                      9
                      A                      A                      A
 Frequencies --    219.4832               242.5278               267.7781
 Red. masses --      1.1300                 4.5390                 8.0067
 Frc consts  --      0.0321                 0.1573                 0.3383
 IR Inten    --      0.2503                 1.2190                 0.5031

                     10                     11                     12
                      A                      A                      A
 Frequencies --    320.4787               341.0758               358.0074
 Red. masses --      2.6519                 4.1902                 5.1682
 Frc consts  --      0.1605                 0.2872                 0.3903
 IR Inten    --      1.9865                 0.4230                 8.8948

                     13                     14                     15
                      A                      A                      A
 Frequencies --    365.5128               381.0080               422.2781
 Red. masses --      1.2115                 5.7467                 3.1665
 Frc consts  --      0.0954                 0.4915                 0.3327
 IR Inten    --    108.3766                 5.0796                 1.7372

                     16                     17                     18
                      A                      A                      A
 Frequencies --    428.2177               460.5950               485.1422
 Red. masses --      3.2516                 7.8150                 5.3799
 Frc consts  --      0.3513                 0.9768                 0.7460
 IR Inten    --     12.0069                40.9724                17.6366

                     19                     20                     21
                      A                      A                      A
 Frequencies --    520.3946               543.6768               642.1035
 Red. masses --      7.4426                 3.2731                 4.4684
 Frc consts  --      1.1875                 0.5700                 1.0855
 IR Inten    --    102.8086                16.6310                48.4201

                     22                     23                     24
                      A                      A                      A
 Frequencies --    657.8786               731.4095               737.3932
 Red. masses --      6.5459                 6.2934                 4.4964
 Frc consts  --      1.6692                 1.9836                 1.4405
 IR Inten    --      1.7542                94.3724                 5.0357

                     25                     26                     27
                      A                      A                      A
 Frequencies --    775.3925               812.7676               855.8785
 Red. masses --      4.6137                 1.3905                 1.5776
 Frc consts  --      1.6343                 0.5412                 0.6809
 IR Inten    --      0.6256                12.1936                23.0626

                     28                     29                     30
                      A                      A                      A
 Frequencies --    867.6249               884.2015               931.7904
 Red. masses --      5.1869                 1.7282                 1.3145
 Frc consts  --      2.3005                 0.7961                 0.6724
 IR Inten    --     21.8031                 4.5084                 0.2201

                     31                     32                     33
                      A                      A                      A
 Frequencies --    983.4488               996.1018               997.5810
 Red. masses --      1.2921                 1.3899                 1.3257
 Frc consts  --      0.7363                 0.8126                 0.7773
 IR Inten    --      1.8439                36.5903                 3.8805

                     34                     35                     36
                      A                      A                      A
 Frequencies --   1036.5731              1111.1018              1137.6606
 Red. masses --      2.6917                 9.9753                 1.3809
 Frc consts  --      1.7041                 7.2558                 1.0530
 IR Inten    --      0.2316               103.5784                13.1815

                     37                     38                     39
                      A                      A                      A
 Frequencies --   1196.5029              1210.4336              1214.5144
 Red. masses --      1.1473                 1.1568                 1.2777
 Frc consts  --      0.9677                 0.9986                 1.1104
 IR Inten    --     25.4488                76.8442               107.8425

                     40                     41                     42
                      A                      A                      A
 Frequencies --   1244.5559              1289.6099              1315.8560
 Red. masses --      2.6865                 1.5402                 3.8524
 Frc consts  --      2.4517                 1.5092                 3.9301
 IR Inten    --      0.5308                83.6455                95.3942

                     43                     44                     45
                      A                      A                      A
 Frequencies --   1319.7511              1366.0727              1374.6581
 Red. masses --      4.7599                 1.6857                 1.1983
 Frc consts  --      4.8846                 1.8535                 1.3342
 IR Inten    --    156.0509                 5.1715                 6.7192

                     46                     47                     48
                      A                      A                      A
 Frequencies --   1389.5944              1478.0853              1482.9569
 Red. masses --      2.4139                 1.0524                 1.0527
 Frc consts  --      2.7463                 1.3547                 1.3640
 IR Inten    --     45.0312                 6.8715                 3.7313

                     49                     50                     51
                      A                      A                      A
 Frequencies --   1485.6273              1494.6083              1570.1682
 Red. masses --      1.1908                 2.3832                 2.6807
 Frc consts  --      1.5486                 3.1367                 3.8939
 IR Inten    --     13.7846                20.3239                79.7317

                     52                     53                     54
                      A                      A                      A
 Frequencies --   1651.7904              1679.4026              3086.8101
 Red. masses --      5.8324                 5.8609                 1.0292
 Frc consts  --      9.3758                 9.7392                 5.7778
 IR Inten    --     22.2345                68.0037                 0.0088

                     55                     56                     57
                      A                      A                      A
 Frequencies --   3089.8363              3153.9300              3167.4129
 Red. masses --      1.0621                 1.1038                 1.0874
 Frc consts  --      5.9743                 6.4690                 6.4277
 IR Inten    --      6.6297                 0.4105                20.4472

                     58                     59                     60
                      A                      A                      A
 Frequencies --   3185.3775              3187.4835              3205.8380
 Red. masses --      1.1064                 1.0940                 1.1084
 Frc consts  --      6.6142                 6.5488                 6.7117
 IR Inten    --      0.0935                16.7544                 0.0456

                     61                     62                     63
                      A                      A                      A
 Frequencies --   3211.7138              3225.2627              3751.0077
 Red. masses --      1.0883                 1.0948                 1.0659
 Frc consts  --      6.6139                 6.7100                 8.8362
 IR Inten    --      1.7808                 4.3060                49.9392

 - Thermochemistry -
 -------------------
 Temperature   298.150 Kelvin.  Pressure   1.00000 Atm.
 Atom     1 has atomic number  6 and mass  12.00000

 Molecular mass:   218.00714 amu.
 Principal axes and moments of inertia in atomic units:
                           1         2         3
     Eigenvalues --  1282.549365499.666056078.97994
           X            0.99999  -0.00350   0.00293
           Y            0.00350   0.99999  -0.00161
           Z           -0.00292   0.00162   0.99999
 This molecule is an asymmetric top.
 Rotational symmetry number  1.
 Warning -- assumption of classical behavior for rotation
           may cause significant error
 Rotational temperatures (Kelvin)      0.06753     0.01575     0.01425
 Rotational constants (GHZ):           1.40715     0.32815     0.29688
 Zero-point vibrational energy     455080.6 (Joules/Mol)
                                  108.76688 (Kcal/Mol)
 Warning -- explicit consideration of  20 degrees of freedom as
           vibrations may cause significant error
 Vibrational temperatures:     19.69    49.37    98.31   118.03   226.61
          (Kelvin)            264.33   315.79   348.94   385.27   461.10
                              490.73   515.09   525.89   548.19   607.56
                              616.11   662.69   698.01   748.73   782.23
                              923.84   946.54  1052.34  1060.94  1115.62
                             1169.39  1231.42  1248.32  1272.17  1340.64
                             1414.96  1433.17  1435.30  1491.40  1598.63
                             1636.84  1721.50  1741.54  1747.42  1790.64
                             1855.46  1893.22  1898.83  1965.47  1977.83
                             1999.32  2126.64  2133.64  2137.49  2150.41
                             2259.12  2376.56  2416.29  4441.23  4445.59
                             4537.80  4557.20  4583.05  4586.08  4612.49
                             4620.94  4640.43  5396.86

 Zero-point correction=                           0.173331 (Hartree/Particle)
 Thermal correction to Energy=                    0.186674
 Thermal correction to Enthalpy=                  0.187619
 Thermal correction to Gibbs Free Energy=         0.131224
 Sum of electronic and zero-point Energies=          -1332.731261
 Sum of electronic and thermal Energies=             -1332.717917
 Sum of electronic and thermal Enthalpies=           -1332.716973
 Sum of electronic and thermal Free Energies=        -1332.773368

                     E (Thermal)             CV                S
                      KCal/Mol        Cal/Mol-Kelvin    Cal/Mol-Kelvin
 Total                  117.140             49.411            118.693
 Electronic               0.000              0.000              0.000
 Translational            0.889              2.981             42.041
 Rotational               0.889              2.981             32.128
 Vibrational            115.362             43.450             44.524
 Vibration     1          0.593              1.986              7.388
 Vibration     2          0.594              1.983              5.563
 Vibration     3          0.598              1.969              4.201
 Vibration     4          0.600              1.961              3.842
 Vibration     5          0.621              1.894              2.580
 Vibration     6          0.631              1.862              2.290
 Vibration     7          0.647              1.811              1.963
 Vibration     8          0.659              1.775              1.784
 Vibration     9          0.673              1.732              1.611
 Vibration    10          0.706              1.634              1.308
 Vibration    11          0.721              1.593              1.207
 Vibration    12          0.733              1.559              1.131
 Vibration    13          0.739              1.543              1.099
 Vibration    14          0.751              1.511              1.035
 Vibration    15          0.785              1.422              0.884
 Vibration    16          0.790              1.409              0.864
 Vibration    17          0.818              1.337              0.764
 Vibration    18          0.841              1.283              0.696
 Vibration    19          0.875              1.205              0.609
 Vibration    20          0.899              1.154              0.557

                           ! Non-Optimized Parameters !
 Normal termination of Gaussian 16 at Wed Dec  9 23:40:21 2020.

 ----------------------------------------------------------------------
 # B3LYP/6-311++G(d,p) empiricaldispersion=gd3bj scf=xqc pop=npa geom=c
 heck
 ----------------------------------------------------------------------

 -------------------------------------
 CID_3367705_JID_3530_Energie_neutraal
 -------------------------------------
 Structure from the checkpoint file:  "JID_3530.chk"
 Charge =  0 Multiplicity = 1

 SCF Done:  E(RB3LYP) =  -1333.12088857     A.U. after   16 cycles
 Normal termination of Gaussian 16 at Wed Dec  9 23:42:57 2020.

 ----------------------------------------------------------------------
 # B3LYP/6-311++G(d,p) empiricaldispersion=gd3bj scf=xqc pop=npa geom=c
 heck
 ----------------------------------------------------------------------

 -----------------------------------
 CID_3367705_JID_3530_Energie_kation
 -----------------------------------
 Structure from the checkpoint file:  "JID_3530.chk"
 Charge =  1 Multiplicity = 2

 SCF Done:  E(UB3LYP) =  -1332.82204548     A.U. after   25 cycles
 Normal termination of Gaussian 16 at Wed Dec  9 23:48:33 2020.
 Gaussian 16:  ES64L-G16RevA.03 25-Dec-2016

 ----------------------------------------------------------------------
 # B3LYP/6-311++G(d,p) empiricaldispersion=gd3bj scf=xqc pop=npa geom=c
 heck
 ----------------------------------------------------------------------

 ----------------------------------
 CID_3367705_JID_3530_Energie_anion
 ----------------------------------
 Structure from the checkpoint file:  "JID_3530.chk"
 Charge = -1 Multiplicity = 2

                         Standard orientation:
 ---------------------------------------------------------------------
 Center     Atomic      Atomic             Coordinates (Angstroms)
 Number     Number       Type             X           Y           Z
 ---------------------------------------------------------------------
      1          6           0        4.059191   -0.305646   -0.300087
      2         16           0        2.285311   -0.579956   -0.108629
      3          8           0        1.852725   -1.490849   -1.172437
      4          8           0        2.034367   -0.914247    1.304580
      5         16           0        1.540581    1.402467   -0.469243
      6          6           0        0.256851    1.446567    0.881494
      7          6           0       -1.039431    0.781786    0.529934
      8          6           0       -2.052922    1.491791   -0.120633
      9          6           0       -3.255189    0.877964   -0.461506
     10          6           0       -3.456873   -0.471139   -0.152863
     11          6           0       -2.452314   -1.195042    0.497257
     12          6           0       -1.257115   -0.570322    0.832180
     13          8           0       -4.613099   -1.131660   -0.457755
     14          1           0        4.532591   -1.283803   -0.184272
     15          1           0        4.392219    0.386970    0.472822
     16          1           0        4.246809    0.091217   -1.299443
     17          1           0        0.727882    1.000576    1.759675
     18          1           0        0.131708    2.518580    1.060772
     19          1           0       -1.902988    2.539925   -0.368446
     20          1           0       -4.036195    1.444915   -0.964426
     21          1           0       -2.624286   -2.240921    0.728363
     22          1           0       -0.475146   -1.137339    1.327090
     23          1           0       -5.211999   -0.522017   -0.915952
 ---------------------------------------------------------------------

 SCF Done:  E(UB3LYP) =  -1333.12372567     A.U. after   33 cycles
 SCF Done:  E(UB3LYP) =  -1333.12372567     a.u. after    1 cycles

 The electronic state is 2-A.
 Alpha  occ. eigenvalues --  -88.89909 -88.71416 -19.05605 -18.99006 -18.98864
 Alpha  occ. eigenvalues --  -10.13324 -10.09341 -10.09018 -10.07213 -10.07155
 Alpha  occ. eigenvalues --  -10.07114 -10.06651 -10.06594  -7.96796  -7.80086
 Alpha  occ. eigenvalues --   -5.92990  -5.92900  -5.92850  -5.76496  -5.76167
 Alpha  occ. eigenvalues --   -5.75441  -0.98012  -0.96658  -0.87930  -0.75428
 Alpha  occ. eigenvalues --   -0.68520  -0.66160  -0.64776  -0.61868  -0.55303
 Alpha  occ. eigenvalues --   -0.52128  -0.49380  -0.46139  -0.44531  -0.38816
 Alpha  occ. eigenvalues --   -0.38117  -0.36414  -0.36113  -0.35420  -0.33630
 Alpha  occ. eigenvalues --   -0.32463  -0.31783  -0.31398  -0.31239  -0.30119
 Alpha  occ. eigenvalues --   -0.28229  -0.26866  -0.25556  -0.23890  -0.22224
 Alpha  occ. eigenvalues --   -0.20601  -0.19948  -0.18601  -0.16556  -0.15398
 Alpha  occ. eigenvalues --   -0.12568  -0.11277   0.03996
 Alpha virt. eigenvalues --    0.05411   0.07474   0.08178   0.08780   0.09436
 Alpha virt. eigenvalues --    0.09665   0.10266   0.10989   0.11210   0.12063
 Alpha virt. eigenvalues --    0.13130   0.13654   0.14639   0.15157   0.15282

  Beta  occ. eigenvalues --  -88.89720 -88.71250 -19.05578 -18.98882 -18.98783
  Beta  occ. eigenvalues --  -10.13329 -10.09269 -10.09015 -10.07197 -10.07136
  Beta  occ. eigenvalues --  -10.07108 -10.06643 -10.06585  -7.96582  -7.79924
  Beta  occ. eigenvalues --   -5.92848  -5.92712  -5.92528  -5.76101  -5.75998
  Beta  occ. eigenvalues --   -5.75335  -0.97653  -0.96607  -0.87651  -0.75397
  Beta  occ. eigenvalues --   -0.68250  -0.65895  -0.64738  -0.61535  -0.54868
  Beta  occ. eigenvalues --   -0.52045  -0.49189  -0.45732  -0.44480  -0.38757
  Beta  occ. eigenvalues --   -0.37752  -0.36241  -0.35844  -0.35267  -0.33569
  Beta  occ. eigenvalues --   -0.32400  -0.31654  -0.31298  -0.31075  -0.29954
  Beta  occ. eigenvalues --   -0.28117  -0.26762  -0.25337  -0.23852  -0.22001
  Beta  occ. eigenvalues --   -0.20347  -0.19698  -0.18497  -0.15697  -0.15328
  Beta  occ. eigenvalues --   -0.12337  -0.11010
  Beta virt. eigenvalues --    0.06602   0.07246   0.08366   0.08499   0.09237
  Beta virt. eigenvalues --    0.09597   0.10252   0.10385   0.11078   0.11542
  Beta virt. eigenvalues --    0.12130   0.13222   0.13865   0.14683   0.15177

 Mulliken charges and spin densities:
               1          2
     1  C   -0.112689  -0.414705
     2  S   -0.530198   0.437028
     3  O   -0.125694   0.036660
     4  O   -0.233726   0.025981
     5  S    0.045575   0.074528
     6  C    0.226492  -0.812439
     7  C    0.532214   0.711895
     8  C   -0.570970   0.168346
     9  C   -0.133303   0.035307
    10  C    0.697385  -1.099672
    11  C   -0.033150  -0.293087
    12  C   -0.622423   0.251200
    13  O   -0.271797   0.032697
    14  H   -0.071792   0.256472
    15  H    0.087113   0.103348
    16  H    0.154190   0.042137
    17  H    0.202078   0.022357
    18  H    0.065691   0.191670
    19  H   -0.012258   0.155374
    20  H   -0.559411   0.696801
    21  H    0.175646  -0.000543
    22  H    0.145588   0.057423
    23  H   -0.054561   0.321222
 Sum of Mulliken charges =  -1.00000   1.00000

 Dipole moment (field-independent basis, Debye):
    X=              1.1503    Y=              0.7714    Z=              1.9548  Tot=              2.3957
 Quadrupole moment (field-independent basis, Debye-Ang):
   XX=           -152.2853   YY=           -118.5733   ZZ=           -111.7554
   XY=              3.0126   XZ=             -4.7520   YZ=              1.5734

 Summary of Natural Population Analysis:

                                       Natural Population
                Natural  -----------------------------------------------
    Atom  No    Charge         Core      Valence    Rydberg      Total
 -----------------------------------------------------------------------
      C    1   -0.38572      0.99961     2.37916    0.00695     3.38572
      S    2    0.98163      4.99942     1.92373    0.09523     7.01837
      O    3   -0.46104      0.99991     3.45401    0.00713     4.46104
      O    4   -0.46935      0.99991     3.46240    0.00704     4.46935
      S    5    0.04308      4.99968     2.94248    0.01477     7.95692
      C    6   -0.25674      0.99954     2.24365    0.01356     3.25674
      C    7   -0.04341      0.99949     2.03286    0.01105     3.04341
      C    8   -0.08482      0.99952     2.07532    0.00998     3.08482
      C    9   -0.13942      0.99952     2.12991    0.00998     3.13942
      C   10    0.15282      0.99939     1.83421    0.01359     2.84718
      C   11   -0.12204      0.99952     2.11363    0.00889     3.12204
      C   12   -0.08689      0.99952     2.07892    0.00844     3.08689
      O   13   -0.34309      0.99988     3.33642    0.00680     4.34309
      H   14    0.11116      0.00000     0.38619    0.00265     0.38884
      H   15    0.11267      0.00000     0.38589    0.00144     0.38733
      H   16    0.11106      0.00000     0.38776    0.00118     0.38894
      H   17    0.11933      0.00000     0.37917    0.00150     0.38067
      H   18    0.10910      0.00000     0.38971    0.00119     0.39090
      H   19    0.10082      0.00000     0.39799    0.00119     0.39918
      H   20    0.09913      0.00000     0.39918    0.00169     0.40087
      H   21    0.10362      0.00000     0.39550    0.00088     0.39638
      H   22    0.11323      0.00000     0.38485    0.00191     0.38677
      H   23    0.23489      0.00000     0.26087    0.00424     0.26511
 =======================================================================
   * Total *   -0.00000     20.99491    35.77381    0.23128    57.00000

 Normal termination of Gaussian 16 at Wed Dec  9 23:56:01 2020.
