 Gaussian 16, Revision A.03,

 -----------------------------------------------------------
 # opt freq B3LYP/6-31G(d) empiricaldispersion=gd3bj scf=xqc
 -----------------------------------------------------------

 -------------------------------
 CID_107893423_JID_5634_neutraal
 -------------------------------
 Symbolic Z-matrix:
 Charge =  0 Multiplicity = 1

 SCF Done:  E(RB3LYP) =  -605.746353824     A.U. after   12 cycles
 SCF Done:  E(RB3LYP) =  -605.751502964     A.U. after   10 cycles
 SCF Done:  E(RB3LYP) =  -605.748929667     A.U. after   11 cycles
 SCF Done:  E(RB3LYP) =  -605.751277640     A.U. after   10 cycles
 SCF Done:  E(RB3LYP) =  -605.752051883     A.U. after    8 cycles
 SCF Done:  E(RB3LYP) =  -605.752089291     A.U. after   10 cycles
 SCF Done:  E(RB3LYP) =  -605.752639944     A.U. after   10 cycles
 SCF Done:  E(RB3LYP) =  -605.752763251     A.U. after   10 cycles
 SCF Done:  E(RB3LYP) =  -605.752796250     A.U. after   10 cycles
 SCF Done:  E(RB3LYP) =  -605.752833038     A.U. after    9 cycles
 SCF Done:  E(RB3LYP) =  -605.753873444     A.U. after   10 cycles
 SCF Done:  E(RB3LYP) =  -605.753878429     A.U. after    7 cycles
 SCF Done:  E(RB3LYP) =  -605.753879791     A.U. after    7 cycles
 SCF Done:  E(RB3LYP) =  -605.753880321     A.U. after    7 cycles
 SCF Done:  E(RB3LYP) =  -605.753880501     A.U. after    6 cycles
 SCF Done:  E(RB3LYP) =  -605.753880561     A.U. after    6 cycles
 Optimization completed.
    -- Stationary point found.
 Normal termination of Gaussian 16 at Thu Dec 10 17:35:17 2020.

 --------------------------------------------------------------------
 #N Geom=AllCheck Guess=TCheck SCRF=Check GenChk RB3LYP/6-31G(d) Freq
 --------------------------------------------------------------------

 Structure from the checkpoint file:  "JID_5634.chk"
 -------------------------------
 CID_107893423_JID_5634_neutraal
 -------------------------------
 Charge =  0 Multiplicity = 1

 SCF Done:  E(RB3LYP) =  -605.753880561     A.U. after    1 cycles

  Exact polarizability: 171.689  -0.575 155.804   1.667  -0.149 131.270
 Approx polarizability: 212.204  -2.714 211.085   4.758   2.880 202.497

                      1                      2                      3
                      A                      A                      A
 Frequencies --     27.5417                34.4575                53.6667
 Red. masses --      3.1268                 2.9456                 3.2428
 Frc consts  --      0.0014                 0.0021                 0.0055
 IR Inten    --      0.1576                 0.2274                 0.0672

                      4                      5                      6
                      A                      A                      A
 Frequencies --     64.7680                70.8036               114.9278
 Red. masses --      2.6458                 2.6768                 2.2943
 Frc consts  --      0.0065                 0.0079                 0.0179
 IR Inten    --      0.0278                 0.0265                 0.0104

                      7                      8                      9
                      A                      A                      A
 Frequencies --    121.0402               146.2432               160.2165
 Red. masses --      2.0670                 2.5811                 2.6649
 Frc consts  --      0.0178                 0.0325                 0.0403
 IR Inten    --      0.1041                 0.0920                 0.0577

                     10                     11                     12
                      A                      A                      A
 Frequencies --    179.0053               214.3168               217.0694
 Red. masses --      2.0053                 1.3108                 1.1965
 Frc consts  --      0.0379                 0.0355                 0.0332
 IR Inten    --      0.0567                 0.2678                 0.1119

                     13                     14                     15
                      A                      A                      A
 Frequencies --    224.0677               237.7099               246.1462
 Red. masses --      2.2103                 1.1807                 1.0900
 Frc consts  --      0.0654                 0.0393                 0.0389
 IR Inten    --      0.6664                 0.3187                 0.0898

                     16                     17                     18
                      A                      A                      A
 Frequencies --    255.0682               297.5325               305.6914
 Red. masses --      1.3985                 2.0800                 2.1702
 Frc consts  --      0.0536                 0.1085                 0.1195
 IR Inten    --      0.1416                 0.0559                 0.0674

                     19                     20                     21
                      A                      A                      A
 Frequencies --    350.9783               361.5063               370.8159
 Red. masses --      2.1754                 2.4274                 2.3823
 Frc consts  --      0.1579                 0.1869                 0.1930
 IR Inten    --      0.2291                 3.7476                 2.8045

                     22                     23                     24
                      A                      A                      A
 Frequencies --    382.6502               387.7121               418.9556
 Red. masses --      2.0632                 2.2254                 2.6913
 Frc consts  --      0.1780                 0.1971                 0.2783
 IR Inten    --      2.2545                 1.3285                 1.3199

                     25                     26                     27
                      A                      A                      A
 Frequencies --    447.5021               477.0023               494.2382
 Red. masses --      2.0765                 2.3658                 2.4014
 Frc consts  --      0.2450                 0.3172                 0.3456
 IR Inten    --      2.5615                 0.5108                 2.4100

                     28                     29                     30
                      A                      A                      A
 Frequencies --    529.8089               634.7367               695.8297
 Red. masses --      2.3957                 2.4478                 2.5104
 Frc consts  --      0.3962                 0.5810                 0.7161
 IR Inten    --      4.5623                 7.3665                21.4165

                     31                     32                     33
                      A                      A                      A
 Frequencies --    714.4973               759.6264               781.6759
 Red. masses --      1.9407                 1.3388                 1.4756
 Frc consts  --      0.5837                 0.4552                 0.5312
 IR Inten    --     22.7755                 6.4858                 5.1656

                     34                     35                     36
                      A                      A                      A
 Frequencies --    795.1597               857.7801               869.7118
 Red. masses --      2.1847                 2.1489                 1.6666
 Frc consts  --      0.8139                 0.9316                 0.7427
 IR Inten    --      7.5721                 3.4460                 0.2077

                     37                     38                     39
                      A                      A                      A
 Frequencies --    876.5027               892.5478               901.9028
 Red. masses --      2.3477                 1.6875                 1.4830
 Frc consts  --      1.0627                 0.7921                 0.7108
 IR Inten    --     15.8798                 1.6111                 3.6953

                     40                     41                     42
                      A                      A                      A
 Frequencies --    910.9609               934.4633               938.3402
 Red. masses --      1.6421                 1.6115                 1.4734
 Frc consts  --      0.8029                 0.8291                 0.7643
 IR Inten    --      5.8606                 7.1148                 2.6224

                     43                     44                     45
                      A                      A                      A
 Frequencies --    980.9916               985.7783              1009.9180
 Red. masses --      1.4636                 1.6908                 1.7142
 Frc consts  --      0.8298                 0.9681                 1.0301
 IR Inten    --      0.4953                 6.1751                 4.6571

                     46                     47                     48
                      A                      A                      A
 Frequencies --   1024.2817              1030.4074              1046.8776
 Red. masses --      1.5480                 1.4625                 1.7500
 Frc consts  --      0.9569                 0.9149                 1.1300
 IR Inten    --      1.3092                 1.5241                 5.2876

                     49                     50                     51
                      A                      A                      A
 Frequencies --   1058.1888              1073.7875              1079.2501
 Red. masses --      1.8842                 1.5162                 1.3189
 Frc consts  --      1.2431                 1.0300                 0.9051
 IR Inten    --      8.8687                 3.0115                 5.8960

                     52                     53                     54
                      A                      A                      A
 Frequencies --   1088.4054              1106.6978              1125.3032
 Red. masses --      2.2977                 2.1460                 1.4367
 Frc consts  --      1.6037                 1.5486                 1.0719
 IR Inten    --      1.2886                22.5961                 9.0592

                     55                     56                     57
                      A                      A                      A
 Frequencies --   1148.5809              1162.4757              1168.9214
 Red. masses --      2.0246                 2.0882                 1.9179
 Frc consts  --      1.5737                 1.6626                 1.5440
 IR Inten    --      1.7247                11.2219                 1.8223

                     58                     59                     60
                      A                      A                      A
 Frequencies --   1171.7045              1185.7505              1190.2832
 Red. masses --      2.3741                 2.1157                 2.0807
 Frc consts  --      1.9204                 1.7527                 1.7368
 IR Inten    --     33.4825                10.8404                11.4021

                     61                     62                     63
                      A                      A                      A
 Frequencies --   1201.6166              1264.0064              1288.5491
 Red. masses --      2.2184                 1.4245                 1.3742
 Frc consts  --      1.8872                 1.3409                 1.3443
 IR Inten    --      3.1444                 0.5256                 1.3084

                     64                     65                     66
                      A                      A                      A
 Frequencies --   1296.3023              1304.7759              1309.9802
 Red. masses --      1.2963                 1.5912                 1.2474
 Frc consts  --      1.2834                 1.5960                 1.2612
 IR Inten    --      1.5199                 0.9712                 1.9188

                     67                     68                     69
                      A                      A                      A
 Frequencies --   1336.8451              1359.0382              1362.0763
 Red. masses --      1.2810                 1.4221                 1.6377
 Frc consts  --      1.3489                 1.5475                 1.7901
 IR Inten    --      5.0784                 6.6893                 1.3397

                     70                     71                     72
                      A                      A                      A
 Frequencies --   1382.2084              1393.3188              1401.6379
 Red. masses --      1.4559                 1.3639                 1.3593
 Frc consts  --      1.6388                 1.5600                 1.5734
 IR Inten    --      0.1693                11.4834                 5.6552

                     73                     74                     75
                      A                      A                      A
 Frequencies --   1403.8241              1407.6369              1424.6434
 Red. masses --      1.2718                 1.3807                 1.2919
 Frc consts  --      1.4767                 1.6119                 1.5448
 IR Inten    --      9.2130                 0.6114                 2.8328

                     76                     77                     78
                      A                      A                      A
 Frequencies --   1427.5519              1436.2668              1441.9993
 Red. masses --      1.2980                 1.3414                 1.3057
 Frc consts  --      1.5585                 1.6303                 1.5996
 IR Inten    --      6.7844                 8.7787                 2.5396

                     79                     80                     81
                      A                      A                      A
 Frequencies --   1442.6028              1445.5447              1456.5077
 Red. masses --      1.2960                 1.3401                 1.2439
 Frc consts  --      1.5891                 1.6499                 1.5547
 IR Inten    --      4.8137                 3.2079                 1.2133

                     82                     83                     84
                      A                      A                      A
 Frequencies --   1507.0255              1509.5358              1512.0332
 Red. masses --      1.0942                 1.0642                 1.0935
 Frc consts  --      1.4641                 1.4288                 1.4730
 IR Inten    --      5.7811                 0.8339                 5.2364

                     85                     86                     87
                      A                      A                      A
 Frequencies --   1516.0104              1519.2756              1522.4998
 Red. masses --      1.0692                 1.1737                 1.0820
 Frc consts  --      1.4479                 1.5962                 1.4778
 IR Inten    --      0.6171                 1.1310                 7.6273

                     88                     89                     90
                      A                      A                      A
 Frequencies --   1523.8860              1525.2754              1527.5434
 Red. masses --      1.0767                 1.0530                 1.1109
 Frc consts  --      1.4731                 1.4433                 1.5272
 IR Inten    --     10.6744                 5.0742                10.2942

                     91                     92                     93
                      A                      A                      A
 Frequencies --   1528.2605              1532.2328              1534.6857
 Red. masses --      1.0667                 1.0676                 1.0563
 Frc consts  --      1.4678                 1.4768                 1.4658
 IR Inten    --      1.4198                10.9028                 4.0206

                     94                     95                     96
                      A                      A                      A
 Frequencies --   1539.0329              1541.8745              1544.9768
 Red. masses --      1.0662                 1.0530                 1.1507
 Frc consts  --      1.4880                 1.4749                 1.6182
 IR Inten    --      2.1954                 4.1296                 1.7758

                     97                     98                     99
                      A                      A                      A
 Frequencies --   1546.0222              2986.3097              3018.5277
 Red. masses --      1.0601                 1.0822                 1.0676
 Frc consts  --      1.4929                 5.6862                 5.7311
 IR Inten    --     17.1404                14.2750                19.6477

                    100                    101                    102
                      A                      A                      A
 Frequencies --   3030.2325              3031.0438              3033.1153
 Red. masses --      1.0367                 1.0636                 1.0629
 Frc consts  --      5.6088                 5.7571                 5.7611
 IR Inten    --     33.8352                26.5239                28.8080

                    103                    104                    105
                      A                      A                      A
 Frequencies --   3037.3571              3040.2194              3041.8137
 Red. masses --      1.0505                 1.0435                 1.0513
 Frc consts  --      5.7098                 5.6826                 5.7312
 IR Inten    --     10.5840                65.8905                22.7173

                    106                    107                    108
                      A                      A                      A
 Frequencies --   3042.9841              3043.5781              3055.7788
 Red. masses --      1.0379                 1.0446                 1.0762
 Frc consts  --      5.6626                 5.7013                 5.9208
 IR Inten    --     26.6183                 7.1924                65.1815

                    109                    110                    111
                      A                      A                      A
 Frequencies --   3063.4740              3065.5988              3082.7418
 Red. masses --      1.0995                 1.0985                 1.0956
 Frc consts  --      6.0796                 6.0827                 6.1346
 IR Inten    --      6.9055                45.1534                35.5176

                    112                    113                    114
                      A                      A                      A
 Frequencies --   3085.2901              3085.8084              3089.4516
 Red. masses --      1.0992                 1.1019                 1.1011
 Frc consts  --      6.1648                 6.1817                 6.1923
 IR Inten    --     54.6490                 2.3397                80.2924

                    115                    116                    117
                      A                      A                      A
 Frequencies --   3105.7375              3107.6047              3108.8949
 Red. masses --      1.0980                 1.1013                 1.1009
 Frc consts  --      6.2398                 6.2664                 6.2689
 IR Inten    --     20.6389                59.3491                17.5857

                    118                    119                    120
                      A                      A                      A
 Frequencies --   3109.4630              3115.4514              3115.7451
 Red. masses --      1.0982                 1.1014                 1.1013
 Frc consts  --      6.2561                 6.2986                 6.2991
 IR Inten    --     92.4011                50.2846                49.9965

                    121                    122                    123
                      A                      A                      A
 Frequencies --   3131.3113              3143.1489              3150.5946
 Red. masses --      1.0857                 1.0592                 1.0987
 Frc consts  --      6.2718                 6.1656                 6.4256
 IR Inten    --     22.0248                18.5294                15.4749

                    124                    125                    126
                      A                      A                      A
 Frequencies --   3153.7616              3226.6993              3562.8671
 Red. masses --      1.0949                 1.1140                 1.0738
 Frc consts  --      6.4165                 6.8334                 8.0313
 IR Inten    --     14.9646                12.7184                 1.1955

 - Thermochemistry -
 -------------------
 Temperature   298.150 Kelvin.  Pressure   1.00000 Atm.
 Atom     1 has atomic number  6 and mass  12.00000

 Molecular mass:   211.23000 amu.
 Principal axes and moments of inertia in atomic units:
                           1         2         3
     Eigenvalues --  2586.293784526.031716082.75022
           X            0.99999   0.00314  -0.00405
           Y           -0.00313   0.99999   0.00407
           Z            0.00407  -0.00405   0.99998
 This molecule is an asymmetric top.
 Rotational symmetry number  1.
 Warning -- assumption of classical behavior for rotation
           may cause significant error
 Rotational temperatures (Kelvin)      0.03349     0.01914     0.01424
 Rotational constants (GHZ):           0.69781     0.39875     0.29670
 Zero-point vibrational energy    1085458.5 (Joules/Mol)
                                  259.43081 (Kcal/Mol)
 Warning -- explicit consideration of  28 degrees of freedom as
           vibrations may cause significant error
 Vibrational temperatures:     39.63    49.58    77.21    93.19   101.87
          (Kelvin)            165.36   174.15   210.41   230.52   257.55
                              308.35   312.31   322.38   342.01   354.15
                              366.99   428.08   439.82   504.98   520.13
                              533.52   550.55   557.83   602.78   643.86
                              686.30   711.10   762.28   913.24  1001.14
                             1028.00  1092.93  1124.66  1144.06  1234.15
                             1251.32  1261.09  1284.18  1297.64  1310.67
                             1344.48  1350.06  1411.43  1418.32  1453.05
                             1473.71  1482.53  1506.22  1522.50  1544.94
                             1552.80  1565.97  1592.29  1619.06  1652.55
                             1672.54  1681.82  1685.82  1706.03  1712.55
                             1728.86  1818.62  1853.93  1865.09  1877.28
                             1884.77  1923.42  1955.35  1959.72  1988.69
                             2004.67  2016.64  2019.79  2025.28  2049.74
                             2053.93  2066.47  2074.72  2075.58  2079.82
                             2095.59  2168.27  2171.89  2175.48  2181.20
                             2185.90  2190.54  2192.53  2194.53  2197.79
                             2198.83  2204.54  2208.07  2214.33  2218.41
                             2222.88  2224.38  4296.63  4342.99  4359.83
                             4361.00  4363.98  4370.08  4374.20  4376.49
                             4378.18  4379.03  4396.58  4407.66  4410.71
                             4435.38  4439.04  4439.79  4445.03  4468.46
                             4471.15  4473.01  4473.82  4482.44  4482.86
                             4505.26  4522.29  4533.00  4537.56  4642.50
                             5126.17

 Zero-point correction=                           0.413429 (Hartree/Particle)
 Thermal correction to Energy=                    0.432333
 Thermal correction to Enthalpy=                  0.433277
 Thermal correction to Gibbs Free Energy=         0.366368
 Sum of electronic and zero-point Energies=           -605.340451
 Sum of electronic and thermal Energies=              -605.321548
 Sum of electronic and thermal Enthalpies=            -605.320603
 Sum of electronic and thermal Free Energies=         -605.387512

                     E (Thermal)             CV                S
                      KCal/Mol        Cal/Mol-Kelvin    Cal/Mol-Kelvin
 Total                  271.293             71.245            140.822
 Electronic               0.000              0.000              0.000
 Translational            0.889              2.981             41.947
 Rotational               0.889              2.981             32.632
 Vibrational            269.516             65.284             66.243
 Vibration     1          0.593              1.984              5.999
 Vibration     2          0.594              1.983              5.555
 Vibration     3          0.596              1.976              4.677
 Vibration     4          0.597              1.971              4.306
 Vibration     5          0.598              1.968              4.131
 Vibration     6          0.608              1.937              3.184
 Vibration     7          0.609              1.932              3.084
 Vibration     8          0.617              1.907              2.721
 Vibration     9          0.622              1.891              2.547
 Vibration    10          0.629              1.868              2.339
 Vibration    11          0.644              1.819              2.007
 Vibration    12          0.646              1.815              1.983
 Vibration    13          0.649              1.804              1.926
 Vibration    14          0.656              1.783              1.820
 Vibration    15          0.661              1.769              1.758
 Vibration    16          0.665              1.754              1.695
 Vibration    17          0.691              1.678              1.431
 Vibration    18          0.696              1.663              1.386
 Vibration    19          0.728              1.573              1.162
 Vibration    20          0.736              1.552              1.116
 Vibration    21          0.743              1.532              1.076
 Vibration    22          0.752              1.507              1.029
 Vibration    23          0.756              1.496              1.009
 Vibration    24          0.782              1.429              0.896
 Vibration    25          0.807              1.366              0.803
 Vibration    26          0.834              1.301              0.718
 Vibration    27          0.850              1.263              0.673
 Vibration    28          0.885              1.184              0.588

                           ! Non-Optimized Parameters !
 Normal termination of Gaussian 16 at Thu Dec 10 17:54:59 2020.

 ----------------------------------------------------------------------
 # B3LYP/6-311++G(d,p) empiricaldispersion=gd3bj scf=xqc pop=npa geom=c
 heck
 ----------------------------------------------------------------------

 ---------------------------------------
 CID_107893423_JID_5634_Energie_neutraal
 ---------------------------------------
 Structure from the checkpoint file:  "JID_5634.chk"
 Charge =  0 Multiplicity = 1

 SCF Done:  E(RB3LYP) =  -605.923269709     A.U. after   13 cycles
 Normal termination of Gaussian 16 at Thu Dec 10 18:04:28 2020.

 ----------------------------------------------------------------------
 # B3LYP/6-311++G(d,p) empiricaldispersion=gd3bj scf=xqc pop=npa geom=c
 heck
 ----------------------------------------------------------------------

 -------------------------------------
 CID_107893423_JID_5634_Energie_kation
 -------------------------------------
 Structure from the checkpoint file:  "JID_5634.chk"
 Charge =  1 Multiplicity = 2

 SCF Done:  E(UB3LYP) =  -605.638976922     A.U. after   18 cycles
 Normal termination of Gaussian 16 at Thu Dec 10 18:22:37 2020.
 Gaussian 16:  ES64L-G16RevA.03 25-Dec-2016

 ----------------------------------------------------------------------
 # B3LYP/6-311++G(d,p) empiricaldispersion=gd3bj scf=xqc pop=npa geom=c
 heck
 ----------------------------------------------------------------------

 ------------------------------------
 CID_107893423_JID_5634_Energie_anion
 ------------------------------------
 Structure from the checkpoint file:  "JID_5634.chk"
 Charge = -1 Multiplicity = 2

                         Standard orientation:
 ---------------------------------------------------------------------
 Center     Atomic      Atomic             Coordinates (Angstroms)
 Number     Number       Type             X           Y           Z
 ---------------------------------------------------------------------
      1          6           0       -4.248589    0.493648    0.097902
      2          6           0       -3.771772   -0.764719   -0.634469
      3          6           0       -2.268962   -0.770942   -0.952200
      4          6           0       -1.325487   -0.761456    0.266540
      5          6           0       -1.448202   -2.060968    1.068423
      6          6           0        0.134615   -0.525256   -0.211183
      7          6           0        0.435655    0.889334   -0.725570
      8          6           0       -0.530294    2.054402   -0.743909
      9          6           0        0.676746    2.109901    0.157985
     10          6           0        0.447024    2.064826    1.660358
     11          6           0        1.816701    3.028925   -0.244624
     12          7           0        1.133800   -0.912676    0.804445
     13          6           0        1.969020   -2.064989    0.475377
     14          6           0        2.938087   -1.888812   -0.709301
     15          6           0        3.964894   -0.774833   -0.489451
     16          1           0       -3.788209    0.587104    1.087743
     17          1           0       -5.334928    0.480723    0.241094
     18          1           0       -3.998453    1.397968   -0.470972
     19          1           0       -4.035950   -1.651981   -0.045363
     20          1           0       -4.323549   -0.856682   -1.579421
     21          1           0       -2.036612   -1.665652   -1.548803
     22          1           0       -2.045575    0.087730   -1.596823
     23          1           0       -1.610759    0.061406    0.933304
     24          1           0       -1.229831   -2.932847    0.436877
     25          1           0       -0.743793   -2.060480    1.902817
     26          1           0       -2.460838   -2.187724    1.465309
     27          1           0        0.257818   -1.191506   -1.078909
     28          1           0        1.107495    0.865483   -1.582584
     29          1           0       -1.496119    1.925851   -0.265477
     30          1           0       -0.558869    2.686251   -1.628708
     31          1           0       -0.321816    1.344692    1.947021
     32          1           0        1.364530    1.794680    2.198403
     33          1           0        0.138786    3.054544    2.020835
     34          1           0        2.769281    2.691481    0.184865
     35          1           0        1.936093    3.067508   -1.332976
     36          1           0        1.638498    4.052667    0.109231
     37          1           0        1.722197   -0.115904    1.018423
     38          1           0        2.549109   -2.319907    1.373246
     39          1           0        1.307548   -2.917867    0.283582
     40          1           0        3.458421   -2.841760   -0.877067
     41          1           0        2.367484   -1.686302   -1.625855
     42          1           0        4.560208   -0.959150    0.413874
     43          1           0        4.656831   -0.696482   -1.334913
     44          1           0        3.477799    0.200519   -0.375134
 ---------------------------------------------------------------------

 SCF Done:  E(UB3LYP) =  -605.908077158     A.U. after   29 cycles

 The electronic state is 2-A.
 Alpha  occ. eigenvalues --  -14.19289 -10.10267 -10.09384 -10.09088 -10.07935
 Alpha  occ. eigenvalues --  -10.07299 -10.07216 -10.07050 -10.06895 -10.06785
 Alpha  occ. eigenvalues --  -10.06702 -10.06605 -10.06587 -10.06265 -10.05693
 Alpha  occ. eigenvalues --   -0.81321  -0.76950  -0.71639  -0.67838  -0.65754
 Alpha  occ. eigenvalues --   -0.63588  -0.59983  -0.59403  -0.58507  -0.55824
 Alpha  occ. eigenvalues --   -0.51960  -0.48671  -0.47925  -0.46188  -0.44138
 Alpha  occ. eigenvalues --   -0.40077  -0.38283  -0.37519  -0.36770  -0.36120
 Alpha  occ. eigenvalues --   -0.34457  -0.34219  -0.32932  -0.32240  -0.32145
 Alpha  occ. eigenvalues --   -0.31446  -0.31150  -0.30126  -0.29339  -0.28956
 Alpha  occ. eigenvalues --   -0.28406  -0.27584  -0.26530  -0.26289  -0.25434
 Alpha  occ. eigenvalues --   -0.25260  -0.24604  -0.24287  -0.24028  -0.22673
 Alpha  occ. eigenvalues --   -0.22122  -0.21833  -0.18910  -0.17416  -0.12169
 Alpha  occ. eigenvalues --    0.04228
 Alpha virt. eigenvalues --    0.05900   0.06440   0.06921   0.07795   0.08103
 Alpha virt. eigenvalues --    0.08401   0.08784   0.09035   0.09859   0.10203
 Alpha virt. eigenvalues --    0.10711   0.10994   0.11148   0.11399   0.12194

  Beta  occ. eigenvalues --  -14.19285 -10.10263 -10.09373 -10.09088 -10.07925
  Beta  occ. eigenvalues --  -10.07286 -10.07212 -10.07034 -10.06879 -10.06765
  Beta  occ. eigenvalues --  -10.06679 -10.06580 -10.06577 -10.06233 -10.05682
  Beta  occ. eigenvalues --   -0.81309  -0.76935  -0.71622  -0.67809  -0.65727
  Beta  occ. eigenvalues --   -0.63558  -0.59948  -0.59363  -0.58475  -0.55781
  Beta  occ. eigenvalues --   -0.51920  -0.48621  -0.47881  -0.46152  -0.44106
  Beta  occ. eigenvalues --   -0.40048  -0.38259  -0.37498  -0.36736  -0.36096
  Beta  occ. eigenvalues --   -0.34428  -0.34193  -0.32904  -0.32219  -0.32116
  Beta  occ. eigenvalues --   -0.31421  -0.31126  -0.30103  -0.29312  -0.28926
  Beta  occ. eigenvalues --   -0.28378  -0.27558  -0.26505  -0.26263  -0.25407
  Beta  occ. eigenvalues --   -0.25233  -0.24576  -0.24251  -0.24003  -0.22651
  Beta  occ. eigenvalues --   -0.22101  -0.21812  -0.18887  -0.17400  -0.12160
  Beta virt. eigenvalues --    0.06088   0.06675   0.06959   0.07440   0.08161
  Beta virt. eigenvalues --    0.08381   0.08809   0.09175   0.09354   0.10210
  Beta virt. eigenvalues --    0.10456   0.10963   0.11346   0.11379   0.11651

 Mulliken charges and spin densities:
               1          2
     1  C    0.264191  -0.804820
     2  C   -0.311726  -0.156032
     3  C   -0.545322   0.291880
     4  C    0.206700   0.105738
     5  C    0.210749  -0.935805
     6  C   -0.178838  -0.366938
     7  C    0.294486  -0.403143
     8  C   -0.407236  -0.134008
     9  C   -0.693110   1.015952
    10  C   -0.369851  -0.252355
    11  C    1.086961  -1.583785
    12  N    0.100595   0.081918
    13  C    0.031258  -0.286362
    14  C   -0.541934   0.489429
    15  C    0.591967  -1.200524
    16  H   -0.081245   0.236136
    17  H   -0.321526   0.476176
    18  H   -0.061075   0.198024
    19  H    0.079037   0.036510
    20  H   -0.127704   0.288723
    21  H   -0.105804   0.235012
    22  H    0.049984   0.131976
    23  H    0.193802  -0.187747
    24  H    0.027790   0.119622
    25  H    0.144396   0.021286
    26  H    0.092048   0.039526
    27  H    0.346827  -0.133200
    28  H    0.078905   0.176233
    29  H    0.584457  -0.418671
    30  H   -0.606344   0.801487
    31  H   -0.027524   0.194407
    32  H   -0.112312   0.251113
    33  H   -0.102116   0.247838
    34  H   -0.050836   0.198126
    35  H   -0.139535   0.276005
    36  H   -0.188877   0.328760
    37  H    0.430872  -0.192335
    38  H   -0.171204   0.337714
    39  H    0.090888   0.029426
    40  H   -0.373958   0.538993
    41  H   -0.146232   0.261883
    42  H   -0.150239   0.285204
    43  H   -0.359605   0.499525
    44  H    0.268239  -0.138896
 Sum of Mulliken charges =  -1.00000   1.00000

 Dipole moment (field-independent basis, Debye):
    X=             -1.8885    Y=             -1.6521    Z=              1.7975  Tot=              3.0866
 Quadrupole moment (field-independent basis, Debye-Ang):
   XX=           -189.4709   YY=           -153.9334   ZZ=           -140.9224
   XY=              5.8639   XZ=              2.5690   YZ=              2.5413

 Summary of Natural Population Analysis:

                                       Natural Population
                Natural  -----------------------------------------------
    Atom  No    Charge         Core      Valence    Rydberg      Total
 -----------------------------------------------------------------------
      C    1   -0.28735      0.99967     2.28261    0.00507     3.28735
      C    2   -0.18938      0.99964     2.18184    0.00791     3.18938
      C    3   -0.18936      0.99961     2.18103    0.00872     3.18936
      C    4   -0.11575      0.99958     2.10615    0.01002     3.11575
      C    5   -0.28759      0.99964     2.28271    0.00523     3.28759
      C    6   -0.00842      0.99954     1.99432    0.01456     3.00842
      C    7   -0.11059      0.99953     2.09951    0.01155     3.11059
      C    8   -0.19406      0.99956     2.18474    0.00976     3.19406
      C    9   -0.04658      0.99955     2.03548    0.01154     3.04658
      C   10   -0.28424      0.99962     2.27834    0.00628     3.28424
      C   11   -0.27885      0.99962     2.27258    0.00665     3.27885
      N   12   -0.34739      0.99974     2.83660    0.01105     3.84739
      C   13   -0.08339      0.99962     2.07239    0.01138     3.08339
      C   14   -0.20047      0.99964     2.19351    0.00732     3.20047
      C   15   -0.28943      0.99966     2.28388    0.00588     3.28943
      H   16    0.09575      0.00000     0.40329    0.00096     0.40425
      H   17    0.09847      0.00000     0.40064    0.00089     0.40153
      H   18    0.09649      0.00000     0.40234    0.00116     0.40351
      H   19    0.09225      0.00000     0.40667    0.00108     0.40775
      H   20    0.09492      0.00000     0.40411    0.00098     0.40508
      H   21    0.09491      0.00000     0.40392    0.00117     0.40509
      H   22    0.10136      0.00000     0.39727    0.00137     0.39864
      H   23    0.09360      0.00000     0.40393    0.00246     0.40640
      H   24    0.09331      0.00000     0.40576    0.00093     0.40669
      H   25    0.11033      0.00000     0.38870    0.00097     0.38967
      H   26    0.09649      0.00000     0.40270    0.00081     0.40351
      H   27    0.09083      0.00000     0.40689    0.00227     0.40917
      H   28    0.10433      0.00000     0.39386    0.00181     0.39567
      H   29    0.10395      0.00000     0.39435    0.00170     0.39605
      H   30    0.10396      0.00000     0.39491    0.00113     0.39604
      H   31    0.10376      0.00000     0.39498    0.00125     0.39624
      H   32    0.09821      0.00000     0.40084    0.00095     0.40179
      H   33    0.09951      0.00000     0.39960    0.00088     0.40049
      H   34    0.09814      0.00000     0.40057    0.00130     0.40186
      H   35    0.10146      0.00000     0.39726    0.00128     0.39854
      H   36    0.09827      0.00000     0.40072    0.00101     0.40173
      H   37    0.17839      0.00000     0.31800    0.00361     0.32161
      H   38    0.09077      0.00000     0.40831    0.00092     0.40923
      H   39    0.09174      0.00000     0.40714    0.00112     0.40826
      H   40    0.09562      0.00000     0.40314    0.00124     0.40438
      H   41    0.09353      0.00000     0.40524    0.00123     0.40647
      H   42    0.09489      0.00000     0.40390    0.00122     0.40511
      H   43    0.10130      0.00000     0.39754    0.00116     0.39870
      H   44    0.09628      0.00000     0.40219    0.00153     0.40372
 =======================================================================
   * Total *    0.00000     14.99421    44.83447    0.17132    60.00000

 Normal termination of Gaussian 16 at Thu Dec 10 18:51:41 2020.
