 Gaussian 16, Revision A.03,

 -----------------------------------------------------------
 # opt freq B3LYP/6-31G(d) empiricaldispersion=gd3bj scf=xqc
 -----------------------------------------------------------

 -------------------------------
 CID_102641826_JID_3744_neutraal
 -------------------------------
 Symbolic Z-matrix:
 Charge =  0 Multiplicity = 1

 SCF Done:  E(RB3LYP) =  -918.276835531     A.U. after   15 cycles
 SCF Done:  E(RB3LYP) =  -918.279990517     A.U. after   13 cycles
 SCF Done:  E(RB3LYP) =  -918.279392375     A.U. after   13 cycles
 SCF Done:  E(RB3LYP) =  -918.280731730     A.U. after   12 cycles
 SCF Done:  E(RB3LYP) =  -918.281469900     A.U. after   12 cycles
 SCF Done:  E(RB3LYP) =  -918.281860077     A.U. after   12 cycles
 SCF Done:  E(RB3LYP) =  -918.281904718     A.U. after   11 cycles
 SCF Done:  E(RB3LYP) =  -918.281928511     A.U. after   10 cycles
 SCF Done:  E(RB3LYP) =  -918.281932015     A.U. after    9 cycles
 SCF Done:  E(RB3LYP) =  -918.281934380     A.U. after    8 cycles
 SCF Done:  E(RB3LYP) =  -918.281934911     A.U. after    8 cycles
 SCF Done:  E(RB3LYP) =  -918.281935017     A.U. after    7 cycles
 Optimization completed.
    -- Stationary point found.
 Normal termination of Gaussian 16 at Sun Dec 13 20:06:29 2020.

 --------------------------------------------------------------------
 #N Geom=AllCheck Guess=TCheck SCRF=Check GenChk RB3LYP/6-31G(d) Freq
 --------------------------------------------------------------------

 Structure from the checkpoint file:  "JID_3744.chk"
 -------------------------------
 CID_102641826_JID_3744_neutraal
 -------------------------------
 Charge =  0 Multiplicity = 1

 SCF Done:  E(RB3LYP) =  -918.281935017     A.U. after    1 cycles

  Exact polarizability: 152.258  -8.438 134.989  -4.257   0.667  91.491
 Approx polarizability: 211.099  -5.718 229.638 -14.278  -8.611 142.603

                      1                      2                      3
                      A                      A                      A
 Frequencies --     30.4040                59.4289                69.8634
 Red. masses --      4.5099                 1.1566                 2.7155
 Frc consts  --      0.0025                 0.0024                 0.0078
 IR Inten    --      0.2492                 0.3280                 0.0097

                      4                      5                      6
                      A                      A                      A
 Frequencies --     86.9441               117.2340               156.6706
 Red. masses --      5.7359                 3.1592                 3.6632
 Frc consts  --      0.0255                 0.0256                 0.0530
 IR Inten    --      0.2522                 0.4521                 7.1795

                      7                      8                      9
                      A                      A                      A
 Frequencies --    200.4582               228.4073               234.0658
 Red. masses --      3.4607                 3.3467                 3.7859
 Frc consts  --      0.0819                 0.1029                 0.1222
 IR Inten    --      1.1531                 3.2094                 4.1325

                     10                     11                     12
                      A                      A                      A
 Frequencies --    249.9672               277.0383               293.5980
 Red. masses --      1.4793                 1.8305                 1.7807
 Frc consts  --      0.0545                 0.0828                 0.0904
 IR Inten    --      0.4014                 0.1133                 6.7621

                     13                     14                     15
                      A                      A                      A
 Frequencies --    315.9104               354.9359               372.0414
 Red. masses --      2.8370                 2.6582                 2.7745
 Frc consts  --      0.1668                 0.1973                 0.2263
 IR Inten    --      2.9289                 1.8250                 1.9410

                     16                     17                     18
                      A                      A                      A
 Frequencies --    410.2473               469.8410               494.8584
 Red. masses --      1.9499                 1.2012                 3.0403
 Frc consts  --      0.1934                 0.1562                 0.4387
 IR Inten    --      6.1187               122.0469                39.0556

                     19                     20                     21
                      A                      A                      A
 Frequencies --    517.6120               533.9605               576.5567
 Red. masses --      3.9359                 3.3659                 6.2144
 Frc consts  --      0.6213                 0.5654                 1.2171
 IR Inten    --      0.3169                 1.4521                 0.9911

                     22                     23                     24
                      A                      A                      A
 Frequencies --    625.5517               653.7213               697.8040
 Red. masses --      4.4771                 5.6073                 2.5039
 Frc consts  --      1.0322                 1.4118                 0.7184
 IR Inten    --      8.9979                 9.3296                12.1145

                     25                     26                     27
                      A                      A                      A
 Frequencies --    742.9137               747.2631               781.3430
 Red. masses --      1.5157                 2.7422                 2.7032
 Frc consts  --      0.4929                 0.9022                 0.9723
 IR Inten    --     14.3230                 3.6800                 9.3333

                     28                     29                     30
                      A                      A                      A
 Frequencies --    863.0313               895.1266               909.2245
 Red. masses --      3.4808                 2.0191                 2.0142
 Frc consts  --      1.5275                 0.9532                 0.9810
 IR Inten    --      7.8142                 1.7877                 3.3542

                     31                     32                     33
                      A                      A                      A
 Frequencies --    941.9980               957.0602               986.6965
 Red. masses --      1.7885                 1.3829                 2.8796
 Frc consts  --      0.9351                 0.7463                 1.6518
 IR Inten    --      6.6122                42.1689                15.0030

                     34                     35                     36
                      A                      A                      A
 Frequencies --   1020.2914              1035.7833              1045.3398
 Red. masses --      1.4194                 2.2719                 1.1288
 Frc consts  --      0.8706                 1.4361                 0.7268
 IR Inten    --     19.0284                 0.6053                18.6474

                     37                     38                     39
                      A                      A                      A
 Frequencies --   1064.1306              1067.1948              1098.1576
 Red. masses --      1.4105                 1.6103                 3.0036
 Frc consts  --      0.9411                 1.0805                 2.1341
 IR Inten    --      0.6936                 9.4753                55.4735

                     40                     41                     42
                      A                      A                      A
 Frequencies --   1117.0407              1167.5129              1179.6111
 Red. masses --      2.2043                 1.7025                 2.0492
 Frc consts  --      1.6205                 1.3673                 1.6800
 IR Inten    --     32.9510                35.9350                 3.8842

                     43                     44                     45
                      A                      A                      A
 Frequencies --   1209.3905              1212.4600              1251.5303
 Red. masses --      2.7691                 1.4081                 1.8893
 Frc consts  --      2.3863                 1.2196                 1.7435
 IR Inten    --     44.8763                 3.8646                 3.3918

                     46                     47                     48
                      A                      A                      A
 Frequencies --   1322.2639              1352.6098              1364.4751
 Red. masses --      2.4275                 1.2850                 1.3815
 Frc consts  --      2.5006                 1.3852                 1.5154
 IR Inten    --     11.3278                 5.7551                 6.8334

                     49                     50                     51
                      A                      A                      A
 Frequencies --   1380.7498              1392.2318              1431.6242
 Red. masses --      2.2635                 1.2771                 1.2361
 Frc consts  --      2.5425                 1.4584                 1.4927
 IR Inten    --     15.4449                 1.4420                14.8991

                     52                     53                     54
                      A                      A                      A
 Frequencies --   1434.0330              1447.0614              1483.2921
 Red. masses --      1.2664                 1.2222                 1.2089
 Frc consts  --      1.5344                 1.5079                 1.5671
 IR Inten    --      1.5437                71.8389                 2.0516

                     55                     56                     57
                      A                      A                      A
 Frequencies --   1504.9667              1508.0815              1515.3344
 Red. masses --      1.1791                 1.0448                 1.0775
 Frc consts  --      1.5734                 1.4000                 1.4577
 IR Inten    --     16.7610                 8.6445                 1.7550

                     58                     59                     60
                      A                      A                      A
 Frequencies --   1526.8555              1535.4808              1536.8013
 Red. masses --      1.0713                 1.0756                 1.0779
 Frc consts  --      1.4716                 1.4941                 1.4998
 IR Inten    --      4.5963                 3.5393                 9.5766

                     61                     62                     63
                      A                      A                      A
 Frequencies --   1554.9270              1589.6873              1720.9014
 Red. masses --      4.9459                 6.2889                 4.2447
 Frc consts  --      7.0455                 9.3637                 7.4064
 IR Inten    --      2.0275                49.0642                 5.8233

                     64                     65                     66
                      A                      A                      A
 Frequencies --   2984.6328              3044.6889              3056.7445
 Red. masses --      1.0706                 1.0379                 1.0465
 Frc consts  --      5.6190                 5.6689                 5.7613
 IR Inten    --     74.7581                24.0572                32.6090

                     67                     68                     69
                      A                      A                      A
 Frequencies --   3056.8703              3087.3513              3106.2833
 Red. masses --      1.0586                 1.0925                 1.1014
 Frc consts  --      5.8284                 6.1356                 6.2614
 IR Inten    --      4.6786                31.4130                34.7549

                     70                     71                     72
                      A                      A                      A
 Frequencies --   3111.9530              3124.2607              3129.5879
 Red. masses --      1.1016                 1.0853                 1.0939
 Frc consts  --      6.2856                 6.2414                 6.3126
 IR Inten    --     10.9027                29.5982                 4.4844

                     73                     74                     75
                      A                      A                      A
 Frequencies --   3133.9679              3158.2864              3169.5259
 Red. masses --      1.1000                 1.1009                 1.0656
 Frc consts  --      6.3655                 6.4698                 6.3069
 IR Inten    --     22.5662                 4.9409                17.2128

                     76                     77                     78
                      A                      A                      A
 Frequencies --   3259.1647              3276.9896              3676.0706
 Red. masses --      1.1134                 1.0944                 1.0650
 Frc consts  --      6.9683                 6.9241                 8.4794
 IR Inten    --      5.7140                 2.0614                27.7741

 - Thermochemistry -
 -------------------
 Temperature   298.150 Kelvin.  Pressure   1.00000 Atm.
 Atom     1 has atomic number  6 and mass  12.00000

 Molecular mass:   197.08744 amu.
 Principal axes and moments of inertia in atomic units:
                           1         2         3
     Eigenvalues --  1335.502844462.941605039.61319
           X            0.99956  -0.02888   0.00629
           Y            0.02883   0.99955   0.00850
           Z           -0.00653  -0.00831   0.99994
 This molecule is an asymmetric top.
 Rotational symmetry number  1.
 Warning -- assumption of classical behavior for rotation
           may cause significant error
 Rotational temperatures (Kelvin)      0.06485     0.01941     0.01719
 Rotational constants (GHZ):           1.35136     0.40438     0.35811
 Zero-point vibrational energy     617859.1 (Joules/Mol)
                                  147.67187 (Kcal/Mol)
 Warning -- explicit consideration of  21 degrees of freedom as
           vibrations may cause significant error
 Vibrational temperatures:     43.74    85.50   100.52   125.09   168.67
          (Kelvin)            225.41   288.41   328.63   336.77   359.65
                              398.60   422.42   454.52   510.67   535.28
                              590.25   676.00   711.99   744.73   768.25
                              829.54   900.03   940.56  1003.98  1068.89
                             1075.14  1124.18  1241.71  1287.89  1308.17
                             1355.33  1377.00  1419.64  1467.97  1490.26
                             1504.01  1531.05  1535.46  1580.00  1607.17
                             1679.79  1697.20  1740.04  1744.46  1800.67
                             1902.44  1946.10  1963.18  1986.59  2003.11
                             2059.79  2063.25  2082.00  2134.13  2165.31
                             2169.79  2180.23  2196.80  2209.21  2211.11
                             2237.19  2287.21  2475.99  4294.22  4380.63
                             4397.97  4398.15  4442.01  4469.25  4477.41
                             4495.11  4502.78  4509.08  4544.07  4560.24
                             4689.21  4714.86  5289.05

 Zero-point correction=                           0.235330 (Hartree/Particle)
 Thermal correction to Energy=                    0.249503
 Thermal correction to Enthalpy=                  0.250447
 Thermal correction to Gibbs Free Energy=         0.193842
 Sum of electronic and zero-point Energies=           -918.046605
 Sum of electronic and thermal Energies=              -918.032432
 Sum of electronic and thermal Enthalpies=            -918.031488
 Sum of electronic and thermal Free Energies=         -918.088093

                     E (Thermal)             CV                S
                      KCal/Mol        Cal/Mol-Kelvin    Cal/Mol-Kelvin
 Total                  156.565             52.953            119.136
 Electronic               0.000              0.000              0.000
 Translational            0.889              2.981             41.740
 Rotational               0.889              2.981             31.774
 Vibrational            154.788             46.992             45.621
 Vibration     1          0.594              1.984              5.803
 Vibration     2          0.597              1.974              4.476
 Vibration     3          0.598              1.968              4.157
 Vibration     4          0.601              1.958              3.728
 Vibration     5          0.608              1.935              3.145
 Vibration     6          0.620              1.895              2.590
 Vibration     7          0.638              1.839              2.129
 Vibration     8          0.651              1.798              1.891
 Vibration     9          0.654              1.789              1.848
 Vibration    10          0.663              1.763              1.731
 Vibration    11          0.678              1.716              1.552
 Vibration    12          0.688              1.686              1.453
 Vibration    13          0.703              1.643              1.331
 Vibration    14          0.731              1.565              1.144
 Vibration    15          0.744              1.530              1.071
 Vibration    16          0.774              1.448              0.926
 Vibration    17          0.827              1.317              0.738
 Vibration    18          0.850              1.261              0.671
 Vibration    19          0.873              1.211              0.616
 Vibration    20          0.889              1.175              0.578
 Vibration    21          0.933              1.082              0.492

                           ! Non-Optimized Parameters !
 Normal termination of Gaussian 16 at Sun Dec 13 20:14:15 2020.

 ----------------------------------------------------------------------
 # B3LYP/6-311++G(d,p) empiricaldispersion=gd3bj scf=xqc pop=npa geom=c
 heck
 ----------------------------------------------------------------------

 ---------------------------------------
 CID_102641826_JID_3744_Energie_neutraal
 ---------------------------------------
 Structure from the checkpoint file:  "JID_3744.chk"
 Charge =  0 Multiplicity = 1

 SCF Done:  E(RB3LYP) =  -918.461317030     A.U. after   16 cycles
 Normal termination of Gaussian 16 at Sun Dec 13 20:18:15 2020.

 ----------------------------------------------------------------------
 # B3LYP/6-311++G(d,p) empiricaldispersion=gd3bj scf=xqc pop=npa geom=c
 heck
 ----------------------------------------------------------------------

 -------------------------------------
 CID_102641826_JID_3744_Energie_kation
 -------------------------------------
 Structure from the checkpoint file:  "JID_3744.chk"
 Charge =  1 Multiplicity = 2

 SCF Done:  E(UB3LYP) =  -918.154361876     A.U. after   27 cycles
 Normal termination of Gaussian 16 at Sun Dec 13 20:27:43 2020.
 Gaussian 16:  ES64L-G16RevA.03 25-Dec-2016

 ----------------------------------------------------------------------
 # B3LYP/6-311++G(d,p) empiricaldispersion=gd3bj scf=xqc pop=npa geom=c
 heck
 ----------------------------------------------------------------------

 ------------------------------------
 CID_102641826_JID_3744_Energie_anion
 ------------------------------------
 Structure from the checkpoint file:  "JID_3744.chk"
 Charge = -1 Multiplicity = 2

                         Standard orientation:
 ---------------------------------------------------------------------
 Center     Atomic      Atomic             Coordinates (Angstroms)
 Number     Number       Type             X           Y           Z
 ---------------------------------------------------------------------
      1          6           0       -3.557346    1.711553   -0.021395
      2          6           0       -2.541325    0.620951   -0.156587
      3          7           0       -1.301183    0.810907   -0.498855
      4          6           0       -0.576777   -0.370534   -0.540689
      5          6           0       -1.303169   -1.487306   -0.231632
      6         16           0       -2.945745   -1.068466    0.143867
      7          6           0        0.876115   -0.336793   -0.925836
      8          6           0        1.907076   -0.396881    0.233596
      9          6           0        1.798441   -1.726288    0.997395
     10          6           0        3.323760   -0.316226   -0.401120
     11          8           0        3.535781    0.868724   -1.143092
     12          6           0        1.816753    0.753763    1.213647
     13          6           0        1.223192    1.936601    1.033718
     14          1           0       -4.415910    1.546903   -0.681996
     15          1           0       -3.935381    1.781953    1.004934
     16          1           0       -3.084747    2.659770   -0.287000
     17          1           0       -0.972636   -2.516119   -0.217354
     18          1           0        1.091197   -1.188600   -1.582593
     19          1           0        1.061703    0.562666   -1.517481
     20          1           0        1.916407   -2.578458    0.316939
     21          1           0        2.576794   -1.800182    1.765928
     22          1           0        0.827477   -1.815208    1.492818
     23          1           0        4.076904   -0.430077    0.396710
     24          1           0        3.457876   -1.146091   -1.104040
     25          1           0        3.281165    1.604959   -0.558783
     26          1           0        2.378909    0.590379    2.135683
     27          1           0        1.278784    2.705187    1.800786
     28          1           0        0.615098    2.159189    0.163711
 ---------------------------------------------------------------------

 SCF Done:  E(UB3LYP) =  -918.446336982     A.U. after   33 cycles
 SCF Done:  E(UB3LYP) =  -918.446336982     a.u. after    1 cycles

 The electronic state is 2-A.
 Alpha  occ. eigenvalues --  -88.76975 -19.02678 -14.20128 -10.12725 -10.12065
 Alpha  occ. eigenvalues --  -10.09955 -10.09359 -10.08739 -10.07694 -10.07653
 Alpha  occ. eigenvalues --  -10.07300 -10.06480 -10.06133  -7.85628  -5.81896
 Alpha  occ. eigenvalues --   -5.81553  -5.81240  -0.93093  -0.85522  -0.73585
 Alpha  occ. eigenvalues --   -0.68792  -0.67787  -0.64929  -0.61894  -0.58087
 Alpha  occ. eigenvalues --   -0.55955  -0.51230  -0.47940  -0.44402  -0.42697
 Alpha  occ. eigenvalues --   -0.40849  -0.38932  -0.36416  -0.35318  -0.35135
 Alpha  occ. eigenvalues --   -0.33833  -0.33081  -0.32528  -0.30825  -0.29394
 Alpha  occ. eigenvalues --   -0.28731  -0.28242  -0.27899  -0.27298  -0.25371
 Alpha  occ. eigenvalues --   -0.24270  -0.23862  -0.22361  -0.18675  -0.17611
 Alpha  occ. eigenvalues --   -0.17213  -0.16256  -0.13126   0.04621
 Alpha virt. eigenvalues --    0.06223   0.06891   0.07234   0.08242   0.08815
 Alpha virt. eigenvalues --    0.09231   0.09820   0.10061   0.10521   0.10951
 Alpha virt. eigenvalues --    0.11514   0.11927   0.12091   0.12753   0.13155

  Beta  occ. eigenvalues --  -88.76959 -19.02673 -14.20115 -10.12589 -10.12053
  Beta  occ. eigenvalues --  -10.09944 -10.09354 -10.08662 -10.07672 -10.07630
  Beta  occ. eigenvalues --  -10.07293 -10.06471 -10.06095  -7.85612  -5.81888
  Beta  occ. eigenvalues --   -5.81546  -5.81194  -0.93084  -0.85419  -0.73555
  Beta  occ. eigenvalues --   -0.68698  -0.67661  -0.64889  -0.61844  -0.58032
  Beta  occ. eigenvalues --   -0.55870  -0.51182  -0.47809  -0.44319  -0.42624
  Beta  occ. eigenvalues --   -0.40818  -0.38874  -0.36366  -0.35272  -0.35067
  Beta  occ. eigenvalues --   -0.33607  -0.33050  -0.32457  -0.30770  -0.29336
  Beta  occ. eigenvalues --   -0.28682  -0.28151  -0.27814  -0.27221  -0.25311
  Beta  occ. eigenvalues --   -0.24218  -0.23822  -0.22324  -0.18626  -0.17405
  Beta  occ. eigenvalues --   -0.17166  -0.16203  -0.12698
  Beta virt. eigenvalues --    0.06855   0.07355   0.07615   0.07896   0.08572
  Beta virt. eigenvalues --    0.09083   0.09477   0.10156   0.10396   0.10825
  Beta virt. eigenvalues --    0.11298   0.11799   0.12061   0.12475   0.13027

 Mulliken charges and spin densities:
               1          2
     1  C    2.352875  -2.607521
     2  C   -1.530842   1.819582
     3  N    0.071241   0.105865
     4  C   -0.495838  -0.872606
     5  C   -0.249471   0.972455
     6  S   -0.038907  -0.419649
     7  C   -0.010885  -0.330641
     8  C   -0.884479   1.568992
     9  C    1.390035  -2.136484
    10  C    0.053459  -0.496556
    11  O   -0.245232   0.028840
    12  C   -0.861409   0.703150
    13  C    1.035180  -1.621171
    14  H   -0.509797   0.683797
    15  H   -0.009588   0.166787
    16  H   -0.157763   0.318022
    17  H   -0.312481   0.588608
    18  H    0.232441  -0.085021
    19  H    0.103498   0.093496
    20  H   -0.197525   0.338512
    21  H   -0.500718   0.646281
    22  H    0.147656   0.038376
    23  H   -0.143661   0.303603
    24  H    0.082325   0.092581
    25  H    0.230547   0.022991
    26  H   -0.531996   0.747485
    27  H   -0.367310   0.500958
    28  H    0.348647  -0.170731
 Sum of Mulliken charges =  -1.00000   1.00000

 Dipole moment (field-independent basis, Debye):
    X=              0.0366    Y=             -0.8650    Z=             -1.9406  Tot=              2.1250
 Quadrupole moment (field-independent basis, Debye-Ang):
   XX=           -166.9530   YY=           -125.1865   ZZ=           -123.3458
   XY=              9.9140   XZ=            -14.6135   YZ=              5.6886

 Summary of Natural Population Analysis:

                                       Natural Population
                Natural  -----------------------------------------------
    Atom  No    Charge         Core      Valence    Rydberg      Total
 -----------------------------------------------------------------------
      C    1   -0.30797      0.99961     2.30188    0.00649     3.30797
      C    2    0.06519      0.99962     1.91765    0.01754     2.93481
      N    3   -0.25397      0.99963     2.74234    0.01200     3.75397
      C    4    0.06542      0.99948     1.92002    0.01509     2.93458
      C    5   -0.19685      0.99945     2.18736    0.01004     3.19685
      S    6    0.17864      4.99943     2.80286    0.01907     7.82136
      C    7   -0.20332      0.99956     2.19347    0.01029     3.20332
      C    8   -0.06771      0.99954     2.05402    0.01416     3.06771
      C    9   -0.28653      0.99963     2.27866    0.00824     3.28653
      C   10   -0.00102      0.99954     1.98732    0.01416     3.00102
      O   11   -0.37249      0.99990     3.36623    0.00636     4.37249
      C   12   -0.09214      0.99953     2.07809    0.01452     3.09214
      C   13   -0.19565      0.99955     2.18759    0.00851     3.19565
      H   14    0.11167      0.00000     0.38431    0.00402     0.38833
      H   15    0.10554      0.00000     0.39351    0.00095     0.39446
      H   16    0.11289      0.00000     0.38560    0.00151     0.38711
      H   17    0.11101      0.00000     0.38789    0.00110     0.38899
      H   18    0.10383      0.00000     0.39505    0.00112     0.39617
      H   19    0.11593      0.00000     0.38251    0.00156     0.38407
      H   20    0.09799      0.00000     0.40081    0.00121     0.40201
      H   21    0.10387      0.00000     0.39404    0.00209     0.39613
      H   22    0.10898      0.00000     0.38929    0.00173     0.39102
      H   23    0.07994      0.00000     0.41859    0.00146     0.42006
      H   24    0.08614      0.00000     0.41268    0.00118     0.41386
      H   25    0.23248      0.00000     0.26443    0.00308     0.26752
      H   26    0.09798      0.00000     0.40016    0.00186     0.40202
      H   27    0.09447      0.00000     0.40450    0.00103     0.40553
      H   28    0.10566      0.00000     0.39230    0.00204     0.39434
 =======================================================================
   * Total *    0.00000     16.99445    35.82316    0.18240    53.00000

 Normal termination of Gaussian 16 at Sun Dec 13 20:39:30 2020.
