 Gaussian 16, Revision A.03,

 -----------------------------------------------------------
 # opt freq B3LYP/6-31G(d) empiricaldispersion=gd3bj scf=xqc
 -----------------------------------------------------------

 -------------------------------
 CID_91678400_JID_10510_neutraal
 -------------------------------
 Symbolic Z-matrix:
 Charge =  0 Multiplicity = 1

 SCF Done:  E(RB3LYP) =  -900.342819177     A.U. after   15 cycles
 SCF Done:  E(RB3LYP) =  -900.347960647     A.U. after   14 cycles
 SCF Done:  E(RB3LYP) =  -900.348413752     A.U. after   16 cycles
 SCF Done:  E(RB3LYP) =  -900.348897606     A.U. after   16 cycles
 SCF Done:  E(RB3LYP) =  -900.350409795     A.U. after   13 cycles
 SCF Done:  E(RB3LYP) =  -900.350632289     A.U. after   13 cycles
 SCF Done:  E(RB3LYP) =  -900.350769382     A.U. after   13 cycles
 SCF Done:  E(RB3LYP) =  -900.350846293     A.U. after   13 cycles
 SCF Done:  E(RB3LYP) =  -900.350958290     A.U. after   14 cycles
 SCF Done:  E(RB3LYP) =  -900.351025438     A.U. after   13 cycles
 SCF Done:  E(RB3LYP) =  -900.351258785     A.U. after   11 cycles
 SCF Done:  E(RB3LYP) =  -900.351263887     A.U. after   12 cycles
 SCF Done:  E(RB3LYP) =  -900.351265560     A.U. after   11 cycles
 SCF Done:  E(RB3LYP) =  -900.351265852     A.U. after   10 cycles
 SCF Done:  E(RB3LYP) =  -900.351265912     A.U. after    8 cycles
 SCF Done:  E(RB3LYP) =  -900.351265915     A.U. after    8 cycles
 Optimization completed.
    -- Stationary point found.
 Normal termination of Gaussian 16 at Sat Dec 12 15:56:05 2020.

 --------------------------------------------------------------------
 #N Geom=AllCheck Guess=TCheck SCRF=Check GenChk RB3LYP/6-31G(d) Freq
 --------------------------------------------------------------------

 Structure from the checkpoint file:  "JID_10510.chk"
 -------------------------------
 CID_91678400_JID_10510_neutraal
 -------------------------------
 Charge =  0 Multiplicity = 1

 SCF Done:  E(RB3LYP) =  -900.351265915     A.U. after    1 cycles

  Exact polarizability: 256.946 -13.404 162.862   3.177  -0.019 136.123
 Approx polarizability: 349.578 -28.179 287.673  -3.290  -4.697 227.040

                      1                      2                      3
                      A                      A                      A
 Frequencies --      8.9896                35.1156                38.3247
 Red. masses --      5.8654                 3.3339                 1.3222
 Frc consts  --      0.0003                 0.0024                 0.0011
 IR Inten    --      0.6932                 0.2123                 0.2510

                      4                      5                      6
                      A                      A                      A
 Frequencies --     42.1433                51.8347               104.1809
 Red. masses --      4.0986                 3.6910                 4.1772
 Frc consts  --      0.0043                 0.0058                 0.0267
 IR Inten    --      0.1335                 0.2522                 0.7322

                      7                      8                      9
                      A                      A                      A
 Frequencies --    134.6539               145.4015               158.5245
 Red. masses --      4.7767                 4.4481                 1.1352
 Frc consts  --      0.0510                 0.0554                 0.0168
 IR Inten    --      0.9698                 0.7839                 0.3626

                     10                     11                     12
                      A                      A                      A
 Frequencies --    161.8695               196.1793               212.1760
 Red. masses --      6.1738                 3.9948                 2.5247
 Frc consts  --      0.0953                 0.0906                 0.0670
 IR Inten    --      0.4559                 0.6361                 2.3619

                     13                     14                     15
                      A                      A                      A
 Frequencies --    231.4989               266.2727               284.0023
 Red. masses --      1.0735                 3.6782                 3.6720
 Frc consts  --      0.0339                 0.1537                 0.1745
 IR Inten    --      0.3430                 4.3736                 2.0469

                     16                     17                     18
                      A                      A                      A
 Frequencies --    302.5059               307.2566               337.7652
 Red. masses --      3.7742                 2.5355                 4.0474
 Frc consts  --      0.2035                 0.1410                 0.2721
 IR Inten    --      7.1777                12.8030                 5.1883

                     19                     20                     21
                      A                      A                      A
 Frequencies --    366.1586               371.6450               396.3892
 Red. masses --      1.4882                 4.3380                 5.1870
 Frc consts  --      0.1176                 0.3530                 0.4802
 IR Inten    --    106.8377                 7.7488                 0.2944

                     22                     23                     24
                      A                      A                      A
 Frequencies --    433.6906               442.0392               452.8654
 Red. masses --      3.6186                 3.6502                 3.1619
 Frc consts  --      0.4010                 0.4202                 0.3821
 IR Inten    --      3.5794                 0.1920                 1.9228

                     25                     26                     27
                      A                      A                      A
 Frequencies --    494.3993               517.5941               536.8122
 Red. masses --      3.9758                 4.0015                 5.1953
 Frc consts  --      0.5726                 0.6316                 0.8821
 IR Inten    --      1.8910                 5.0867                 5.2057

                     28                     29                     30
                      A                      A                      A
 Frequencies --    556.6519               572.4621               588.0918
 Red. masses --      4.4120                 4.3675                 3.8354
 Frc consts  --      0.8055                 0.8433                 0.7815
 IR Inten    --      1.0612                 1.1670                 2.0549

                     31                     32                     33
                      A                      A                      A
 Frequencies --    643.0854               697.4667               705.2812
 Red. masses --      5.2864                 4.2116                 6.8489
 Frc consts  --      1.2881                 1.2071                 2.0072
 IR Inten    --      7.3700                 0.6398                13.5489

                     34                     35                     36
                      A                      A                      A
 Frequencies --    728.2115               746.0923               768.2728
 Red. masses --      4.2018                 4.8299                 4.0237
 Frc consts  --      1.3128                 1.5841                 1.3993
 IR Inten    --      2.6716                 1.0674                12.0586

                     37                     38                     39
                      A                      A                      A
 Frequencies --    794.3930               822.7324               839.3700
 Red. masses --      4.0590                 3.2252                 5.4003
 Frc consts  --      1.5092                 1.2862                 2.2417
 IR Inten    --      8.5313                24.1170                20.0591

                     40                     41                     42
                      A                      A                      A
 Frequencies --    848.3298               869.2380               900.1299
 Red. masses --      1.3282                 1.7293                 1.2814
 Frc consts  --      0.5632                 0.7698                 0.6117
 IR Inten    --     14.0716                14.9246                 1.2598

                     43                     44                     45
                      A                      A                      A
 Frequencies --    943.1884               950.8137               957.3639
 Red. masses --      2.8587                 1.8251                 3.4927
 Frc consts  --      1.4984                 0.9721                 1.8861
 IR Inten    --      1.8426                 7.3336                15.7770

                     46                     47                     48
                      A                      A                      A
 Frequencies --    975.4745               984.6244              1018.3614
 Red. masses --      1.3003                 1.3320                 1.5002
 Frc consts  --      0.7290                 0.7608                 0.9166
 IR Inten    --      0.5204                 0.8532                 0.8309

                     49                     50                     51
                      A                      A                      A
 Frequencies --   1037.4968              1047.6088              1070.6867
 Red. masses --      1.5189                 1.5391                 3.7984
 Frc consts  --      0.9633                 0.9952                 2.5655
 IR Inten    --      4.0166                 5.2589                41.9523

                     52                     53                     54
                      A                      A                      A
 Frequencies --   1074.8244              1075.0027              1076.4190
 Red. masses --      1.5302                 1.5384                 1.6593
 Frc consts  --      1.0416                 1.0475                 1.1328
 IR Inten    --      2.8314                13.7928                11.1653

                     55                     56                     57
                      A                      A                      A
 Frequencies --   1104.3666              1148.9889              1190.2117
 Red. masses --      2.8136                 2.2500                 1.5149
 Frc consts  --      2.0218                 1.7501                 1.2644
 IR Inten    --     28.9147                 3.7627                 2.5273

                     58                     59                     60
                      A                      A                      A
 Frequencies --   1192.6198              1215.4048              1237.9214
 Red. masses --      1.5300                 1.7727                 2.4857
 Frc consts  --      1.2821                 1.5429                 2.2443
 IR Inten    --      5.3871                45.4280                10.8315

                     61                     62                     63
                      A                      A                      A
 Frequencies --   1238.1575              1254.1563              1283.0290
 Red. masses --      1.8661                 1.4539                 3.0969
 Frc consts  --      1.6856                 1.3474                 3.0037
 IR Inten    --     11.7148                32.5274                11.0055

                     64                     65                     66
                      A                      A                      A
 Frequencies --   1317.4510              1321.8307              1335.0425
 Red. masses --      1.4756                 1.5336                 2.7032
 Frc consts  --      1.5090                 1.5788                 2.8387
 IR Inten    --      6.0704                 2.5626                 1.3525

                     67                     68                     69
                      A                      A                      A
 Frequencies --   1351.5915              1391.1918              1398.7622
 Red. masses --      6.1356                 2.5794                 5.9072
 Frc consts  --      6.6038                 2.9413                 6.8096
 IR Inten    --     11.7057               197.2910               166.9446

                     70                     71                     72
                      A                      A                      A
 Frequencies --   1417.9180              1442.7332              1446.2451
 Red. masses --      1.4278                 1.2474                 1.3664
 Frc consts  --      1.6913                 1.5297                 1.6839
 IR Inten    --     22.8083                 0.0177                 0.5610

                     73                     74                     75
                      A                      A                      A
 Frequencies --   1447.3139              1451.1056              1456.7133
 Red. masses --      1.2387                 2.2154                 2.6424
 Frc consts  --      1.5288                 2.7485                 3.3037
 IR Inten    --      1.3642                17.0130                 1.5250

                     76                     77                     78
                      A                      A                      A
 Frequencies --   1508.1599              1515.9677              1517.3923
 Red. masses --      1.0565                 1.1224                 1.0713
 Frc consts  --      1.4159                 1.5198                 1.4533
 IR Inten    --      6.8242                27.5673                 3.2104

                     79                     80                     81
                      A                      A                      A
 Frequencies --   1518.1388              1521.5439              1527.6829
 Red. masses --      1.0498                 1.1051                 1.2249
 Frc consts  --      1.4255                 1.5073                 1.6843
 IR Inten    --      4.9203                 1.1248                20.5613

                     82                     83                     84
                      A                      A                      A
 Frequencies --   1543.8298              1552.8385              1616.2612
 Red. masses --      3.0282                 2.2077                 6.4356
 Frc consts  --      4.2524                 3.1364                 9.9051
 IR Inten    --      8.4447                12.9425                85.5946

                     85                     86                     87
                      A                      A                      A
 Frequencies --   1633.0121              1634.8912              1675.7513
 Red. masses --      8.6011                 5.9068                 5.9126
 Frc consts  --     13.5140                 9.3022                 9.7825
 IR Inten    --    124.6898                 5.7635                10.6673

                     88                     89                     90
                      A                      A                      A
 Frequencies --   1683.6601              2991.9713              3042.4296
 Red. masses --      7.2791                 1.0819                 1.0396
 Frc consts  --     12.1572                 5.7064                 5.6697
 IR Inten    --     32.7182                31.9386                45.6009

                     91                     92                     93
                      A                      A                      A
 Frequencies --   3042.9470              3068.4574              3093.5171
 Red. masses --      1.0401                 1.0359                 1.0993
 Frc consts  --      5.6741                 5.7465                 6.1985
 IR Inten    --     16.7882                18.5502                15.5227

                     94                     95                     96
                      A                      A                      A
 Frequencies --   3100.1848              3126.9337              3130.3124
 Red. masses --      1.0956                 1.1028                 1.1002
 Frc consts  --      6.2043                 6.3534                 6.3520
 IR Inten    --     19.9328                15.2162                19.3097

                     97                     98                     99
                      A                      A                      A
 Frequencies --   3138.0647              3140.7453              3170.3495
 Red. masses --      1.1006                 1.1032                 1.0897
 Frc consts  --      6.3859                 6.4119                 6.4531
 IR Inten    --      6.9779                17.7039                24.4953

                    100                    101                    102
                      A                      A                      A
 Frequencies --   3182.1788              3193.9223              3214.2731
 Red. masses --      1.0889                 1.0889                 1.0921
 Frc consts  --      6.4969                 6.5446                 6.6479
 IR Inten    --     16.8861                11.0967                 5.9459

                    103                    104                    105
                      A                      A                      A
 Frequencies --   3219.8751              3264.1558              3733.6371
 Red. masses --      1.0925                 1.0903                 1.0660
 Frc consts  --      6.6733                 6.8446                 8.7552
 IR Inten    --      5.0281                 3.8284                13.4929

 - Thermochemistry -
 -------------------
 Temperature   298.150 Kelvin.  Pressure   1.00000 Atm.
 Atom     1 has atomic number  6 and mass  12.00000

 Molecular mass:   271.12084 amu.
 Principal axes and moments of inertia in atomic units:
                           1         2         3
     Eigenvalues --  2257.31724********************
           X            0.99999   0.00475   0.00006
           Y           -0.00475   0.99995  -0.00874
           Z           -0.00010   0.00874   0.99996
 This molecule is an asymmetric top.
 Rotational symmetry number  1.
 Warning -- assumption of classical behavior for rotation
           may cause significant error
 Rotational temperatures (Kelvin)      0.03837     0.00768     0.00720
 Rotational constants (GHZ):           0.79951     0.15996     0.15007
 Zero-point vibrational energy     791137.1 (Joules/Mol)
                                  189.08631 (Kcal/Mol)
 Warning -- explicit consideration of  30 degrees of freedom as
           vibrations may cause significant error
 Vibrational temperatures:     12.93    50.52    55.14    60.63    74.58
          (Kelvin)            149.89   193.74   209.20   228.08   232.89
                              282.26   305.27   333.08   383.11   408.62
                              435.24   442.07   485.97   526.82   534.71
                              570.32   623.98   636.00   651.57   711.33
                              744.70   772.35   800.90   823.65   846.13
                              925.26  1003.50  1014.74  1047.73  1073.46
                             1105.37  1142.95  1183.73  1207.67  1220.56
                             1250.64  1295.09  1357.04  1368.01  1377.43
                             1403.49  1416.65  1465.19  1492.73  1507.28
                             1540.48  1546.43  1546.69  1548.73  1588.94
                             1653.14  1712.45  1715.91  1748.70  1781.09
                             1781.43  1804.45  1845.99  1895.52  1901.82
                             1920.83  1944.64  2001.61  2012.51  2040.07
                             2075.77  2080.82  2082.36  2087.82  2095.89
                             2169.91  2181.14  2183.19  2184.26  2189.16
                             2198.00  2221.23  2234.19  2325.44  2349.54
                             2352.24  2411.03  2422.41  4304.78  4377.38
                             4378.12  4414.83  4450.88  4460.47  4498.96
                             4503.82  4514.98  4518.83  4561.43  4578.45
                             4595.34  4624.62  4632.68  4696.39  5371.87

 Zero-point correction=                           0.301328 (Hartree/Particle)
 Thermal correction to Energy=                    0.320251
 Thermal correction to Enthalpy=                  0.321195
 Thermal correction to Gibbs Free Energy=         0.251556
 Sum of electronic and zero-point Energies=           -900.049938
 Sum of electronic and thermal Energies=              -900.031015
 Sum of electronic and thermal Enthalpies=            -900.030071
 Sum of electronic and thermal Free Energies=         -900.099710

                     E (Thermal)             CV                S
                      KCal/Mol        Cal/Mol-Kelvin    Cal/Mol-Kelvin
 Total                  200.961             71.376            146.569
 Electronic               0.000              0.000              0.000
 Translational            0.889              2.981             42.691
 Rotational               0.889              2.981             34.081
 Vibrational            199.183             65.415             69.796
 Vibration     1          0.593              1.987              8.223
 Vibration     2          0.594              1.982              5.517
 Vibration     3          0.594              1.982              5.344
 Vibration     4          0.595              1.980              5.156
 Vibration     5          0.596              1.977              4.746
 Vibration     6          0.605              1.946              3.375
 Vibration     7          0.613              1.919              2.878
 Vibration     8          0.617              1.908              2.732
 Vibration     9          0.621              1.893              2.567
 Vibration    10          0.622              1.889              2.528
 Vibration    11          0.636              1.845              2.169
 Vibration    12          0.643              1.822              2.025
 Vibration    13          0.653              1.793              1.867
 Vibration    14          0.672              1.735              1.620
 Vibration    15          0.682              1.703              1.509
 Vibration    16          0.694              1.669              1.403
 Vibration    17          0.697              1.660              1.377
 Vibration    18          0.718              1.600              1.223
 Vibration    19          0.739              1.542              1.096
 Vibration    20          0.743              1.530              1.073
 Vibration    21          0.763              1.478              0.976
 Vibration    22          0.794              1.397              0.847
 Vibration    23          0.802              1.378              0.820
 Vibration    24          0.811              1.355              0.787
 Vibration    25          0.850              1.262              0.672
 Vibration    26          0.873              1.211              0.616
 Vibration    27          0.892              1.169              0.572
 Vibration    28          0.912              1.125              0.531
 Vibration    29          0.929              1.091              0.500
 Vibration    30          0.945              1.057              0.471

 Optimization completed.
    -- Stationary point found.
 Normal termination of Gaussian 16 at Sat Dec 12 16:15:13 2020.

 ----------------------------------------------------------------------
 # B3LYP/6-311++G(d,p) empiricaldispersion=gd3bj scf=xqc pop=npa geom=c
 heck
 ----------------------------------------------------------------------

 ---------------------------------------
 CID_91678400_JID_10510_Energie_neutraal
 ---------------------------------------
 Structure from the checkpoint file:  "JID_10510.chk"
 Charge =  0 Multiplicity = 1

 SCF Done:  E(RB3LYP) =  -900.601530340     A.U. after   16 cycles
 Normal termination of Gaussian 16 at Sat Dec 12 16:24:21 2020.

 ----------------------------------------------------------------------
 # B3LYP/6-311++G(d,p) empiricaldispersion=gd3bj scf=xqc pop=npa geom=c
 heck
 ----------------------------------------------------------------------

 -------------------------------------
 CID_91678400_JID_10510_Energie_kation
 -------------------------------------
 Structure from the checkpoint file:  "JID_10510.chk"
 Charge =  1 Multiplicity = 2

 SCF Done:  E(UB3LYP) =  -900.292788597     A.U. after   32 cycles
 Normal termination of Gaussian 16 at Sat Dec 12 16:49:55 2020.
 Gaussian 16:  ES64L-G16RevA.03 25-Dec-2016

 ----------------------------------------------------------------------
 # B3LYP/6-311++G(d,p) empiricaldispersion=gd3bj scf=xqc pop=npa geom=c
 heck
 ----------------------------------------------------------------------

 ------------------------------------
 CID_91678400_JID_10510_Energie_anion
 ------------------------------------
 Structure from the checkpoint file:  "JID_10510.chk"
 Charge = -1 Multiplicity = 2

                         Standard orientation:
 ---------------------------------------------------------------------
 Center     Atomic      Atomic             Coordinates (Angstroms)
 Number     Number       Type             X           Y           Z
 ---------------------------------------------------------------------
      1          6           0       -5.826238    1.072446   -0.721895
      2          6           0       -4.467050    0.469590   -0.464473
      3          6           0       -3.909320    0.479166    0.818512
      4          6           0       -2.667417   -0.098374    1.100538
      5          6           0       -1.955188   -0.709216    0.050909
      6          6           0       -2.498063   -0.713212   -1.236456
      7          6           0       -3.737727   -0.133867   -1.493655
      8          6           0       -0.588289   -1.328162    0.280746
      9          6           0        0.564016   -0.343417    0.131667
     10          6           0        1.866658   -0.837011    0.086113
     11          6           0        2.947097    0.033113   -0.040816
     12          6           0        2.792696    1.431755   -0.112686
     13          6           0        1.473728    1.895740   -0.048327
     14          6           0        0.380277    1.038788    0.060152
     15          6           0        3.914693    2.431096   -0.232471
     16          7           0        4.276827   -0.596109   -0.095025
     17          8           0        4.376410   -1.759980    0.294179
     18          8           0        5.219829    0.066390   -0.531489
     19          8           0       -0.319081   -2.399292   -0.628375
     20          6           0       -2.113429   -0.041120    2.505422
     21          1           0       -6.620328    0.322987   -0.606409
     22          1           0       -6.043012    1.886105   -0.022066
     23          1           0       -5.900622    1.469575   -1.739621
     24          1           0       -4.460096    0.952991    1.628652
     25          1           0       -1.930954   -1.178089   -2.036554
     26          1           0       -4.140399   -0.146487   -2.503567
     27          1           0       -0.549195   -1.719513    1.309365
     28          1           0        2.053095   -1.901359    0.132167
     29          1           0        1.303312    2.967591   -0.092990
     30          1           0       -0.622802    1.451114    0.083215
     31          1           0        4.694733    2.262271    0.514607
     32          1           0        4.405371    2.362979   -1.207243
     33          1           0        3.517837    3.442836   -0.106573
     34          1           0       -1.017655   -3.060800   -0.498960
     35          1           0       -2.784744    0.516589    3.164499
     36          1           0       -1.986494   -1.043108    2.934941
     37          1           0       -1.131764    0.446242    2.537521
 ---------------------------------------------------------------------

 SCF Done:  E(UB3LYP) =  -900.630632383     A.U. after   30 cycles

 The electronic state is 2-A.
 Alpha  occ. eigenvalues --  -19.02794 -18.93693 -18.93690 -14.31484 -10.12992
 Alpha  occ. eigenvalues --  -10.10369 -10.10182 -10.10089 -10.08999 -10.08984
 Alpha  occ. eigenvalues --  -10.08911 -10.08626 -10.08597 -10.05924 -10.05105
 Alpha  occ. eigenvalues --  -10.04984 -10.03947 -10.03570 -10.03330 -10.02889
 Alpha  occ. eigenvalues --   -1.01849  -0.93091  -0.84629  -0.78226  -0.73382
 Alpha  occ. eigenvalues --   -0.71095  -0.68253  -0.66138  -0.63143  -0.62349
 Alpha  occ. eigenvalues --   -0.60925  -0.58306  -0.54498  -0.51848  -0.51590
 Alpha  occ. eigenvalues --   -0.48754  -0.46302  -0.43667  -0.41666  -0.40830
 Alpha  occ. eigenvalues --   -0.38556  -0.37417  -0.36418  -0.35361  -0.35187
 Alpha  occ. eigenvalues --   -0.34258  -0.34017  -0.33453  -0.33027  -0.32565
 Alpha  occ. eigenvalues --   -0.31993  -0.31057  -0.30463  -0.30076  -0.29319
 Alpha  occ. eigenvalues --   -0.28423  -0.27155  -0.26618  -0.26014  -0.25439
 Alpha  occ. eigenvalues --   -0.24430  -0.22551  -0.22267  -0.21717  -0.18943
 Alpha  occ. eigenvalues --   -0.16812  -0.15365  -0.13136  -0.12548  -0.11772
 Alpha  occ. eigenvalues --   -0.11442  -0.09284   0.03405
 Alpha virt. eigenvalues --    0.05133   0.06377   0.06444   0.06792   0.07214
 Alpha virt. eigenvalues --    0.08371   0.09070   0.09169   0.09457   0.10890
 Alpha virt. eigenvalues --    0.11251   0.11341   0.11644   0.12682   0.12883

  Beta  occ. eigenvalues --  -19.02792 -18.93245 -18.93168 -14.30861 -10.12988
  Beta  occ. eigenvalues --  -10.10369 -10.10182 -10.10071 -10.08994 -10.08986
  Beta  occ. eigenvalues --  -10.08895 -10.08626 -10.08593 -10.05848 -10.05174
  Beta  occ. eigenvalues --  -10.04842 -10.03994 -10.03580 -10.03064 -10.02731
  Beta  occ. eigenvalues --   -1.00801  -0.93087  -0.83714  -0.78208  -0.73140
  Beta  occ. eigenvalues --   -0.71050  -0.68231  -0.65986  -0.62680  -0.62220
  Beta  occ. eigenvalues --   -0.60894  -0.58221  -0.54193  -0.51601  -0.51145
  Beta  occ. eigenvalues --   -0.48695  -0.46138  -0.43556  -0.41532  -0.40580
  Beta  occ. eigenvalues --   -0.38534  -0.37126  -0.36361  -0.35333  -0.34846
  Beta  occ. eigenvalues --   -0.33924  -0.33407  -0.32964  -0.32560  -0.31985
  Beta  occ. eigenvalues --   -0.31359  -0.30878  -0.30106  -0.29922  -0.29196
  Beta  occ. eigenvalues --   -0.27893  -0.27132  -0.26580  -0.25989  -0.25354
  Beta  occ. eigenvalues --   -0.24377  -0.22146  -0.21941  -0.21579  -0.18892
  Beta  occ. eigenvalues --   -0.16746  -0.15314  -0.11638  -0.11121  -0.10934
  Beta  occ. eigenvalues --   -0.09597  -0.08710
  Beta virt. eigenvalues --    0.05075   0.06383   0.06445   0.06785   0.07202
  Beta virt. eigenvalues --    0.08330   0.09002   0.09129   0.09410   0.10292
  Beta virt. eigenvalues --    0.10854   0.11300   0.11416   0.11637   0.12654

 Mulliken charges and spin densities:
               1          2
     1  C   -0.614450  -0.039244
     2  C    0.203554  -0.016814
     3  C   -0.427232  -0.020295
     4  C   -0.060804   0.064371
     5  C    0.607362   0.006650
     6  C   -0.287077   0.009200
     7  C   -0.757554   0.020577
     8  C    0.213878  -0.008552
     9  C    0.785196  -0.027617
    10  C   -0.471797   0.160915
    11  C   -1.466428  -0.026590
    12  C    1.799338   0.111278
    13  C   -0.527010  -0.027226
    14  C   -0.736565   0.212898
    15  C   -0.454455  -0.009332
    16  N   -0.232938   0.204962
    17  O   -0.167644   0.174582
    18  O   -0.194987   0.192585
    19  O   -0.170896   0.004757
    20  C   -0.649807  -0.078940
    21  H    0.152791   0.004043
    22  H    0.134704   0.002766
    23  H    0.131914   0.006627
    24  H    0.122150   0.027397
    25  H    0.186904   0.001620
    26  H    0.136715   0.003747
    27  H    0.182675  -0.017970
    28  H    0.242482  -0.000664
    29  H    0.108499   0.002256
    30  H    0.142103  -0.018271
    31  H    0.175817   0.005663
    32  H    0.185344   0.005055
    33  H    0.087626   0.000099
    34  H    0.198556   0.029073
    35  H    0.112556   0.008837
    36  H    0.135106   0.027399
    37  H    0.174376   0.004160
 Sum of Mulliken charges =  -1.00000   1.00000

 Dipole moment (field-independent basis, Debye):
    X=            -16.2311    Y=              2.4496    Z=              1.3552  Tot=             16.4708
 Quadrupole moment (field-independent basis, Debye-Ang):
   XX=           -213.7698   YY=           -132.3793   ZZ=           -124.6243
   XY=             14.2155   XZ=              3.3836   YZ=              0.3048

 Summary of Natural Population Analysis:

                                       Natural Population
                Natural  -----------------------------------------------
    Atom  No    Charge         Core      Valence    Rydberg      Total
 -----------------------------------------------------------------------
      C    1   -0.29123      0.99964     2.28691    0.00468     3.29123
      C    2   -0.02149      0.99952     2.01404    0.00793     3.02149
      C    3   -0.10288      0.99948     2.09456    0.00884     3.10288
      C    4   -0.00697      0.99947     1.99895    0.00856     3.00697
      C    5   -0.04335      0.99948     2.02863    0.01524     3.04335
      C    6   -0.09326      0.99951     2.08381    0.00994     3.09326
      C    7   -0.10283      0.99952     2.09482    0.00849     3.10283
      C    8    0.11127      0.99946     1.86921    0.02005     2.88873
      C    9   -0.06910      0.99951     2.05409    0.01550     3.06910
      C   10   -0.05753      0.99948     2.04649    0.01157     3.05753
      C   11    0.05702      0.99936     1.93242    0.01120     2.94298
      C   12    0.01673      0.99948     1.97533    0.00845     2.98327
      C   13   -0.11939      0.99954     2.11077    0.00909     3.11939
      C   14   -0.05600      0.99952     2.04801    0.00847     3.05600
      C   15   -0.29141      0.99964     2.28682    0.00495     3.29141
      N   16    0.30291      0.99972     2.16764    0.02972     3.19709
      O   17   -0.19981      0.99990     3.19213    0.00778     4.19981
      O   18   -0.19019      0.99990     3.18232    0.00797     4.19019
      O   19   -0.36907      0.99990     3.35734    0.01183     4.36907
      C   20   -0.29879      0.99964     2.29369    0.00546     3.29879
      H   21    0.10085      0.00000     0.39819    0.00096     0.39915
      H   22    0.10010      0.00000     0.39903    0.00087     0.39990
      H   23    0.10067      0.00000     0.39844    0.00089     0.39933
      H   24    0.09341      0.00000     0.40522    0.00137     0.40659
      H   25    0.11045      0.00000     0.38820    0.00135     0.38955
      H   26    0.09534      0.00000     0.40365    0.00102     0.40466
      H   27    0.07977      0.00000     0.41792    0.00231     0.42023
      H   28    0.11906      0.00000     0.37928    0.00166     0.38094
      H   29    0.08969      0.00000     0.40873    0.00158     0.41031
      H   30    0.09358      0.00000     0.40471    0.00170     0.40642
      H   31    0.11078      0.00000     0.38794    0.00128     0.38922
      H   32    0.11198      0.00000     0.38681    0.00120     0.38802
      H   33    0.08509      0.00000     0.41372    0.00119     0.41491
      H   34    0.22101      0.00000     0.27490    0.00409     0.27899
      H   35    0.09778      0.00000     0.40104    0.00118     0.40222
      H   36    0.10241      0.00000     0.39616    0.00144     0.39759
      H   37    0.11505      0.00000     0.38392    0.00103     0.38495
 =======================================================================
   * Total *    0.00164     19.99167    51.76585    0.24084    71.99836

 Normal termination of Gaussian 16 at Sat Dec 12 17:13:28 2020.
