 Gaussian 16, Revision A.03,

 -----------------------------------------------------------
 # opt freq B3LYP/6-31G(d) empiricaldispersion=gd3bj scf=xqc
 -----------------------------------------------------------

 -------------------------------
 CID_141843842_JID_2615_neutraal
 -------------------------------
 Symbolic Z-matrix:
 Charge =  0 Multiplicity = 1

 SCF Done:  E(RB3LYP) =  -578.262319311     A.U. after   13 cycles
 SCF Done:  E(RB3LYP) =  -578.267220234     A.U. after   11 cycles
 SCF Done:  E(RB3LYP) =  -578.267813443     A.U. after   10 cycles
 SCF Done:  E(RB3LYP) =  -578.267884324     A.U. after   10 cycles
 SCF Done:  E(RB3LYP) =  -578.267898094     A.U. after    9 cycles
 SCF Done:  E(RB3LYP) =  -578.267900645     A.U. after    8 cycles
 SCF Done:  E(RB3LYP) =  -578.267901028     A.U. after    7 cycles
 Optimization completed.
    -- Stationary point found.

 1\1\GINC-NODE310\FOpt\RB3LYP\6-31G(d)\C9H16O3\VSC10255\09-Dec-2020\0\\
 # opt freq B3LYP/6-31G(d) empiricaldispersion=gd3bj scf=xqc\\CID_14184
 3842_JID_2615_neutraal\\0,1\C,1.1031949514,-0.0028655769,-0.0076765267
 \C,0.803695496,0.8491914877,-1.2531864525\C,1.7218529562,0.4561324881,
 -2.432399802\C,1.8294389279,1.5779339428,-3.4707596692\C,2.4357912119,
 2.8375728122,-2.8491093871\C,1.7074043242,3.2005825302,-1.5823146679\C
 ,0.9572087289,2.3201441166,-0.914015934\O,0.178953363,2.6387445421,0.1
 806517372\C,1.2738672763,-0.8516860299,-3.0835012528\O,2.3101185651,-1

 Normal termination of Gaussian 16 at Wed Dec  9 17:39:52 2020.

 --------------------------------------------------------------------
 #N Geom=AllCheck Guess=TCheck SCRF=Check GenChk RB3LYP/6-31G(d) Freq
 --------------------------------------------------------------------

 Structure from the checkpoint file:  "JID_2615.chk"
 -------------------------------
 CID_141843842_JID_2615_neutraal
 -------------------------------
 Charge =  0 Multiplicity = 1

 SCF Done:  E(RB3LYP) =  -578.267901028     A.U. after    1 cycles

  Exact polarizability: 117.779   0.190 110.176   0.375  -1.275  78.912
 Approx polarizability: 142.607  -3.143 163.527   1.461  -8.247 121.992

                      1                      2                      3
                      A                      A                      A
 Frequencies --     54.6798                78.6785                95.1201
 Red. masses --      3.9338                 3.0536                 2.0543
 Frc consts  --      0.0069                 0.0111                 0.0110
 IR Inten    --      1.1985                 0.9211                 2.6213

                      4                      5                      6
                      A                      A                      A
 Frequencies --    127.4228               198.8283               218.0479
 Red. masses --      3.5886                 2.5431                 1.4968
 Frc consts  --      0.0343                 0.0592                 0.0419
 IR Inten    --      2.4034                 3.1153                 1.0479

                      7                      8                      9
                      A                      A                      A
 Frequencies --    236.9028               261.7378               278.2110
 Red. masses --      1.3259                 1.8917                 2.2150
 Frc consts  --      0.0438                 0.0764                 0.1010
 IR Inten    --      1.4356                 3.4021                 5.0240

                     10                     11                     12
                      A                      A                      A
 Frequencies --    284.4842               300.6043               306.9647
 Red. masses --      3.6184                 2.9172                 2.8124
 Frc consts  --      0.1725                 0.1553                 0.1561
 IR Inten    --      0.3751                 4.1738                 1.0948

                     13                     14                     15
                      A                      A                      A
 Frequencies --    342.4986               373.7919               389.4105
 Red. masses --      3.2695                 2.0439                 1.4240
 Frc consts  --      0.2260                 0.1683                 0.1272
 IR Inten    --     10.9757                11.9817                75.6241

                     16                     17                     18
                      A                      A                      A
 Frequencies --    420.6514               460.3318               485.9918
 Red. masses --      1.2403                 3.2831                 3.3006
 Frc consts  --      0.1293                 0.4099                 0.4593
 IR Inten    --    109.0057                 4.6892                16.6932

                     19                     20                     21
                      A                      A                      A
 Frequencies --    537.5915               592.0138               661.5421
 Red. masses --      3.2436                 3.3978                 2.3357
 Frc consts  --      0.5523                 0.7016                 0.6023
 IR Inten    --      1.5956                13.9465                 5.7310

                     22                     23                     24
                      A                      A                      A
 Frequencies --    671.7590               740.1787               815.1121
 Red. masses --      3.9084                 4.1483                 1.4830
 Frc consts  --      1.0391                 1.3390                 0.5805
 IR Inten    --      4.6055                14.2615                20.6582

                     25                     26                     27
                      A                      A                      A
 Frequencies --    853.9762               878.5790               943.7990
 Red. masses --      1.9944                 2.1801                 2.2137
 Frc consts  --      0.8570                 0.9915                 1.1618
 IR Inten    --      5.2236                17.3636                16.8763

                     28                     29                     30
                      A                      A                      A
 Frequencies --    959.8912               966.3605               996.4631
 Red. masses --      2.3440                 1.5407                 2.9596
 Frc consts  --      1.2725                 0.8477                 1.7315
 IR Inten    --      9.1290                16.9112                23.7455

                     31                     32                     33
                      A                      A                      A
 Frequencies --   1028.6780              1074.2720              1091.1431
 Red. masses --      1.7040                 1.7573                 2.7493
 Frc consts  --      1.0624                 1.1949                 1.9286
 IR Inten    --      9.4253                27.3068                39.5444

                     34                     35                     36
                      A                      A                      A
 Frequencies --   1109.5349              1140.3482              1147.4077
 Red. masses --      2.6783                 1.6616                 2.0164
 Frc consts  --      1.9426                 1.2731                 1.5641
 IR Inten    --     12.0686                13.8835                75.0166

                     37                     38                     39
                      A                      A                      A
 Frequencies --   1168.6266              1186.4516              1193.8538
 Red. masses --      3.9995                 2.3612                 1.3386
 Frc consts  --      3.2181                 1.9583                 1.1241
 IR Inten    --     82.2146               122.4531                17.8502

                     40                     41                     42
                      A                      A                      A
 Frequencies --   1212.0874              1227.3761              1235.8682
 Red. masses --      1.6740                 1.5483                 1.4909
 Frc consts  --      1.4490                 1.3742                 1.3417
 IR Inten    --     73.0451                33.8377                15.1999

                     43                     44                     45
                      A                      A                      A
 Frequencies --   1242.9484              1280.4956              1291.2886
 Red. masses --      1.8158                 1.3383                 1.3576
 Frc consts  --      1.6528                 1.2929                 1.3337
 IR Inten    --     58.4921                11.4000                18.4331

                     46                     47                     48
                      A                      A                      A
 Frequencies --   1334.6328              1352.1758              1384.2597
 Red. masses --      1.2829                 1.2968                 1.5526
 Frc consts  --      1.3464                 1.3969                 1.7529
 IR Inten    --     10.8714                 9.2546                12.9463

                     49                     50                     51
                      A                      A                      A
 Frequencies --   1410.3507              1415.4389              1431.1859
 Red. masses --      1.5512                 1.4956                 1.3644
 Frc consts  --      1.8179                 1.7654                 1.6466
 IR Inten    --     28.1430                 0.4424                 7.9110

                     52                     53                     54
                      A                      A                      A
 Frequencies --   1441.5540              1446.6747              1504.1018
 Red. masses --      1.5670                 1.5717                 1.1677
 Frc consts  --      1.9186                 1.9380                 1.5565
 IR Inten    --      3.0478                41.5821                 3.1192

                     55                     56                     57
                      A                      A                      A
 Frequencies --   1514.0317              1514.4953              1519.8104
 Red. masses --      1.0485                 1.0815                 1.0670
 Frc consts  --      1.4160                 1.4615                 1.4521
 IR Inten    --      4.8094                 3.3516                 7.2325

                     58                     59                     60
                      A                      A                      A
 Frequencies --   1525.2251              1529.0998              1536.3350
 Red. masses --      1.0954                 1.0775                 1.0690
 Frc consts  --      1.5013                 1.4844                 1.4866
 IR Inten    --      1.1573                 1.6687                11.2979

                     61                     62                     63
                      A                      A                      A
 Frequencies --   1555.1166              1758.9310              2983.1463
 Red. masses --      1.0845                 7.7049                 1.0383
 Frc consts  --      1.5452                14.0448                 5.4442
 IR Inten    --      0.9373                60.0542                65.5611

                     64                     65                     66
                      A                      A                      A
 Frequencies --   3003.0393              3005.6260              3026.2843
 Red. masses --      1.0705                 1.0579                 1.1040
 Frc consts  --      5.6881                 5.6308                 5.9573
 IR Inten    --     55.3471                46.2589                75.4192

                     67                     68                     69
                      A                      A                      A
 Frequencies --   3032.9090              3044.9902              3052.4556
 Red. masses --      1.0877                 1.0880                 1.0844
 Frc consts  --      5.8948                 5.9435                 5.9530
 IR Inten    --      1.4605                20.1782                18.4519

                     70                     71                     72
                      A                      A                      A
 Frequencies --   3063.8454              3066.1352              3118.4799
 Red. masses --      1.0677                 1.0486                 1.0994
 Frc consts  --      5.9052                 5.8080                 6.2994
 IR Inten    --     23.1159                70.9917                23.0516

                     73                     74                     75
                      A                      A                      A
 Frequencies --   3131.2473              3134.7445              3135.5698
 Red. masses --      1.0963                 1.0903                 1.0997
 Frc consts  --      6.3332                 6.3125                 6.3700
 IR Inten    --     39.4429                41.2686                22.8486

                     76                     77                     78
                      A                      A                      A
 Frequencies --   3149.1551              3732.9474              3740.7661
 Red. masses --      1.1032                 1.0658                 1.0656
 Frc consts  --      6.4458                 8.7501                 8.7855
 IR Inten    --     22.7250                20.1519                25.7544

 - Thermochemistry -
 -------------------
 Temperature   298.150 Kelvin.  Pressure   1.00000 Atm.
 Atom     1 has atomic number  6 and mass  12.00000

 Molecular mass:   172.10994 amu.
 Principal axes and moments of inertia in atomic units:
                           1         2         3
     Eigenvalues --  1135.045582958.569613638.83901
           X            0.99989   0.01336  -0.00672
           Y           -0.01320   0.99965   0.02275
           Z            0.00702  -0.02266   0.99972
 This molecule is an asymmetric top.
 Rotational symmetry number  1.
 Warning -- assumption of classical behavior for rotation
           may cause significant error
 Rotational temperatures (Kelvin)      0.07631     0.02928     0.02380
 Rotational constants (GHZ):           1.59002     0.61000     0.49597
 Zero-point vibrational energy     644528.6 (Joules/Mol)
                                  154.04603 (Kcal/Mol)
 Warning -- explicit consideration of  20 degrees of freedom as
           vibrations may cause significant error
 Vibrational temperatures:     78.67   113.20   136.86   183.33   286.07
          (Kelvin)            313.72   340.85   376.58   400.28   409.31
                              432.50   441.65   492.78   537.80   560.27
                              605.22   662.31   699.23   773.47   851.78
                              951.81   966.51  1064.95  1172.76  1228.68
                             1264.08  1357.92  1381.07  1390.38  1433.69
                             1480.04  1545.64  1569.91  1596.37  1640.71
                             1650.86  1681.39  1707.04  1717.69  1743.92
                             1765.92  1778.14  1788.33  1842.35  1857.88
                             1920.24  1945.48  1991.64  2029.18  2036.50
                             2059.16  2074.07  2081.44  2164.07  2178.35
                             2179.02  2186.67  2194.46  2200.03  2210.44
                             2237.47  2530.71  4292.08  4320.70  4324.43
                             4354.15  4363.68  4381.06  4391.80  4408.19
                             4411.48  4486.80  4505.17  4510.20  4511.39
                             4530.93  5370.88  5382.13

 Zero-point correction=                           0.245488 (Hartree/Particle)
 Thermal correction to Energy=                    0.258409
 Thermal correction to Enthalpy=                  0.259353
 Thermal correction to Gibbs Free Energy=         0.206964
 Sum of electronic and zero-point Energies=           -578.022413
 Sum of electronic and thermal Energies=              -578.009492
 Sum of electronic and thermal Enthalpies=            -578.008548
 Sum of electronic and thermal Free Energies=         -578.060937

                     E (Thermal)             CV                S
                      KCal/Mol        Cal/Mol-Kelvin    Cal/Mol-Kelvin
 Total                  162.154             49.341            110.261
 Electronic               0.000              0.000              0.000
 Translational            0.889              2.981             41.336
 Rotational               0.889              2.981             30.881
 Vibrational            160.376             43.379             38.044
 Vibration     1          0.596              1.976              4.641
 Vibration     2          0.600              1.964              3.924
 Vibration     3          0.603              1.953              3.552
 Vibration     4          0.611              1.926              2.985
 Vibration     5          0.637              1.842              2.144
 Vibration     6          0.646              1.814              1.975
 Vibration     7          0.656              1.784              1.826
 Vibration     8          0.669              1.743              1.650
 Vibration     9          0.679              1.714              1.545
 Vibration    10          0.683              1.702              1.507
 Vibration    11          0.693              1.673              1.414
 Vibration    12          0.697              1.660              1.379
 Vibration    13          0.722              1.591              1.200
 Vibration    14          0.745              1.526              1.064
 Vibration    15          0.757              1.493              1.002
 Vibration    16          0.783              1.425              0.890
 Vibration    17          0.818              1.338              0.765
 Vibration    18          0.842              1.281              0.694
 Vibration    19          0.893              1.167              0.570
 Vibration    20          0.949              1.049              0.464

                           ! Non-Optimized Parameters !

 1\1\GINC-NODE310\Freq\RB3LYP\6-31G(d)\C9H16O3\VSC10255\09-Dec-2020\0\\
 #N Geom=AllCheck Guess=TCheck SCRF=Check GenChk RB3LYP/6-31G(d) Freq\\
 CID_141843842_JID_2615_neutraal\\0,1\C,1.1031949514,-0.0028655769,-0.0
 076765267\C,0.803695496,0.8491914877,-1.2531864525\C,1.7218529562,0.45
 61324881,-2.432399802\C,1.8294389279,1.5779339428,-3.4707596692\C,2.43
 57912119,2.8375728122,-2.8491093871\C,1.7074043242,3.2005825302,-1.582
 3146679\C,0.9572087289,2.3201441166,-0.914015934\O,0.178953363,2.63874
 45421,0.1806517372\C,1.2738672763,-0.8516860299,-3.0835012528\O,2.3101

 Normal termination of Gaussian 16 at Wed Dec  9 17:47:56 2020.

 ----------------------------------------------------------------------
 # B3LYP/6-311++G(d,p) empiricaldispersion=gd3bj scf=xqc pop=npa geom=c
 heck
 ----------------------------------------------------------------------

 ---------------------------------------
 CID_141843842_JID_2615_Energie_neutraal
 ---------------------------------------
 Structure from the checkpoint file:  "JID_2615.chk"
 Charge =  0 Multiplicity = 1

 SCF Done:  E(RB3LYP) =  -578.452983709     A.U. after   14 cycles
 Normal termination of Gaussian 16 at Wed Dec  9 17:51:01 2020.

 ----------------------------------------------------------------------
 # B3LYP/6-311++G(d,p) empiricaldispersion=gd3bj scf=xqc pop=npa geom=c
 heck
 ----------------------------------------------------------------------

 -------------------------------------
 CID_141843842_JID_2615_Energie_kation
 -------------------------------------
 Structure from the checkpoint file:  "JID_2615.chk"
 Charge =  1 Multiplicity = 2

 SCF Done:  E(UB3LYP) =  -578.147106822     A.U. after   26 cycles
 Normal termination of Gaussian 16 at Wed Dec  9 17:57:32 2020.
 Gaussian 16:  ES64L-G16RevA.03 25-Dec-2016

 ------------------------------------
 CID_141843842_JID_2615_Energie_anion
 ------------------------------------
 Structure from the checkpoint file:  "JID_2615.chk"
 Charge = -1 Multiplicity = 2

                         Standard orientation:
 ---------------------------------------------------------------------
 Center     Atomic      Atomic             Coordinates (Angstroms)
 Number     Number       Type             X           Y           Z
 ---------------------------------------------------------------------
      1          6           0        0.823484   -1.848469   -1.074932
      2          6           0        0.740450   -0.725074   -0.027037
      3          6           0       -0.479515    0.188219   -0.283228
      4          6           0       -0.310738    1.563382    0.371480
      5          6           0        0.905953    2.292611   -0.201835
      6          6           0        2.120561    1.403987   -0.155284
      7          6           0        2.028644    0.076669   -0.035427
      8          8           0        3.111589   -0.762997    0.130936
      9          6           0       -1.782515   -0.474203    0.162195
     10          8           0       -2.855646    0.298602   -0.353292
     11          6           0       -4.111035   -0.180465    0.068612
     12          8           0        0.572116   -1.300705    1.283159
     13          1           0       -0.092165   -2.445475   -1.060411
     14          1           0        1.670278   -2.506731   -0.863323
     15          1           0        0.958528   -1.434262   -2.079920
     16          1           0       -0.550072    0.335061   -1.369784
     17          1           0       -1.223710    2.146410    0.220873
     18          1           0       -0.175505    1.422354    1.451453
     19          1           0        0.697946    2.617715   -1.233687
     20          1           0        1.100931    3.210345    0.367936
     21          1           0        3.106091    1.871556   -0.177603
     22          1           0        3.909661   -0.220148    0.230951
     23          1           0       -1.856341   -1.508973   -0.206788
     24          1           0       -1.829446   -0.516511    1.260074
     25          1           0       -4.287904   -1.215227   -0.268652
     26          1           0       -4.209041   -0.157326    1.166258
     27          1           0       -4.872275    0.470157   -0.370436
     28          1           0        1.416818   -1.728093    1.499372
 ---------------------------------------------------------------------

 SCF Done:  E(UB3LYP) =  -578.438894472     A.U. after   30 cycles

 The electronic state is 2-A.
 Alpha  occ. eigenvalues --  -19.04135 -19.02848 -19.01986 -10.13525 -10.11991
 Alpha  occ. eigenvalues --  -10.11582 -10.11237 -10.07524 -10.07123 -10.06102
 Alpha  occ. eigenvalues --  -10.05995 -10.05534  -0.95364  -0.94200  -0.91941
 Alpha  occ. eigenvalues --   -0.73496  -0.67091  -0.65387  -0.60812  -0.58077
 Alpha  occ. eigenvalues --   -0.54577  -0.50385  -0.50162  -0.45780  -0.41497
 Alpha  occ. eigenvalues --   -0.39143  -0.38380  -0.36889  -0.36039  -0.35625
 Alpha  occ. eigenvalues --   -0.34393  -0.32816  -0.31757  -0.30762  -0.29874
 Alpha  occ. eigenvalues --   -0.28685  -0.27943  -0.27000  -0.25765  -0.25006
 Alpha  occ. eigenvalues --   -0.24062  -0.22859  -0.22044  -0.21192  -0.17732
 Alpha  occ. eigenvalues --   -0.16441  -0.12168   0.04551
 Alpha virt. eigenvalues --    0.05899   0.07760   0.08312   0.08918   0.09195
 Alpha virt. eigenvalues --    0.10031   0.10664   0.10875   0.11428   0.11630
 Alpha virt. eigenvalues --    0.11912   0.13436   0.13791   0.14012   0.14325

  Beta  occ. eigenvalues --  -19.04068 -19.02839 -19.01972 -10.13518 -10.11990
  Beta  occ. eigenvalues --  -10.11548 -10.11227 -10.07522 -10.07115 -10.06098
  Beta  occ. eigenvalues --  -10.05977 -10.05504  -0.95259  -0.94183  -0.91892
  Beta  occ. eigenvalues --   -0.73472  -0.67062  -0.65351  -0.60769  -0.58035
  Beta  occ. eigenvalues --   -0.54517  -0.50324  -0.50108  -0.45738  -0.41416
  Beta  occ. eigenvalues --   -0.39103  -0.38359  -0.36846  -0.35998  -0.35582
  Beta  occ. eigenvalues --   -0.34373  -0.32782  -0.31715  -0.30731  -0.29850
  Beta  occ. eigenvalues --   -0.28648  -0.27914  -0.26967  -0.25724  -0.24971
  Beta  occ. eigenvalues --   -0.24029  -0.22837  -0.22017  -0.21167  -0.17706
  Beta  occ. eigenvalues --   -0.16424  -0.12134
  Beta virt. eigenvalues --    0.06639   0.07579   0.08027   0.08811   0.09451
  Beta virt. eigenvalues --    0.09763   0.10395   0.10773   0.11119   0.11709
  Beta virt. eigenvalues --    0.11863   0.12170   0.13493   0.13885   0.14207

 Mulliken charges and spin densities:
               1          2
     1  C    0.196998  -0.749585
     2  C    1.128355  -1.056517
     3  C   -0.520918   0.933388
     4  C   -0.009998  -0.154016
     5  C   -0.311486  -0.297286
     6  C    0.772916  -0.566358
     7  C   -0.641797   0.250179
     8  O   -0.274537   0.044345
     9  C   -0.208302  -0.709080
    10  O   -0.177396   0.057081
    11  C    0.820179  -1.082922
    12  O   -0.180092   0.024992
    13  H   -0.175378   0.286315
    14  H    0.003395   0.162639
    15  H    0.035093   0.120523
    16  H    0.074393   0.150719
    17  H    0.194495  -0.028514
    18  H   -0.002560   0.138375
    19  H    0.070521   0.056594
    20  H    0.019191   0.127862
    21  H   -0.977830   1.159532
    22  H   -0.631291   0.927140
    23  H    0.343870  -0.194407
    24  H    0.170486   0.028385
    25  H   -0.419033   0.540445
    26  H   -0.220466   0.345328
    27  H   -0.184093   0.320671
    28  H    0.105284   0.164172
 Sum of Mulliken charges =  -1.00000   1.00000

 Dipole moment (field-independent basis, Debye):
    X=             -4.0028    Y=              0.2472    Z=             -0.7148  Tot=              4.0736
 Quadrupole moment (field-independent basis, Debye-Ang):
   XX=           -173.6586   YY=           -104.8615   ZZ=            -99.5389
   XY=             -7.7182   XZ=             -2.8057   YZ=             -0.1005

 Summary of Natural Population Analysis:

                                       Natural Population
                Natural  -----------------------------------------------
    Atom  No    Charge         Core      Valence    Rydberg      Total
 -----------------------------------------------------------------------
      C    1   -0.29301      0.99962     2.28734    0.00606     3.29301
      C    2    0.11756      0.99946     1.86612    0.01685     2.88244
      C    3   -0.12075      0.99954     2.10897    0.01224     3.12075
      C    4   -0.18811      0.99961     2.18081    0.00769     3.18811
      C    5   -0.19637      0.99963     2.18754    0.00921     3.19637
      C    6   -0.13989      0.99946     2.12974    0.01069     3.13989
      C    7    0.15417      0.99931     1.83086    0.01567     2.84583
      O    8   -0.35960      0.99988     3.35102    0.00871     4.35960
      C    9   -0.00462      0.99955     1.99231    0.01276     3.00462
      O   10   -0.30056      0.99988     3.29110    0.00958     4.30056
      C   11   -0.09590      0.99962     2.08689    0.00938     3.09590
      O   12   -0.37940      0.99989     3.37341    0.00610     4.37940
      H   13    0.10004      0.00000     0.39880    0.00116     0.39996
      H   14    0.10780      0.00000     0.39099    0.00121     0.39220
      H   15    0.10181      0.00000     0.39721    0.00097     0.39819
      H   16    0.10148      0.00000     0.39627    0.00225     0.39852
      H   17    0.10497      0.00000     0.39366    0.00137     0.39503
      H   18    0.09997      0.00000     0.39869    0.00134     0.40003
      H   19    0.09515      0.00000     0.40356    0.00129     0.40485
      H   20    0.09953      0.00000     0.39943    0.00104     0.40047
      H   21    0.10135      0.00000     0.39590    0.00274     0.39865
      H   22    0.24657      0.00000     0.21975    0.03368     0.25343
      H   23    0.08227      0.00000     0.41626    0.00146     0.41773
      H   24    0.08606      0.00000     0.41234    0.00160     0.41394
      H   25    0.07788      0.00000     0.42026    0.00186     0.42212
      H   26    0.07738      0.00000     0.42113    0.00149     0.42262
      H   27    0.08924      0.00000     0.40953    0.00123     0.41076
      H   28    0.23498      0.00000     0.26210    0.00292     0.26502
 =======================================================================
   * Total *    0.00000     11.99545    34.82199    0.18256    47.00000

 Normal termination of Gaussian 16 at Wed Dec  9 18:05:06 2020.
