 Gaussian 16, Revision A.03,

 -----------------------------------------------------------
 # opt freq B3LYP/6-31G(d) empiricaldispersion=gd3bj scf=xqc
 -----------------------------------------------------------

 -------------------------------
 CID_115732469_JID_6464_neutraal
 -------------------------------
 Symbolic Z-matrix:
 Charge =  0 Multiplicity = 1

 SCF Done:  E(RB3LYP) =  -1447.06731432     A.U. after   15 cycles
 SCF Done:  E(RB3LYP) =  -1447.05503604     A.U. after   14 cycles
 SCF Done:  E(RB3LYP) =  -1447.07264636     A.U. after   12 cycles
 SCF Done:  E(RB3LYP) =  -1447.07269989     A.U. after   12 cycles
 SCF Done:  E(RB3LYP) =  -1447.07446305     A.U. after   13 cycles
 SCF Done:  E(RB3LYP) =  -1447.07296548     A.U. after   13 cycles
 SCF Done:  E(RB3LYP) =  -1447.07501752     A.U. after   12 cycles
 SCF Done:  E(RB3LYP) =  -1447.07541993     A.U. after   13 cycles
 SCF Done:  E(RB3LYP) =  -1447.07588207     A.U. after   12 cycles
 SCF Done:  E(RB3LYP) =  -1447.07622434     A.U. after   13 cycles
 SCF Done:  E(RB3LYP) =  -1447.07944651     A.U. after    8 cycles
 SCF Done:  E(RB3LYP) =  -1447.07944716     A.U. after    8 cycles
 SCF Done:  E(RB3LYP) =  -1447.07944750     A.U. after    8 cycles
 SCF Done:  E(RB3LYP) =  -1447.07944792     A.U. after    8 cycles
 Optimization completed.
    -- Stationary point found.
 Normal termination of Gaussian 16 at Thu Dec 10 23:44:36 2020.

 --------------------------------------------------------------------
 #N Geom=AllCheck Guess=TCheck SCRF=Check GenChk RB3LYP/6-31G(d) Freq
 --------------------------------------------------------------------

 Structure from the checkpoint file:  "JID_6464.chk"
 -------------------------------
 CID_115732469_JID_6464_neutraal
 -------------------------------
 Charge =  0 Multiplicity = 1

 SCF Done:  E(RB3LYP) =  -1447.07944792     A.U. after    1 cycles

  Exact polarizability: 176.231   3.007 126.327  -1.949   1.754 149.429
 Approx polarizability: 250.544  11.273 182.666  -6.965  -3.686 258.442

                      1                      2                      3
                      A                      A                      A
 Frequencies --     23.1839                33.6460                42.9567
 Red. masses --      5.0009                 5.1006                 5.9667
 Frc consts  --      0.0016                 0.0034                 0.0065
 IR Inten    --      0.1340                 0.7209                 0.0547

                      4                      5                      6
                      A                      A                      A
 Frequencies --     54.5409                56.6608               104.5054
 Red. masses --      6.4507                 5.5342                 4.7993
 Frc consts  --      0.0113                 0.0105                 0.0309
 IR Inten    --      0.3205                 2.0385                 0.5807

                      7                      8                      9
                      A                      A                      A
 Frequencies --    121.3577               148.1106               160.2402
 Red. masses --      4.6542                 2.9973                 4.3710
 Frc consts  --      0.0404                 0.0387                 0.0661
 IR Inten    --      3.3278                 0.6399                 1.1141

                     10                     11                     12
                      A                      A                      A
 Frequencies --    180.0768               201.5461               221.7148
 Red. masses --      1.2348                 3.6103                 3.9322
 Frc consts  --      0.0236                 0.0864                 0.1139
 IR Inten    --      1.0107                 5.2454                 0.6559

                     13                     14                     15
                      A                      A                      A
 Frequencies --    233.5627               246.5353               275.4109
 Red. masses --      2.9889                 2.7357                 3.4407
 Frc consts  --      0.0961                 0.0980                 0.1538
 IR Inten    --      4.8597                 2.0858                 0.4732

                     16                     17                     18
                      A                      A                      A
 Frequencies --    302.0076               304.9589               368.6770
 Red. masses --      2.8528                 2.5497                 3.4277
 Frc consts  --      0.1533                 0.1397                 0.2745
 IR Inten    --      4.7891                 5.7098                15.6005

                     19                     20                     21
                      A                      A                      A
 Frequencies --    382.7271               446.9778               478.8354
 Red. masses --      2.9811                 3.6585                 4.9373
 Frc consts  --      0.2573                 0.4307                 0.6670
 IR Inten    --      5.2973                 3.0909                 1.3000

                     22                     23                     24
                      A                      A                      A
 Frequencies --    494.8600               584.3375               590.4678
 Red. masses --      4.3317                 7.2643                 3.4686
 Frc consts  --      0.6250                 1.4614                 0.7125
 IR Inten    --      1.5431                 6.0934                 5.1966

                     25                     26                     27
                      A                      A                      A
 Frequencies --    618.9833               657.5750               697.8158
 Red. masses --      5.1073                 3.7470                 2.8524
 Frc consts  --      1.1529                 0.9546                 0.8184
 IR Inten    --      7.4085                 5.2031                 3.5411

                     28                     29                     30
                      A                      A                      A
 Frequencies --    723.8123               726.3812               755.2332
 Red. masses --      3.2994                 6.2845                 4.1606
 Frc consts  --      1.0185                 1.9537                 1.3982
 IR Inten    --      1.1402                 1.1863                 2.0070

                     31                     32                     33
                      A                      A                      A
 Frequencies --    785.2870               798.3312               852.0705
 Red. masses --      1.2022                 1.6751                 2.5168
 Frc consts  --      0.4368                 0.6290                 1.0766
 IR Inten    --     21.8008                16.6445                34.8729

                     34                     35                     36
                      A                      A                      A
 Frequencies --    874.4068               882.4380               903.1818
 Red. masses --      4.5444                 1.6313                 1.3872
 Frc consts  --      2.0471                 0.7484                 0.6667
 IR Inten    --     48.9744                66.1658                 7.8381

                     37                     38                     39
                      A                      A                      A
 Frequencies --    936.5484               949.8133               973.6699
 Red. masses --      2.5482                 1.8894                 2.0772
 Frc consts  --      1.3169                 1.0043                 1.1603
 IR Inten    --     12.6669                 4.5818                 7.1257

                     40                     41                     42
                      A                      A                      A
 Frequencies --    996.6231              1015.5360              1063.7966
 Red. masses --      3.0591                 2.2727                 3.4451
 Frc consts  --      1.7902                 1.3810                 2.2971
 IR Inten    --      8.1451                27.7871                 9.0126

                     43                     44                     45
                      A                      A                      A
 Frequencies --   1066.0835              1097.2937              1118.8525
 Red. masses --      3.4491                 2.3287                 2.3542
 Frc consts  --      2.3096                 1.6520                 1.7363
 IR Inten    --      5.6434                 8.6272                31.7970

                     46                     47                     48
                      A                      A                      A
 Frequencies --   1153.5758              1169.3716              1179.2400
 Red. masses --      2.5457                 2.5213                 1.3464
 Frc consts  --      1.9959                 2.0314                 1.1031
 IR Inten    --      7.2079                38.3173                67.0357

                     49                     50                     51
                      A                      A                      A
 Frequencies --   1190.3228              1219.2309              1221.5149
 Red. masses --      1.2772                 1.3885                 1.3951
 Frc consts  --      1.0662                 1.2161                 1.2264
 IR Inten    --      1.9664                 6.1760                 2.7760

                     52                     53                     54
                      A                      A                      A
 Frequencies --   1241.9795              1279.5169              1281.9678
 Red. masses --      1.2217                 1.2465                 1.6428
 Frc consts  --      1.1103                 1.2024                 1.5907
 IR Inten    --     15.2188                35.8980                72.5054

                     55                     56                     57
                      A                      A                      A
 Frequencies --   1284.0496              1305.3981              1340.8022
 Red. masses --      1.5396                 1.2009                 1.2947
 Frc consts  --      1.4956                 1.2057                 1.3713
 IR Inten    --    125.1497                 1.7022                 6.7179

                     58                     59                     60
                      A                      A                      A
 Frequencies --   1342.8008              1351.2056              1394.5919
 Red. masses --      1.4963                 1.3149                 1.4031
 Frc consts  --      1.5896                 1.4144                 1.6078
 IR Inten    --     13.1016                 2.0191                22.0690

                     61                     62                     63
                      A                      A                      A
 Frequencies --   1400.5486              1423.5675              1485.3951
 Red. masses --      1.6534                 1.3283                 3.9219
 Frc consts  --      1.9108                 1.5860                 5.0984
 IR Inten    --     76.3118                 2.7142                31.5131

                     64                     65                     66
                      A                      A                      A
 Frequencies --   1488.3756              1489.0054              1497.8014
 Red. masses --      1.1182                 1.1244                 1.2112
 Frc consts  --      1.4594                 1.4688                 1.6010
 IR Inten    --      3.9409                 8.7815                30.2760

                     67                     68                     69
                      A                      A                      A
 Frequencies --   1503.7517              1511.5769              1516.4670
 Red. masses --      1.1861                 1.0918                 1.0597
 Frc consts  --      1.5802                 1.4698                 1.4359
 IR Inten    --      1.2845                 3.9383                 5.0460

                     70                     71                     72
                      A                      A                      A
 Frequencies --   1527.7814              1536.0277              1545.2182
 Red. masses --      1.0467                 1.1771                 1.0950
 Frc consts  --      1.4394                 1.6363                 1.5404
 IR Inten    --      8.0423                32.1759                28.1581

                     73                     74                     75
                      A                      A                      A
 Frequencies --   1578.4622              1795.8105              3034.9693
 Red. masses --      4.6371                10.2228                 1.0611
 Frc consts  --      6.8072                19.4242                 5.7587
 IR Inten    --     16.8832               275.3100                56.0332

                     76                     77                     78
                      A                      A                      A
 Frequencies --   3039.1212              3048.9075              3072.7226
 Red. masses --      1.0640                 1.0685                 1.1026
 Frc consts  --      5.7899                 5.8523                 6.1336
 IR Inten    --      6.5209                 8.2165                14.2839

                     79                     80                     81
                      A                      A                      A
 Frequencies --   3076.4600              3082.7244              3090.3786
 Red. masses --      1.0312                 1.0960                 1.0592
 Frc consts  --      5.7503                 6.1368                 5.9602
 IR Inten    --     21.4321                24.3078                12.5655

                     82                     83                     84
                      A                      A                      A
 Frequencies --   3096.4986              3135.4839              3140.1287
 Red. masses --      1.0631                 1.1027                 1.1035
 Frc consts  --      6.0058                 6.3873                 6.4110
 IR Inten    --     19.8116                 1.3912                15.3432

                     85                     86                     87
                      A                      A                      A
 Frequencies --   3147.2318              3155.5388              3192.5531
 Red. masses --      1.0983                 1.1063                 1.1072
 Frc consts  --      6.4097                 6.4904                 6.6488
 IR Inten    --      8.7815                16.9289                14.3754

                     88                     89                     90
                      A                      A                      A
 Frequencies --   3241.1026              3244.6064              3495.1758
 Red. masses --      1.0927                 1.0954                 1.0735
 Frc consts  --      6.7627                 6.7941                 7.7263
 IR Inten    --      4.2437                 2.7986                22.6060

 - Thermochemistry -
 -------------------
 Temperature   298.150 Kelvin.  Pressure   1.00000 Atm.
 Atom     1 has atomic number  6 and mass  12.00000

 Molecular mass:   260.06532 amu.
 Principal axes and moments of inertia in atomic units:
                           1         2         3
     Eigenvalues --  2784.684738060.542228572.26673
           X            0.99996   0.00837  -0.00218
           Y           -0.00820   0.99752   0.06987
           Z            0.00276  -0.06985   0.99755
 This molecule is an asymmetric top.
 Rotational symmetry number  1.
 Warning -- assumption of classical behavior for rotation
           may cause significant error
 Rotational temperatures (Kelvin)      0.03110     0.01075     0.01010
 Rotational constants (GHZ):           0.64810     0.22390     0.21053
 Zero-point vibrational energy     688454.4 (Joules/Mol)
                                  164.54456 (Kcal/Mol)
 Warning -- explicit consideration of  25 degrees of freedom as
           vibrations may cause significant error
 Vibrational temperatures:     33.36    48.41    61.81    78.47    81.52
          (Kelvin)            150.36   174.61   213.10   230.55   259.09
                              289.98   319.00   336.04   354.71   396.25
                              434.52   438.77   530.44   550.66   643.10
                              688.94   711.99   840.73   849.55   890.58
                              946.10  1004.00  1041.40  1045.10  1086.61
                             1129.85  1148.62  1225.94  1258.08  1269.63
                             1299.48  1347.48  1366.57  1400.89  1433.92
                             1461.13  1530.57  1533.86  1578.76  1609.78
                             1659.74  1682.46  1696.66  1712.61  1754.20
                             1757.49  1786.93  1840.94  1844.47  1847.46
                             1878.18  1929.12  1931.99  1944.08  2006.51
                             2015.08  2048.20  2137.15  2141.44  2142.35
                             2155.00  2163.56  2174.82  2181.86  2198.14
                             2210.00  2223.22  2271.06  2583.77  4366.64
                             4372.62  4386.70  4420.96  4426.34  4435.35
                             4446.37  4455.17  4511.26  4517.94  4528.16
                             4540.12  4593.37  4663.22  4668.26  5028.78

 Zero-point correction=                           0.262218 (Hartree/Particle)
 Thermal correction to Energy=                    0.279370
 Thermal correction to Enthalpy=                  0.280314
 Thermal correction to Gibbs Free Energy=         0.214685
 Sum of electronic and zero-point Energies=          -1446.817229
 Sum of electronic and thermal Energies=             -1446.800078
 Sum of electronic and thermal Enthalpies=           -1446.799134
 Sum of electronic and thermal Free Energies=        -1446.864763

                     E (Thermal)             CV                S
                      KCal/Mol        Cal/Mol-Kelvin    Cal/Mol-Kelvin
 Total                  175.307             62.007            138.127
 Electronic               0.000              0.000              0.000
 Translational            0.889              2.981             42.567
 Rotational               0.889              2.981             33.620
 Vibrational            173.530             56.045             61.941
 Vibration     1          0.593              1.985              6.341
 Vibration     2          0.594              1.983              5.602
 Vibration     3          0.595              1.980              5.118
 Vibration     4          0.596              1.976              4.646
 Vibration     5          0.596              1.975              4.570
 Vibration     6          0.605              1.946              3.368
 Vibration     7          0.609              1.931              3.079
 Vibration     8          0.617              1.905              2.696
 Vibration     9          0.622              1.891              2.547
 Vibration    10          0.629              1.867              2.328
 Vibration    11          0.638              1.838              2.119
 Vibration    12          0.648              1.808              1.945
 Vibration    13          0.654              1.790              1.851
 Vibration    14          0.661              1.769              1.755
 Vibration    15          0.677              1.719              1.562
 Vibration    16          0.694              1.670              1.406
 Vibration    17          0.696              1.664              1.390
 Vibration    18          0.741              1.537              1.085
 Vibration    19          0.752              1.507              1.028
 Vibration    20          0.806              1.368              0.805
 Vibration    21          0.835              1.297              0.713
 Vibration    22          0.850              1.261              0.671
 Vibration    23          0.941              1.065              0.477
 Vibration    24          0.948              1.052              0.466
 Vibration    25          0.979              0.992              0.418

                           ! Non-Optimized Parameters !
 Normal termination of Gaussian 16 at Thu Dec 10 23:55:24 2020.

 ----------------------------------------------------------------------
 # B3LYP/6-311++G(d,p) empiricaldispersion=gd3bj scf=xqc pop=npa geom=c
 heck
 ----------------------------------------------------------------------

 ---------------------------------------
 CID_115732469_JID_6464_Energie_neutraal
 ---------------------------------------
 Structure from the checkpoint file:  "JID_6464.chk"
 Charge =  0 Multiplicity = 1

 SCF Done:  E(RB3LYP) =  -1447.32026203     A.U. after   16 cycles
 Normal termination of Gaussian 16 at Fri Dec 11 00:00:13 2020.

 ----------------------------------------------------------------------
 # B3LYP/6-311++G(d,p) empiricaldispersion=gd3bj scf=xqc pop=npa geom=c
 heck
 ----------------------------------------------------------------------

 -------------------------------------
 CID_115732469_JID_6464_Energie_kation
 -------------------------------------
 Structure from the checkpoint file:  "JID_6464.chk"
 Charge =  1 Multiplicity = 2

 SCF Done:  E(UB3LYP) =  -1447.02317533     A.U. after   33 cycles
 SCF Done:  E(UB3LYP) =  -1447.02318425     a.u. after    2 cycles
 Normal termination of Gaussian 16 at Fri Dec 11 00:26:12 2020.
 Gaussian 16:  ES64L-G16RevA.03 25-Dec-2016

 ----------------------------------------------------------------------
 # B3LYP/6-311++G(d,p) empiricaldispersion=gd3bj scf=xqc pop=npa geom=c
 heck
 ----------------------------------------------------------------------

 ------------------------------------
 CID_115732469_JID_6464_Energie_anion
 ------------------------------------
 Structure from the checkpoint file:  "JID_6464.chk"
 Charge = -1 Multiplicity = 2

                         Standard orientation:
 ---------------------------------------------------------------------
 Center     Atomic      Atomic             Coordinates (Angstroms)
 Number     Number       Type             X           Y           Z
 ---------------------------------------------------------------------
      1          6           0       -2.574562   -2.813964   -0.828461
      2          8           0       -3.183184   -1.759338   -0.058970
      3          6           0       -2.352678   -1.068710    0.740172
      4          8           0       -1.164519   -1.316918    0.841705
      5          6           0       -3.064813    0.039715    1.483072
      6          6           0       -2.304488    1.372066    1.411287
      7         16           0       -2.465311    2.289314   -0.170073
      8          6           0       -1.594748    1.181184   -1.344020
      9          6           0       -0.086887    1.042752   -1.089897
     10          7           0        0.380655   -0.245305   -1.607250
     11          6           0        1.830000   -0.361023   -1.705784
     12          6           0        2.588076   -0.245053   -0.398620
     13          6           0        2.149921   -0.484975    0.876386
     14          7           0        3.076775   -0.324843    1.887085
     15          6           0        4.226223    0.036347    1.403101
     16         16           0        4.273050    0.217237   -0.338806
     17          1           0       -3.399070   -3.319329   -1.330196
     18          1           0       -2.033564   -3.501900   -0.175231
     19          1           0       -1.883822   -2.389079   -1.562652
     20          1           0       -4.086054    0.143904    1.111314
     21          1           0       -3.114472   -0.273902    2.534904
     22          1           0       -2.709963    2.061043    2.157419
     23          1           0       -1.250534    1.209246    1.651531
     24          1           0       -2.079829    0.202688   -1.345265
     25          1           0       -1.785601    1.610628   -2.331756
     26          1           0        0.446613    1.841441   -1.617576
     27          1           0        0.136165    1.177638   -0.023314
     28          1           0        0.026142   -0.974660   -0.989753
     29          1           0        2.058499   -1.329014   -2.171443
     30          1           0        2.185280    0.405944   -2.405175
     31          1           0        1.139051   -0.779542    1.133601
     32          1           0        5.110679    0.221146    2.001512
 ---------------------------------------------------------------------

 SCF Done:  E(UB3LYP) =  -1447.31045412     A.U. after   33 cycles
 SCF Done:  E(UB3LYP) =  -1447.31045412     a.u. after    1 cycles

 The electronic state is 2-A.
 Alpha  occ. eigenvalues --  -88.77505 -88.74678 -19.07960 -19.01952 -14.20787
 Alpha  occ. eigenvalues --  -14.20477 -10.20639 -10.12911 -10.12048 -10.11300
 Alpha  occ. eigenvalues --  -10.11136 -10.10471 -10.10109 -10.09609 -10.09367
 Alpha  occ. eigenvalues --  -10.08722  -7.86167  -7.83283  -5.82425  -5.82093
 Alpha  occ. eigenvalues --   -5.81796  -5.79683  -5.79309  -5.78653  -1.01934
 Alpha  occ. eigenvalues --   -0.92944  -0.85514  -0.81749  -0.72870  -0.70156
 Alpha  occ. eigenvalues --   -0.68090  -0.64772  -0.63538  -0.60396  -0.57139
 Alpha  occ. eigenvalues --   -0.53570  -0.49260  -0.48156  -0.46921  -0.45216
 Alpha  occ. eigenvalues --   -0.42126  -0.41574  -0.40119  -0.38983  -0.38656
 Alpha  occ. eigenvalues --   -0.36629  -0.36099  -0.34828  -0.34103  -0.32282
 Alpha  occ. eigenvalues --   -0.31520  -0.31087  -0.30903  -0.29814  -0.29236
 Alpha  occ. eigenvalues --   -0.28713  -0.28396  -0.27459  -0.26694  -0.25653
 Alpha  occ. eigenvalues --   -0.24752  -0.22108  -0.21537  -0.19308  -0.17959
 Alpha  occ. eigenvalues --   -0.17211  -0.14212  -0.13972  -0.13607   0.04289
 Alpha virt. eigenvalues --    0.05819   0.06326   0.07445   0.07607   0.08196
 Alpha virt. eigenvalues --    0.08650   0.09039   0.09572   0.09845   0.10665
 Alpha virt. eigenvalues --    0.11198   0.11557   0.11783   0.11890   0.12517

  Beta  occ. eigenvalues --  -88.77488 -88.74677 -19.07938 -19.01915 -14.20760
  Beta  occ. eigenvalues --  -14.20474 -10.20544 -10.12866 -10.11887 -10.11306
  Beta  occ. eigenvalues --  -10.11116 -10.10462 -10.10109 -10.09469 -10.09352
  Beta  occ. eigenvalues --  -10.08724  -7.86151  -7.83282  -5.82421  -5.82088
  Beta  occ. eigenvalues --   -5.81734  -5.79683  -5.79307  -5.78652  -1.01851
  Beta  occ. eigenvalues --   -0.92874  -0.85382  -0.81732  -0.72824  -0.70017
  Beta  occ. eigenvalues --   -0.68021  -0.64665  -0.63398  -0.60340  -0.57082
  Beta  occ. eigenvalues --   -0.53527  -0.49204  -0.47941  -0.46841  -0.45095
  Beta  occ. eigenvalues --   -0.42018  -0.41505  -0.39994  -0.38921  -0.38578
  Beta  occ. eigenvalues --   -0.36579  -0.36034  -0.34755  -0.34035  -0.32192
  Beta  occ. eigenvalues --   -0.31444  -0.30935  -0.30754  -0.29742  -0.29102
  Beta  occ. eigenvalues --   -0.28582  -0.28265  -0.27388  -0.26648  -0.25548
  Beta  occ. eigenvalues --   -0.24711  -0.21969  -0.21505  -0.19269  -0.17600
  Beta  occ. eigenvalues --   -0.17149  -0.13949  -0.13640  -0.13500
  Beta virt. eigenvalues --    0.06738   0.07155   0.07360   0.07523   0.07801
  Beta virt. eigenvalues --    0.08376   0.09296   0.09615   0.09919   0.10084
  Beta virt. eigenvalues --    0.10879   0.11215   0.11634   0.11856   0.12122

 Mulliken charges and spin densities:
               1          2
     1  C    0.780505  -0.995397
     2  O   -0.040443   0.068393
     3  C   -1.000626   0.665555
     4  O   -0.261588   0.047593
     5  C    1.374175  -1.801709
     6  C   -0.351558   0.149784
     7  S    0.069624  -0.159673
     8  C    0.247440  -0.155011
     9  C   -0.793976   0.026817
    10  N   -0.043364   0.078288
    11  C   -0.347360  -0.418591
    12  C    0.624006   0.204938
    13  C   -0.807625  -0.022414
    14  N   -0.000770   0.018255
    15  C   -0.099787   0.147285
    16  S   -0.366068   0.085119
    17  H   -0.685487   0.868665
    18  H   -0.055119   0.225622
    19  H   -0.292949   0.464150
    20  H   -0.008478   0.199234
    21  H   -0.400493   0.600178
    22  H   -0.348059   0.621324
    23  H    0.270671  -0.119701
    24  H    0.218601  -0.047938
    25  H    0.166231   0.082259
    26  H    0.125086  -0.024559
    27  H    0.058268   0.006058
    28  H    0.555468  -0.324366
    29  H   -0.124930   0.339108
    30  H    0.149021  -0.003005
    31  H    0.184357   0.160271
    32  H    0.205227   0.013472
 Sum of Mulliken charges =  -1.00000   1.00000

 Dipole moment (field-independent basis, Debye):
    X=              4.2491    Y=              3.7926    Z=             -2.4664  Tot=              6.2066
 Quadrupole moment (field-independent basis, Debye-Ang):
   XX=           -178.7474   YY=           -154.7015   ZZ=           -152.5479
   XY=             -2.7487   XZ=              1.8291   YZ=             -8.8929

 Summary of Natural Population Analysis:

                                       Natural Population
                Natural  -----------------------------------------------
    Atom  No    Charge         Core      Valence    Rydberg      Total
 -----------------------------------------------------------------------
      C    1   -0.10681      0.99959     2.09835    0.00888     3.10681
      O    2   -0.27359      0.99986     3.26443    0.00930     4.27359
      C    3    0.42092      0.99968     1.55294    0.02646     2.57908
      O    4   -0.32390      0.99986     3.31778    0.00626     4.32390
      C    5   -0.24192      0.99956     2.23186    0.01050     3.24192
      C    6   -0.25227      0.99958     2.24107    0.01162     3.25227
      S    7    0.08433      4.99963     2.89872    0.01732     7.91567
      C    8   -0.25371      0.99958     2.24365    0.01048     3.25371
      C    9   -0.09599      0.99961     2.08508    0.01130     3.09599
      N   10   -0.34242      0.99975     2.83102    0.01166     3.84242
      C   11   -0.10042      0.99957     2.08755    0.01331     3.10042
      C   12   -0.09715      0.99950     2.08641    0.01125     3.09715
      C   13   -0.03901      0.99944     2.02356    0.01600     3.03901
      N   14   -0.23241      0.99969     2.72147    0.01125     3.73241
      C   15   -0.03317      0.99967     2.01791    0.01559     3.03317
      S   16    0.17130      4.99943     2.80999    0.01928     7.82870
      H   17    0.09488      0.00000     0.40335    0.00177     0.40512
      H   18    0.09421      0.00000     0.40458    0.00121     0.40579
      H   19    0.09297      0.00000     0.40505    0.00199     0.40703
      H   20    0.11231      0.00000     0.38579    0.00191     0.38769
      H   21    0.12086      0.00000     0.37588    0.00326     0.37914
      H   22    0.11098      0.00000     0.38758    0.00144     0.38902
      H   23    0.10825      0.00000     0.38989    0.00186     0.39175
      H   24    0.10405      0.00000     0.39381    0.00214     0.39595
      H   25    0.10627      0.00000     0.39291    0.00083     0.39373
      H   26    0.09096      0.00000     0.40796    0.00108     0.40904
      H   27    0.09013      0.00000     0.40826    0.00161     0.40987
      H   28    0.18553      0.00000     0.31058    0.00389     0.31447
      H   29    0.10494      0.00000     0.39364    0.00142     0.39506
      H   30    0.09395      0.00000     0.40500    0.00105     0.40605
      H   31    0.11418      0.00000     0.38336    0.00246     0.38582
      H   32    0.09178      0.00000     0.40703    0.00119     0.40822
 =======================================================================
   * Total *   -0.00000     23.99399    44.76644    0.23956    69.00000

 Normal termination of Gaussian 16 at Fri Dec 11 00:40:01 2020.
