 Gaussian 16, Revision A.03,

 -----------------------------------------------------------
 # opt freq B3LYP/6-31G(d) empiricaldispersion=gd3bj scf=xqc
 -----------------------------------------------------------

 -------------------------------
 CID_65540126_JID_10696_neutraal
 -------------------------------
 Symbolic Z-matrix:
 Charge =  0 Multiplicity = 1

 SCF Done:  E(RB3LYP) =  -1225.75973570     A.U. after   14 cycles
 SCF Done:  E(RB3LYP) =  -1225.76054299     A.U. after   13 cycles
 SCF Done:  E(RB3LYP) =  -1225.76531571     A.U. after   13 cycles
 SCF Done:  E(RB3LYP) =  -1225.76394163     A.U. after   14 cycles
 SCF Done:  E(RB3LYP) =  -1225.76735757     A.U. after   12 cycles
 SCF Done:  E(RB3LYP) =  -1225.76768728     A.U. after   12 cycles
 SCF Done:  E(RB3LYP) =  -1225.76849979     A.U. after   12 cycles
 SCF Done:  E(RB3LYP) =  -1225.76876873     A.U. after   13 cycles
 SCF Done:  E(RB3LYP) =  -1225.76949728     A.U. after   12 cycles
 SCF Done:  E(RB3LYP) =  -1225.76971315     A.U. after   14 cycles
 SCF Done:  E(RB3LYP) =  -1225.77361234     A.U. after    8 cycles
 SCF Done:  E(RB3LYP) =  -1225.77361264     A.U. after    8 cycles
 SCF Done:  E(RB3LYP) =  -1225.77361314     A.U. after    8 cycles
 SCF Done:  E(RB3LYP) =  -1225.77361334     A.U. after    7 cycles
 SCF Done:  E(RB3LYP) =  -1225.77361344     A.U. after    7 cycles
 Optimization completed.
    -- Stationary point found.
 Normal termination of Gaussian 16 at Sat Dec 12 17:50:20 2020.

 --------------------------------------------------------------------
 #N Geom=AllCheck Guess=TCheck SCRF=Check GenChk RB3LYP/6-31G(d) Freq
 --------------------------------------------------------------------

 Structure from the checkpoint file:  "JID_10696.chk"
 -------------------------------
 CID_65540126_JID_10696_neutraal
 -------------------------------
 Charge =  0 Multiplicity = 1

 SCF Done:  E(RB3LYP) =  -1225.77361344     A.U. after    1 cycles

  Exact polarizability: 201.647 -33.370 168.049 -14.944 -22.973 176.517
 Approx polarizability: 306.205 -61.742 260.525 -32.059 -52.254 310.233

                      1                      2                      3
                      A                      A                      A
 Frequencies --     25.3834                33.4774                44.5890
 Red. masses --      5.6680                 4.7524                 4.0198
 Frc consts  --      0.0022                 0.0031                 0.0047
 IR Inten    --      0.2613                 0.0173                 0.1244

                      4                      5                      6
                      A                      A                      A
 Frequencies --     59.3406                75.7234                86.4321
 Red. masses --      5.3248                 4.7351                 5.9057
 Frc consts  --      0.0110                 0.0160                 0.0260
 IR Inten    --      0.8494                 0.8240                 0.1973

                      7                      8                      9
                      A                      A                      A
 Frequencies --     96.3859               112.4066               134.2161
 Red. masses --      4.1123                 2.7098                 2.3921
 Frc consts  --      0.0225                 0.0202                 0.0254
 IR Inten    --      0.9970                 5.7956                 1.6720

                     10                     11                     12
                      A                      A                      A
 Frequencies --    142.6350               159.4749               182.4586
 Red. masses --      2.9096                 1.5566                 2.9291
 Frc consts  --      0.0349                 0.0233                 0.0575
 IR Inten    --      0.3253                 1.5865                 7.2493

                     13                     14                     15
                      A                      A                      A
 Frequencies --    228.4809               237.3506               269.7447
 Red. masses --      3.3173                 2.8751                 4.2820
 Frc consts  --      0.1020                 0.0954                 0.1836
 IR Inten    --      0.4203                 0.6285                 0.4803

                     16                     17                     18
                      A                      A                      A
 Frequencies --    281.5560               298.8522               304.7047
 Red. masses --      2.8137                 1.4207                 2.2909
 Frc consts  --      0.1314                 0.0748                 0.1253
 IR Inten    --      5.1877                 0.9994                 1.5886

                     19                     20                     21
                      A                      A                      A
 Frequencies --    321.5446               363.7436               382.0858
 Red. masses --      5.6650                 3.8484                 2.0180
 Frc consts  --      0.3451                 0.3000                 0.1736
 IR Inten    --      2.2911                 1.7306                 0.1311

                     22                     23                     24
                      A                      A                      A
 Frequencies --    423.7356               462.2422               480.0140
 Red. masses --      2.8110                 3.3896                 4.3204
 Frc consts  --      0.2974                 0.4267                 0.5865
 IR Inten    --      4.9445                 5.5181                 4.6286

                     25                     26                     27
                      A                      A                      A
 Frequencies --    503.1971               509.8117               529.9922
 Red. masses --      3.5300                 3.1497                 3.9694
 Frc consts  --      0.5266                 0.4823                 0.6569
 IR Inten    --      0.6933                 1.9206                 4.1885

                     28                     29                     30
                      A                      A                      A
 Frequencies --    568.8821               573.1194               586.1998
 Red. masses --      4.6090                 3.2278                 4.0411
 Frc consts  --      0.8788                 0.6247                 0.8182
 IR Inten    --      1.1792                 0.2297                 3.7459

                     31                     32                     33
                      A                      A                      A
 Frequencies --    610.5981               628.2672               692.7843
 Red. masses --      5.2903                 5.2502                 1.2697
 Frc consts  --      1.1621                 1.2210                 0.3590
 IR Inten    --      2.1083                 1.4271                53.5566

                     34                     35                     36
                      A                      A                      A
 Frequencies --    715.7761               736.2755               742.6050
 Red. masses --      1.9810                 4.2158                 2.6120
 Frc consts  --      0.5980                 1.3465                 0.8487
 IR Inten    --     81.4926                 6.3840                 7.3965

                     37                     38                     39
                      A                      A                      A
 Frequencies --    752.7764               772.4033               786.6705
 Red. masses --      5.5707                 1.3763                 3.3504
 Frc consts  --      1.8599                 0.4838                 1.2216
 IR Inten    --      4.3021                35.5429                13.9748

                     40                     41                     42
                      A                      A                      A
 Frequencies --    814.5320               834.6418               844.9468
 Red. masses --      2.2664                 1.6055                 2.0866
 Frc consts  --      0.8860                 0.6590                 0.8777
 IR Inten    --     24.6432                 6.8109                 6.5984

                     43                     44                     45
                      A                      A                      A
 Frequencies --    863.8633               873.3760               874.5168
 Red. masses --      2.8914                 1.8021                 2.2341
 Frc consts  --      1.2713                 0.8099                 1.0067
 IR Inten    --      7.0123                 7.8655                 2.9141

                     46                     47                     48
                      A                      A                      A
 Frequencies --    901.7340               910.1249               928.2602
 Red. masses --      1.4718                 1.6914                 2.3812
 Frc consts  --      0.7051                 0.8255                 1.2089
 IR Inten    --      3.1803                 1.4569                15.1201

                     49                     50                     51
                      A                      A                      A
 Frequencies --    935.7621               966.6139               972.6902
 Red. masses --      1.4291                 1.2329                 1.6406
 Frc consts  --      0.7373                 0.6787                 0.9145
 IR Inten    --      4.5759                 0.1054                 1.8527

                     52                     53                     54
                      A                      A                      A
 Frequencies --   1041.8513              1044.4260              1057.5306
 Red. masses --      4.4822                 4.2677                 2.2003
 Frc consts  --      2.8665                 2.7428                 1.4499
 IR Inten    --     37.9246                95.9672                14.7221

                     55                     56                     57
                      A                      A                      A
 Frequencies --   1066.0441              1084.0048              1098.6729
 Red. masses --      1.9473                 1.7144                 1.6551
 Frc consts  --      1.3039                 1.1869                 1.1771
 IR Inten    --     18.0987                11.4382                 2.3044

                     58                     59                     60
                      A                      A                      A
 Frequencies --   1116.2410              1124.4649              1132.5751
 Red. masses --      1.2961                 1.7452                 1.7787
 Frc consts  --      0.9515                 1.3001                 1.3442
 IR Inten    --      5.1921                16.7005                34.6230

                     61                     62                     63
                      A                      A                      A
 Frequencies --   1165.5528              1186.1024              1186.6446
 Red. masses --      2.9621                 1.2092                 1.1841
 Frc consts  --      2.3709                 1.0022                 0.9824
 IR Inten    --     12.3626                 1.7883                 9.0643

                     64                     65                     66
                      A                      A                      A
 Frequencies --   1189.2718              1200.1550              1212.3129
 Red. masses --      2.2910                 2.2679                 1.5756
 Frc consts  --      1.9092                 1.9247                 1.3644
 IR Inten    --     35.7988                 5.5279                17.9410

                     67                     68                     69
                      A                      A                      A
 Frequencies --   1246.9443              1249.5746              1277.9870
 Red. masses --      2.2233                 1.3206                 1.3469
 Frc consts  --      2.0368                 1.2149                 1.2961
 IR Inten    --     50.3681                 9.0387                18.5917

                     70                     71                     72
                      A                      A                      A
 Frequencies --   1284.0998              1298.3962              1311.1101
 Red. masses --      1.3260                 1.9064                 1.6035
 Frc consts  --      1.2883                 1.8936                 1.6240
 IR Inten    --     12.5174                54.4866                33.2900

                     73                     74                     75
                      A                      A                      A
 Frequencies --   1316.4106              1330.5927              1346.3064
 Red. masses --      1.7377                 1.4861                 7.5906
 Frc consts  --      1.7743                 1.5502                 8.1062
 IR Inten    --    130.3445                 6.8905                 0.9276

                     76                     77                     78
                      A                      A                      A
 Frequencies --   1376.7668              1401.2167              1406.3303
 Red. masses --      1.2743                 1.4604                 1.7486
 Frc consts  --      1.4231                 1.6894                 2.0376
 IR Inten    --     10.3270                10.7677                 0.7017

                     79                     80                     81
                      A                      A                      A
 Frequencies --   1418.3803              1429.8409              1439.7693
 Red. masses --      1.2995                 1.2926                 1.3360
 Frc consts  --      1.5403                 1.5570                 1.6317
 IR Inten    --     18.3763                 3.1653                11.8990

                     82                     83                     84
                      A                      A                      A
 Frequencies --   1484.4185              1498.5164              1506.5894
 Red. masses --      1.3526                 5.8147                 1.7405
 Frc consts  --      1.7560                 7.6931                 2.3276
 IR Inten    --      8.9513                 6.9101                14.7145

                     85                     86                     87
                      A                      A                      A
 Frequencies --   1507.9306              1512.5313              1516.2230
 Red. masses --      1.1402                 1.0573                 1.0650
 Frc consts  --      1.5276                 1.4252                 1.4426
 IR Inten    --      5.1350                 5.4300                 1.0221

                     88                     89                     90
                      A                      A                      A
 Frequencies --   1520.8225              1527.5640              1537.7153
 Red. masses --      1.0967                 1.1746                 1.0668
 Frc consts  --      1.4945                 1.6148                 1.4862
 IR Inten    --      4.4011                15.3740                15.5964

                     91                     92                     93
                      A                      A                      A
 Frequencies --   1539.2674              1549.5456              1559.7245
 Red. masses --      1.0665                 2.2384                 1.2630
 Frc consts  --      1.4888                 3.1666                 1.8103
 IR Inten    --      1.8718               121.8126                25.4948

                     94                     95                     96
                      A                      A                      A
 Frequencies --   1598.4706              1640.7878              1658.1227
 Red. masses --      5.0023                 6.6112                 5.9522
 Frc consts  --      7.5305                10.4866                 9.6419
 IR Inten    --      1.1106                 5.6552                 5.9391

                     97                     98                     99
                      A                      A                      A
 Frequencies --   3002.7200              3014.4283              3032.2908
 Red. masses --      1.0694                 1.0808                 1.0676
 Frc consts  --      5.6808                 5.7866                 5.7834
 IR Inten    --     56.9481                31.4537                56.3924

                    100                    101                    102
                      A                      A                      A
 Frequencies --   3039.5312              3044.3924              3053.7926
 Red. masses --      1.0669                 1.0376                 1.0373
 Frc consts  --      5.8072                 5.6659                 5.6993
 IR Inten    --     73.6848                65.5371                20.3943

                    103                    104                    105
                      A                      A                      A
 Frequencies --   3063.7409              3072.6527              3122.9620
 Red. masses --      1.0923                 1.0982                 1.1006
 Frc consts  --      6.0408                 6.1090                 6.3243
 IR Inten    --     42.9976                28.5096                36.2749

                    106                    107                    108
                      A                      A                      A
 Frequencies --   3126.9268              3127.9579              3137.4432
 Red. masses --      1.0989                 1.0978                 1.1024
 Frc consts  --      6.3304                 6.3282                 6.3934
 IR Inten    --     24.7352                19.4948                31.0352

                    109                    110                    111
                      A                      A                      A
 Frequencies --   3166.0591              3187.3708              3199.6093
 Red. masses --      1.1062                 1.0854                 1.0901
 Frc consts  --      6.5330                 6.4967                 6.5753
 IR Inten    --     16.9789                 1.1469                17.2607

                    112                    113                    114
                      A                      A                      A
 Frequencies --   3210.7333              3215.8786              3219.9345
 Red. masses --      1.0945                 1.0890                 1.0953
 Frc consts  --      6.6479                 6.6354                 6.6906
 IR Inten    --     18.7270                 8.6197                 6.8993

                    115                    116                    117
                      A                      A                      A
 Frequencies --   3235.3948              3282.0617              3510.7391
 Red. masses --      1.0949                 1.0963                 1.0751
 Frc consts  --      6.7529                 6.9579                 7.8072
 IR Inten    --      7.5908                 0.6297               101.3883

 - Thermochemistry -
 -------------------
 Temperature   298.150 Kelvin.  Pressure   1.00000 Atm.
 Atom     1 has atomic number  6 and mass  12.00000

 Molecular mass:   291.12930 amu.
 Principal axes and moments of inertia in atomic units:
                           1         2         3
     Eigenvalues --  4448.320855571.192467078.89037
           X            0.99911  -0.04173  -0.00677
           Y            0.04159   0.99895  -0.01942
           Z            0.00757   0.01912   0.99979
 This molecule is an asymmetric top.
 Rotational symmetry number  1.
 Warning -- assumption of classical behavior for rotation
           may cause significant error
 Rotational temperatures (Kelvin)      0.01947     0.01555     0.01224
 Rotational constants (GHZ):           0.40571     0.32394     0.25495
 Zero-point vibrational energy     908572.3 (Joules/Mol)
                                  217.15399 (Kcal/Mol)
 Warning -- explicit consideration of  31 degrees of freedom as
           vibrations may cause significant error
 Vibrational temperatures:     36.52    48.17    64.15    85.38   108.95
          (Kelvin)            124.36   138.68   161.73   193.11   205.22
                              229.45   262.52   328.73   341.49   388.10
                              405.10   429.98   438.40   462.63   523.35
                              549.74   609.66   665.06   690.63   723.99
                              733.51   762.54   818.49   824.59   843.41
                              878.51   903.94   996.76  1029.84  1059.34
                             1068.44  1083.08  1111.32  1131.84  1171.93
                             1200.86  1215.69  1242.91  1256.59  1258.23
                             1297.39  1309.47  1335.56  1346.35  1390.74
                             1399.48  1498.99  1502.70  1521.55  1533.80
                             1559.64  1580.75  1606.02  1617.85  1629.52
                             1676.97  1706.54  1707.32  1711.10  1726.76
                             1744.25  1794.07  1797.86  1838.74  1847.53
                             1868.10  1886.40  1894.02  1914.43  1937.03
                             1980.86  2016.04  2023.40  2040.73  2057.22
                             2071.51  2135.75  2156.03  2167.65  2169.58
                             2176.20  2181.51  2188.12  2197.82  2212.43
                             2214.66  2229.45  2244.10  2299.84  2360.73
                             2385.67  4320.24  4337.09  4362.79  4373.21
                             4380.20  4393.73  4408.04  4420.86  4493.25
                             4498.95  4500.43  4514.08  4555.25  4585.92
                             4603.52  4619.53  4626.93  4632.77  4655.01
                             4722.15  5051.17

 Zero-point correction=                           0.346057 (Hartree/Particle)
 Thermal correction to Energy=                    0.365826
 Thermal correction to Enthalpy=                  0.366770
 Thermal correction to Gibbs Free Energy=         0.296784
 Sum of electronic and zero-point Energies=          -1225.427557
 Sum of electronic and thermal Energies=             -1225.407788
 Sum of electronic and thermal Enthalpies=           -1225.406844
 Sum of electronic and thermal Free Energies=        -1225.476829

                     E (Thermal)             CV                S
                      KCal/Mol        Cal/Mol-Kelvin    Cal/Mol-Kelvin
 Total                  229.559             75.531            147.297
 Electronic               0.000              0.000              0.000
 Translational            0.889              2.981             42.903
 Rotational               0.889              2.981             33.528
 Vibrational            227.782             69.570             70.866
 Vibration     1          0.593              1.985              6.161
 Vibration     2          0.594              1.983              5.612
 Vibration     3          0.595              1.980              5.044
 Vibration     4          0.597              1.974              4.479
 Vibration     5          0.599              1.965              3.999
 Vibration     6          0.601              1.959              3.739
 Vibration     7          0.603              1.952              3.526
 Vibration     8          0.607              1.939              3.227
 Vibration     9          0.613              1.919              2.885
 Vibration    10          0.616              1.911              2.768
 Vibration    11          0.621              1.892              2.556
 Vibration    12          0.630              1.864              2.303
 Vibration    13          0.651              1.798              1.891
 Vibration    14          0.656              1.783              1.823
 Vibration    15          0.674              1.729              1.598
 Vibration    16          0.681              1.708              1.524
 Vibration    17          0.692              1.676              1.423
 Vibration    18          0.696              1.665              1.391
 Vibration    19          0.707              1.632              1.302
 Vibration    20          0.737              1.547              1.106
 Vibration    21          0.752              1.508              1.031
 Vibration    22          0.786              1.419              0.879
 Vibration    23          0.820              1.334              0.760
 Vibration    24          0.836              1.294              0.710
 Vibration    25          0.859              1.243              0.650
 Vibration    26          0.865              1.228              0.634
 Vibration    27          0.885              1.184              0.587
 Vibration    28          0.925              1.099              0.506
 Vibration    29          0.929              1.089              0.498
 Vibration    30          0.943              1.061              0.474
 Vibration    31          0.970              1.009              0.432

 Optimization completed.
    -- Stationary point found.
 Normal termination of Gaussian 16 at Sat Dec 12 18:19:19 2020.

 ----------------------------------------------------------------------
 # B3LYP/6-311++G(d,p) empiricaldispersion=gd3bj scf=xqc pop=npa geom=c
 heck
 ----------------------------------------------------------------------

 ---------------------------------------
 CID_65540126_JID_10696_Energie_neutraal
 ---------------------------------------
 Structure from the checkpoint file:  "JID_10696.chk"
 Charge =  0 Multiplicity = 1

 SCF Done:  E(RB3LYP) =  -1226.02786505     A.U. after   16 cycles
 Normal termination of Gaussian 16 at Sat Dec 12 18:33:04 2020.

 ----------------------------------------------------------------------
 # B3LYP/6-311++G(d,p) empiricaldispersion=gd3bj scf=xqc pop=npa geom=c
 heck
 ----------------------------------------------------------------------

 -------------------------------------
 CID_65540126_JID_10696_Energie_kation
 -------------------------------------
 Structure from the checkpoint file:  "JID_10696.chk"
 Charge =  1 Multiplicity = 2

 SCF Done:  E(UB3LYP) =  -1225.75900630     A.U. after   29 cycles
 Normal termination of Gaussian 16 at Sat Dec 12 19:08:08 2020.
 Gaussian 16:  ES64L-G16RevA.03 25-Dec-2016

 ----------------------------------------------------------------------
 # B3LYP/6-311++G(d,p) empiricaldispersion=gd3bj scf=xqc pop=npa geom=c
 heck
 ----------------------------------------------------------------------

 ------------------------------------
 CID_65540126_JID_10696_Energie_anion
 ------------------------------------
 Structure from the checkpoint file:  "JID_10696.chk"
 Charge = -1 Multiplicity = 2

                         Standard orientation:
 ---------------------------------------------------------------------
 Center     Atomic      Atomic             Coordinates (Angstroms)
 Number     Number       Type             X           Y           Z
 ---------------------------------------------------------------------
      1          6           0        3.442363   -0.172529   -1.338184
      2          6           0        2.994068   -0.506701    0.086626
      3          6           0        2.630227    0.771014    0.908704
      4          6           0        1.502486    1.613427    0.379590
      5          6           0        1.426111    2.351870   -0.775845
      6          6           0        0.192855    3.055306   -0.928324
      7          6           0       -0.664038    2.859616    0.118824
      8         16           0        0.030137    1.804542    1.302418
      9          7           0        1.976951   -1.540259    0.003638
     10          6           0        1.589837   -2.248935    1.212876
     11          6           0        0.194655   -1.904048    1.723782
     12          8           0       -0.740825   -2.203463    0.667202
     13          6           0       -1.643231   -1.224281    0.334502
     14          6           0       -2.660218   -0.832923    1.204911
     15          6           0       -3.565630    0.159281    0.825823
     16          6           0       -3.462100    0.755503   -0.431234
     17          6           0       -2.450195    0.361459   -1.307675
     18          6           0       -1.536945   -0.619009   -0.929290
     19          8           0       -0.492105   -0.924808   -1.774718
     20          6           0       -0.549345   -2.232422   -2.359148
     21          1           0        2.590192    0.165137   -1.936917
     22          1           0        3.854450   -1.066983   -1.813631
     23          1           0        4.202503    0.617309   -1.347039
     24          1           0        3.852643   -0.946308    0.614812
     25          1           0        2.402603    0.462447    1.936235
     26          1           0        3.536066    1.389533    0.977074
     27          1           0        2.235553    2.406750   -1.493910
     28          1           0       -0.042268    3.679847   -1.783402
     29          1           0       -1.663536    3.245866    0.256014
     30          1           0        1.168725   -1.235199   -0.534566
     31          1           0        1.614830   -3.335131    1.034324
     32          1           0        2.314155   -2.048983    2.013627
     33          1           0       -0.059427   -2.512823    2.601647
     34          1           0        0.112591   -0.847142    1.988959
     35          1           0       -2.728424   -1.310398    2.177761
     36          1           0       -4.352383    0.460179    1.511459
     37          1           0       -4.165778    1.526501   -0.731288
     38          1           0       -2.329130    0.826234   -2.280559
     39          1           0       -0.546268   -3.007208   -1.587843
     40          1           0       -1.445338   -2.329687   -2.984929
     41          1           0        0.345440   -2.324396   -2.977478
 ---------------------------------------------------------------------

 SCF Done:  E(UB3LYP) =  -1226.01402126     A.U. after   33 cycles
 SCF Done:  E(UB3LYP) =  -1226.01402126     a.u. after    1 cycles

 The electronic state is 2-A.
 Alpha  occ. eigenvalues --  -88.77362 -19.05696 -19.05073 -14.18994 -10.13999
 Alpha  occ. eigenvalues --  -10.13796 -10.13038 -10.12926 -10.10747 -10.10397
 Alpha  occ. eigenvalues --  -10.10057 -10.09573 -10.08565 -10.08501 -10.08490
 Alpha  occ. eigenvalues --  -10.08360 -10.08243 -10.07821 -10.07337 -10.06253
 Alpha  occ. eigenvalues --   -7.86009  -5.82283  -5.81920  -5.81623  -0.97948
 Alpha  occ. eigenvalues --   -0.95827  -0.81109  -0.78167  -0.76367  -0.69559
 Alpha  occ. eigenvalues --   -0.66691  -0.66564  -0.64377  -0.63415  -0.61780
 Alpha  occ. eigenvalues --   -0.59799  -0.58316  -0.54096  -0.51482  -0.50289
 Alpha  occ. eigenvalues --   -0.49800  -0.46322  -0.44790  -0.43731  -0.42112
 Alpha  occ. eigenvalues --   -0.41009  -0.40416  -0.39077  -0.38222  -0.37696
 Alpha  occ. eigenvalues --   -0.37071  -0.36080  -0.34802  -0.34613  -0.33896
 Alpha  occ. eigenvalues --   -0.33503  -0.32143  -0.30706  -0.29900  -0.29527
 Alpha  occ. eigenvalues --   -0.29336  -0.28894  -0.28409  -0.27915  -0.27187
 Alpha  occ. eigenvalues --   -0.26311  -0.26039  -0.25384  -0.24781  -0.23874
 Alpha  occ. eigenvalues --   -0.23253  -0.20699  -0.19400  -0.16400  -0.15657
 Alpha  occ. eigenvalues --   -0.14268  -0.13669  -0.11655   0.04104
 Alpha virt. eigenvalues --    0.05607   0.06274   0.06624   0.07348   0.07528
 Alpha virt. eigenvalues --    0.07693   0.07735   0.08255   0.08664   0.09195
 Alpha virt. eigenvalues --    0.09528   0.09640   0.09942   0.10528   0.11029

  Beta  occ. eigenvalues --  -88.77358 -19.05693 -19.05071 -14.18994 -10.13989
  Beta  occ. eigenvalues --  -10.13798 -10.13031 -10.12910 -10.10737 -10.10367
  Beta  occ. eigenvalues --  -10.10041 -10.09540 -10.08553 -10.08491 -10.08481
  Beta  occ. eigenvalues --  -10.08342 -10.08229 -10.07821 -10.07324 -10.06239
  Beta  occ. eigenvalues --   -7.86004  -5.82280  -5.81918  -5.81610  -0.97939
  Beta  occ. eigenvalues --   -0.95818  -0.81096  -0.78130  -0.76345  -0.69525
  Beta  occ. eigenvalues --   -0.66666  -0.66533  -0.64342  -0.63383  -0.61750
  Beta  occ. eigenvalues --   -0.59778  -0.58274  -0.54059  -0.51454  -0.50256
  Beta  occ. eigenvalues --   -0.49761  -0.46282  -0.44765  -0.43684  -0.42089
  Beta  occ. eigenvalues --   -0.40985  -0.40380  -0.39050  -0.38200  -0.37660
  Beta  occ. eigenvalues --   -0.37043  -0.36049  -0.34779  -0.34593  -0.33864
  Beta  occ. eigenvalues --   -0.33474  -0.32110  -0.30677  -0.29868  -0.29495
  Beta  occ. eigenvalues --   -0.29301  -0.28846  -0.28383  -0.27890  -0.27154
  Beta  occ. eigenvalues --   -0.26273  -0.26018  -0.25352  -0.24757  -0.23845
  Beta  occ. eigenvalues --   -0.23227  -0.20683  -0.19383  -0.16368  -0.15611
  Beta  occ. eigenvalues --   -0.14227  -0.13553  -0.11619
  Beta virt. eigenvalues --    0.06059   0.06538   0.06907   0.06943   0.07465
  Beta virt. eigenvalues --    0.07809   0.08051   0.08237   0.08495   0.08917
  Beta virt. eigenvalues --    0.09370   0.09748   0.10156   0.10381   0.10718

 Mulliken charges and spin densities:
               1          2
     1  C   -0.281193  -0.419326
     2  C    0.027153   0.215612
     3  C    0.826484  -1.677313
     4  C   -0.971622   1.040972
     5  C   -0.575363   0.373523
     6  C    0.016244  -0.603602
     7  C   -0.479212   0.286386
     8  S    1.184560  -0.585759
     9  N   -0.067233   0.026627
    10  C    0.187867  -0.780620
    11  C    0.049463  -0.063510
    12  O   -0.113372   0.003824
    13  C   -0.080283   0.102566
    14  C    0.186678  -0.359686
    15  C    0.856134  -1.178150
    16  C    0.270990  -0.703803
    17  C   -0.800988   0.711909
    18  C   -0.186212   0.169112
    19  O    0.023149  -0.013952
    20  C    0.029276  -0.211536
    21  H    0.165491  -0.026285
    22  H    0.056912   0.103286
    23  H   -0.147614   0.286907
    24  H   -0.251164   0.420299
    25  H   -0.145079   0.295474
    26  H   -0.131106   0.339629
    27  H    0.042549   0.112730
    28  H   -0.162954   0.315466
    29  H   -0.028080   0.303756
    30  H    0.792352  -0.635725
    31  H    0.075513   0.099494
    32  H   -0.203336   0.380519
    33  H   -0.479692   0.669835
    34  H    0.298005  -0.182751
    35  H   -0.247334   0.439179
    36  H   -0.412931   0.587171
    37  H   -0.572029   0.755957
    38  H    0.061512   0.113997
    39  H    0.183299   0.011261
    40  H   -0.067759   0.186736
    41  H    0.070922   0.089792
 Sum of Mulliken charges =  -1.00000   1.00000

 Dipole moment (field-independent basis, Debye):
    X=              0.8379    Y=             -1.0484    Z=             -3.0835  Tot=              3.3629
 Quadrupole moment (field-independent basis, Debye-Ang):
   XX=           -209.2153   YY=           -177.9910   ZZ=           -169.2498
   XY=              6.1285   XZ=             -0.8492   YZ=              6.9381

 Summary of Natural Population Analysis:

                                       Natural Population
                Natural  -----------------------------------------------
    Atom  No    Charge         Core      Valence    Rydberg      Total
 -----------------------------------------------------------------------
      C    1   -0.28909      0.99964     2.28270    0.00675     3.28909
      C    2    0.00155      0.99960     1.98535    0.01350     2.99845
      C    3   -0.21522      0.99956     2.20378    0.01188     3.21522
      C    4   -0.09465      0.99949     2.08124    0.01392     3.09465
      C    5   -0.13186      0.99945     2.12267    0.00974     3.13186
      C    6   -0.12761      0.99953     2.11805    0.01003     3.12761
      C    7   -0.19249      0.99954     2.18113    0.01182     3.19249
      S    8    0.21045      4.99939     2.77040    0.01976     7.78955
      N    9   -0.36156      0.99972     2.84902    0.01281     3.86156
      C   10   -0.09315      0.99961     2.08148    0.01206     3.09315
      C   11   -0.01697      0.99955     2.00569    0.01173     3.01697
      O   12   -0.29924      0.99986     3.28916    0.01022     4.29924
      C   13    0.13983      0.99932     1.84626    0.01459     2.86017
      C   14   -0.11882      0.99951     2.10955    0.00976     3.11882
      C   15   -0.10233      0.99956     2.09233    0.01043     3.10233
      C   16   -0.10537      0.99956     2.09492    0.01088     3.10537
      C   17   -0.10866      0.99951     2.09806    0.01109     3.10866
      C   18    0.13213      0.99931     1.85365    0.01491     2.86787
      O   19   -0.29050      0.99986     3.28075    0.00989     4.29050
      C   20   -0.09871      0.99959     2.09169    0.00743     3.09871
      H   21    0.10158      0.00000     0.39704    0.00138     0.39842
      H   22    0.10223      0.00000     0.39680    0.00097     0.39777
      H   23    0.09657      0.00000     0.40254    0.00089     0.40343
      H   24    0.08982      0.00000     0.40820    0.00198     0.41018
      H   25    0.10379      0.00000     0.39482    0.00139     0.39621
      H   26    0.10829      0.00000     0.39021    0.00150     0.39171
      H   27    0.10648      0.00000     0.39250    0.00102     0.39352
      H   28    0.10443      0.00000     0.39464    0.00093     0.39557
      H   29    0.11239      0.00000     0.38638    0.00123     0.38761
      H   30    0.18833      0.00000     0.30603    0.00564     0.31167
      H   31    0.08946      0.00000     0.40927    0.00127     0.41054
      H   32    0.09649      0.00000     0.40206    0.00145     0.40351
      H   33    0.08573      0.00000     0.41258    0.00169     0.41427
      H   34    0.08975      0.00000     0.40792    0.00233     0.41025
      H   35    0.10679      0.00000     0.39199    0.00122     0.39321
      H   36    0.10348      0.00000     0.39507    0.00145     0.39652
      H   37    0.10367      0.00000     0.39461    0.00173     0.39633
      H   38    0.10748      0.00000     0.39122    0.00129     0.39252
      H   39    0.09362      0.00000     0.40514    0.00124     0.40638
      H   40    0.08091      0.00000     0.41799    0.00110     0.41909
      H   41    0.09100      0.00000     0.40820    0.00081     0.40900
 =======================================================================
   * Total *    0.00000     23.99117    53.74310    0.26573    78.00000

 Normal termination of Gaussian 16 at Sat Dec 12 19:48:33 2020.
