 Gaussian 16, Revision A.03,

 -----------------------------------------------------------
 # opt freq B3LYP/6-31G(d) empiricaldispersion=gd3bj scf=xqc
 -----------------------------------------------------------

 -----------------------------
 CID_74888701_JID_818_neutraal
 -----------------------------
 Symbolic Z-matrix:
 Charge =  0 Multiplicity = 1

 SCF Done:  E(RB3LYP) =  -440.248512385     A.U. after   14 cycles
 SCF Done:  E(RB3LYP) =  -440.251391298     A.U. after   13 cycles
 SCF Done:  E(RB3LYP) =  -440.252154057     A.U. after   12 cycles
 SCF Done:  E(RB3LYP) =  -440.252625112     A.U. after   12 cycles
 SCF Done:  E(RB3LYP) =  -440.252849811     A.U. after   12 cycles
 SCF Done:  E(RB3LYP) =  -440.253029777     A.U. after   12 cycles
 SCF Done:  E(RB3LYP) =  -440.253121403     A.U. after   11 cycles
 SCF Done:  E(RB3LYP) =  -440.253130792     A.U. after   10 cycles
 SCF Done:  E(RB3LYP) =  -440.253131883     A.U. after    8 cycles
 SCF Done:  E(RB3LYP) =  -440.253132180     A.U. after    8 cycles
 SCF Done:  E(RB3LYP) =  -440.253380817     A.U. after   11 cycles
 SCF Done:  E(RB3LYP) =  -440.253080981     A.U. after   12 cycles
 SCF Done:  E(RB3LYP) =  -440.253473941     A.U. after   11 cycles
 SCF Done:  E(RB3LYP) =  -440.253482816     A.U. after   11 cycles
 SCF Done:  E(RB3LYP) =  -440.253489324     A.U. after   10 cycles
 SCF Done:  E(RB3LYP) =  -440.253489984     A.U. after    9 cycles
 Optimization completed.
    -- Stationary point found.
 Normal termination of Gaussian 16 at Tue Dec  8 12:51:10 2020.

 --------------------------------------------------------------------
 #N Geom=AllCheck Guess=TCheck SCRF=Check GenChk RB3LYP/6-31G(d) Freq
 --------------------------------------------------------------------

 Structure from the checkpoint file:  "JID_818.chk"
 -----------------------------
 CID_74888701_JID_818_neutraal
 -----------------------------
 Charge =  0 Multiplicity = 1

 SCF Done:  E(RB3LYP) =  -440.253489984     A.U. after    1 cycles

  Exact polarizability: 136.977   3.288  97.377  -3.668   4.015  44.492
 Approx polarizability: 210.554   2.523 165.840  -7.203   8.391  67.787

                      1                      2                      3
                      A                      A                      A
 Frequencies --     63.6643               106.2103               134.1405
 Red. masses --      1.0506                 2.7203                 4.2090
 Frc consts  --      0.0025                 0.0181                 0.0446
 IR Inten    --      0.4814                 1.2751                 0.5224

                      4                      5                      6
                      A                      A                      A
 Frequencies --    194.5946               217.2439               314.3266
 Red. masses --      2.4217                 3.0115                 3.2904
 Frc consts  --      0.0540                 0.0837                 0.1915
 IR Inten    --      2.6635                 0.0874                 4.0827

                      7                      8                      9
                      A                      A                      A
 Frequencies --    351.3971               396.3806               428.7503
 Red. masses --      3.6786                 3.9176                 3.8602
 Frc consts  --      0.2676                 0.3627                 0.4181
 IR Inten    --      5.7124                 1.7589                12.5907

                     10                     11                     12
                      A                      A                      A
 Frequencies --    452.8352               496.6579               516.0794
 Red. masses --      2.9945                 1.7483                 2.6833
 Frc consts  --      0.3618                 0.2541                 0.4211
 IR Inten    --      0.6867                38.0015                21.0095

                     13                     14                     15
                      A                      A                      A
 Frequencies --    575.9811               631.7079               701.0906
 Red. masses --      2.5623                 3.6211                 2.3372
 Frc consts  --      0.5008                 0.8514                 0.6768
 IR Inten    --     32.4065                 4.7049                 6.7988

                     16                     17                     18
                      A                      A                      A
 Frequencies --    756.4602               775.6422               801.9706
 Red. masses --      4.6649                 3.6607                 4.1534
 Frc consts  --      1.5728                 1.2976                 1.5739
 IR Inten    --      3.0941                 4.0521                 9.2341

                     19                     20                     21
                      A                      A                      A
 Frequencies --    893.9533               933.2711               943.4988
 Red. masses --      1.3726                 1.3984                 3.7736
 Frc consts  --      0.6463                 0.7176                 1.9792
 IR Inten    --     15.6700                 2.0904                 5.9285

                     22                     23                     24
                      A                      A                      A
 Frequencies --    950.2892              1032.7427              1043.7869
 Red. masses --      1.3885                 1.4949                 1.1234
 Frc consts  --      0.7388                 0.9394                 0.7211
 IR Inten    --     20.6486                 3.2427                10.8427

                     25                     26                     27
                      A                      A                      A
 Frequencies --   1058.5440              1075.4202              1186.4363
 Red. masses --      1.5643                 1.5373                 1.8985
 Frc consts  --      1.0327                 1.0475                 1.5745
 IR Inten    --      1.8484                 5.6106                52.4343

                     28                     29                     30
                      A                      A                      A
 Frequencies --   1212.1412              1276.1948              1303.5255
 Red. masses --      1.8078                 3.7417                 1.9752
 Frc consts  --      1.5650                 3.5905                 1.9774
 IR Inten    --     61.6353                63.8657                54.4622

                     31                     32                     33
                      A                      A                      A
 Frequencies --   1341.6003              1349.3636              1352.2465
 Red. masses --      1.4991                 3.3984                 1.7221
 Frc consts  --      1.5897                 3.6457                 1.8553
 IR Inten    --     50.1583                 0.4619                16.6827

                     34                     35                     36
                      A                      A                      A
 Frequencies --   1430.7300              1441.2252              1487.4844
 Red. masses --      2.3228                 1.2820                 1.3945
 Frc consts  --      2.8014                 1.5689                 1.8179
 IR Inten    --      7.6729                 0.4040                 5.3469

                     37                     38                     39
                      A                      A                      A
 Frequencies --   1506.8482              1525.3047              1535.6931
 Red. masses --      1.0455                 1.2302                 2.5674
 Frc consts  --      1.3986                 1.6863                 3.5674
 IR Inten    --      5.0262                19.6023                78.5579

                     40                     41                     42
                      A                      A                      A
 Frequencies --   1610.1267              1664.9505              1702.1033
 Red. masses --      7.1253                 5.4104                 4.2973
 Frc consts  --     10.8837                 8.8366                 7.3353
 IR Inten    --     10.9971                21.3977                14.3050

                     43                     44                     45
                      A                      A                      A
 Frequencies --   3054.4272              3113.1915              3134.0563
 Red. masses --      1.0360                 1.1010                 1.1029
 Frc consts  --      5.6945                 6.2868                 6.3829
 IR Inten    --     25.9272                15.4102                16.8709

                     46                     47                     48
                      A                      A                      A
 Frequencies --   3156.0370              3171.0835              3180.8720
 Red. masses --      1.0849                 1.0640                 1.0904
 Frc consts  --      6.3669                 6.3039                 6.5004
 IR Inten    --     11.1748                 2.3284                26.8144

                     49                     50                     51
                      A                      A                      A
 Frequencies --   3187.7240              3251.7257              3685.1967
 Red. masses --      1.0909                 1.1163                 1.0652
 Frc consts  --      6.5310                 6.9545                 8.5235
 IR Inten    --      8.0855                10.3049                51.4091

 - Thermochemistry -
 -------------------
 Temperature   298.150 Kelvin.  Pressure   1.00000 Atm.
 Atom     1 has atomic number  6 and mass  12.00000

 Molecular mass:   135.06841 amu.
 Principal axes and moments of inertia in atomic units:
                           1         2         3
     Eigenvalues --   699.517461795.232842451.59214
           X            0.99997  -0.00701  -0.00178
           Y            0.00701   0.99996   0.00511
           Z            0.00175  -0.00512   0.99999
 This molecule is an asymmetric top.
 Rotational symmetry number  1.
 Warning -- assumption of classical behavior for rotation
           may cause significant error
 Rotational temperatures (Kelvin)      0.12382     0.04825     0.03533
 Rotational constants (GHZ):           2.57998     1.00530     0.73615
 Zero-point vibrational energy     404977.4 (Joules/Mol)
                                   96.79191 (Kcal/Mol)
 Warning -- explicit consideration of  13 degrees of freedom as
           vibrations may cause significant error
 Vibrational temperatures:     91.60   152.81   193.00   279.98   312.57
          (Kelvin)            452.25   505.58   570.30   616.88   651.53
                              714.58   742.52   828.71   908.89  1008.71
                             1088.38  1115.98  1153.86  1286.20  1342.77
                             1357.48  1367.25  1485.89  1501.78  1523.01
                             1547.29  1707.02  1744.00  1836.16  1875.48
                             1930.26  1941.43  1945.58  2058.50  2073.60
                             2140.16  2168.02  2194.57  2209.52  2316.61
                             2395.49  2448.95  4394.64  4479.19  4509.21
                             4540.83  4562.48  4576.57  4586.42  4678.51
                             5302.18

 Zero-point correction=                           0.154248 (Hartree/Particle)
 Thermal correction to Energy=                    0.163565
 Thermal correction to Enthalpy=                  0.164509
 Thermal correction to Gibbs Free Energy=         0.119732
 Sum of electronic and zero-point Energies=           -440.099242
 Sum of electronic and thermal Energies=              -440.089925
 Sum of electronic and thermal Enthalpies=            -440.088981
 Sum of electronic and thermal Free Energies=         -440.133758

                     E (Thermal)             CV                S
                      KCal/Mol        Cal/Mol-Kelvin    Cal/Mol-Kelvin
 Total                  102.638             35.165             94.241
 Electronic               0.000              0.000              0.000
 Translational            0.889              2.981             40.614
 Rotational               0.889              2.981             29.511
 Vibrational            100.861             29.203             24.116
 Vibration     1          0.597              1.972              4.340
 Vibration     2          0.605              1.944              3.337
 Vibration     3          0.613              1.919              2.886
 Vibration     4          0.635              1.847              2.184
 Vibration     5          0.646              1.815              1.982
 Vibration     6          0.702              1.646              1.339
 Vibration     7          0.728              1.572              1.160
 Vibration     8          0.763              1.478              0.976
 Vibration     9          0.790              1.408              0.863
 Vibration    10          0.811              1.355              0.787
 Vibration    11          0.852              1.257              0.667
 Vibration    12          0.871              1.214              0.619
 Vibration    13          0.932              1.083              0.493

 Optimization completed.
    -- Stationary point found.
 Normal termination of Gaussian 16 at Tue Dec  8 13:05:41 2020.

 ----------------------------------------------------------------------
 # B3LYP/6-311++G(d,p) empiricaldispersion=gd3bj scf=xqc pop=npa geom=c
 heck
 ----------------------------------------------------------------------

 -------------------------------------
 CID_74888701_JID_818_Energie_neutraal
 -------------------------------------
 Structure from the checkpoint file:  "JID_818.chk"
 Charge =  0 Multiplicity = 1

 SCF Done:  E(RB3LYP) =  -440.379911089     A.U. after   15 cycles
 Normal termination of Gaussian 16 at Tue Dec  8 13:08:24 2020.

 ----------------------------------------------------------------------
 # B3LYP/6-311++G(d,p) empiricaldispersion=gd3bj scf=xqc pop=npa geom=c
 heck
 ----------------------------------------------------------------------

 -----------------------------------
 CID_74888701_JID_818_Energie_kation
 -----------------------------------
 Structure from the checkpoint file:  "JID_818.chk"
 Charge =  1 Multiplicity = 2

 SCF Done:  E(UB3LYP) =  -440.072956876     A.U. after   23 cycles
 Normal termination of Gaussian 16 at Tue Dec  8 13:17:20 2020.
 Gaussian 16:  ES64L-G16RevA.03 25-Dec-2016

 ----------------------------------------------------------------------
 # B3LYP/6-311++G(d,p) empiricaldispersion=gd3bj scf=xqc pop=npa geom=c
 heck
 ----------------------------------------------------------------------

 ----------------------------------
 CID_74888701_JID_818_Energie_anion
 ----------------------------------
 Structure from the checkpoint file:  "JID_818.chk"
 Charge = -1 Multiplicity = 2

                         Standard orientation:
 ---------------------------------------------------------------------
 Center     Atomic      Atomic             Coordinates (Angstroms)
 Number     Number       Type             X           Y           Z
 ---------------------------------------------------------------------
      1          6           0        3.202896   -0.882932    0.069087
      2          6           0        1.824332   -0.275861    0.022196
      3          6           0        0.676726   -1.057759   -0.091583
      4          6           0       -0.598306   -0.471322   -0.106776
      5          6           0       -0.646793    0.933184   -0.057893
      6          6           0        0.556354    1.642278    0.042732
      7          7           0        1.754520    1.067219    0.095098
      8          8           0       -1.800073    1.658026   -0.122201
      9          6           0       -1.796499   -1.319070   -0.203434
     10          6           0       -2.997693   -1.078497    0.344549
     11          1           0        3.168442   -1.971228   -0.038658
     12          1           0        3.830072   -0.472216   -0.729715
     13          1           0        3.695878   -0.644529    1.018450
     14          1           0        0.760896   -2.139832   -0.149370
     15          1           0        0.517222    2.729183    0.079868
     16          1           0       -2.513770    1.068972   -0.422688
     17          1           0       -1.659994   -2.244752   -0.762136
     18          1           0       -3.816234   -1.780535    0.220276
     19          1           0       -3.189664   -0.219929    0.982626
 ---------------------------------------------------------------------

 SCF Done:  E(UB3LYP) =  -440.382503809     A.U. after   29 cycles

 The electronic state is 2-A.
 Alpha  occ. eigenvalues --  -19.00200 -14.13057 -10.07237 -10.04826 -10.03579
 Alpha  occ. eigenvalues --  -10.03355 -10.01929 -10.01597 -10.01275 -10.00156
 Alpha  occ. eigenvalues --   -0.91390  -0.77731  -0.66019  -0.62752  -0.59570
 Alpha  occ. eigenvalues --   -0.55226  -0.48246  -0.46216  -0.42991  -0.36659
 Alpha  occ. eigenvalues --   -0.35148  -0.33231  -0.29896  -0.29108  -0.28370
 Alpha  occ. eigenvalues --   -0.27273  -0.26370  -0.24823  -0.24282  -0.21190
 Alpha  occ. eigenvalues --   -0.20787  -0.19114  -0.16069  -0.10387  -0.09873
 Alpha  occ. eigenvalues --   -0.07460   0.05727
 Alpha virt. eigenvalues --    0.09056   0.09782   0.10928   0.11778   0.12408
 Alpha virt. eigenvalues --    0.12523   0.13514   0.14036   0.14280   0.15241
 Alpha virt. eigenvalues --    0.16441   0.17440   0.17990   0.19304   0.19600

  Beta  occ. eigenvalues --  -19.00164 -14.12623 -10.07179 -10.04887 -10.03578
  Beta  occ. eigenvalues --  -10.03287 -10.01727 -10.01438 -10.01130  -9.99816
  Beta  occ. eigenvalues --   -0.91296  -0.77181  -0.65397  -0.62604  -0.59007
  Beta  occ. eigenvalues --   -0.54992  -0.47588  -0.46034  -0.42618  -0.36332
  Beta  occ. eigenvalues --   -0.34985  -0.33038  -0.29622  -0.28968  -0.28196
  Beta  occ. eigenvalues --   -0.27105  -0.26018  -0.24603  -0.24112  -0.20996
  Beta  occ. eigenvalues --   -0.20165  -0.18599  -0.14295  -0.09385  -0.08784
  Beta  occ. eigenvalues --   -0.06445
  Beta virt. eigenvalues --    0.08947   0.09721   0.10963   0.11448   0.11781
  Beta virt. eigenvalues --    0.12378   0.12558   0.13516   0.14201   0.14759
  Beta virt. eigenvalues --    0.15337   0.16940   0.17534   0.18266   0.19327

 Mulliken charges and spin densities:
               1          2
     1  C   -0.654874  -0.011792
     2  C   -0.362187  -0.047072
     3  C   -0.161979   0.294795
     4  C    1.428118   0.163677
     5  C   -1.720688  -0.080034
     6  C    0.394204  -0.082578
     7  N   -0.093676   0.204650
     8  O   -0.299973   0.034386
     9  C    0.371315  -0.067508
    10  C   -0.741398   0.294873
    11  H    0.104091   0.012113
    12  H    0.130709  -0.006360
    13  H    0.108296   0.014909
    14  H    0.080293   0.009587
    15  H    0.148725  -0.002939
    16  H    0.170740   0.082316
    17  H    0.018299   0.097658
    18  H   -0.032621   0.105381
    19  H    0.112607  -0.016060
 Sum of Mulliken charges =  -1.00000   1.00000

 Dipole moment (field-independent basis, Debye):
    X=              2.0095    Y=             -1.1559    Z=             -0.1408  Tot=              2.3225
 Quadrupole moment (field-independent basis, Debye-Ang):
   XX=            -95.1642   YY=            -77.0741   ZZ=            -69.1013
   XY=             -6.8258   XZ=             -0.8850   YZ=              0.3554

 Summary of Natural Population Analysis:

                                       Natural Population
                Natural  -----------------------------------------------
    Atom  No    Charge         Core      Valence    Rydberg      Total
 -----------------------------------------------------------------------
      C    1   -0.29055      0.99964     2.28581    0.00510     3.29055
      C    2    0.06660      0.99955     1.91990    0.01395     2.93340
      C    3   -0.08512      0.99948     2.07764    0.00800     3.08512
      C    4   -0.02424      0.99947     2.01433    0.01044     3.02424
      C    5    0.15117      0.99934     1.83553    0.01396     2.84883
      C    6    0.01013      0.99957     1.97715    0.01316     2.98987
      N    7   -0.19433      0.99967     2.67893    0.01573     3.69433
      O    8   -0.35458      0.99988     3.34777    0.00693     4.35458
      C    9   -0.08106      0.99956     2.06868    0.01282     3.08106
      C   10   -0.15221      0.99959     2.14316    0.00946     3.15221
      H   11    0.09171      0.00000     0.40755    0.00074     0.40829
      H   12    0.09755      0.00000     0.40129    0.00117     0.40245
      H   13    0.09729      0.00000     0.40152    0.00118     0.40271
      H   14    0.09006      0.00000     0.40881    0.00113     0.40994
      H   15    0.08032      0.00000     0.41793    0.00175     0.41968
      H   16    0.24125      0.00000     0.25514    0.00361     0.25875
      H   17    0.08708      0.00000     0.41132    0.00161     0.41292
      H   18    0.08467      0.00000     0.41432    0.00101     0.41533
      H   19    0.08427      0.00000     0.41456    0.00116     0.41573
 =======================================================================
   * Total *    0.00000      9.99574    25.88134    0.12292    36.00000

 Normal termination of Gaussian 16 at Tue Dec  8 13:26:53 2020.
