 Gaussian 16, Revision A.03,

 -----------------------------------------------------------
 # opt freq B3LYP/6-31G(d) empiricaldispersion=gd3bj scf=xqc
 -----------------------------------------------------------

 ------------------------------
 CID_84689131_JID_7268_neutraal
 ------------------------------
 Symbolic Z-matrix:
 Charge =  0 Multiplicity = 1

 SCF Done:  E(RB3LYP) =  -725.459539483     A.U. after   15 cycles
 SCF Done:  E(RB3LYP) =  -725.464419668     A.U. after   13 cycles
 SCF Done:  E(RB3LYP) =  -725.465382883     A.U. after   12 cycles
 SCF Done:  E(RB3LYP) =  -725.465549225     A.U. after   11 cycles
 SCF Done:  E(RB3LYP) =  -725.465631962     A.U. after   11 cycles
 SCF Done:  E(RB3LYP) =  -725.465676992     A.U. after   11 cycles
 SCF Done:  E(RB3LYP) =  -725.465753635     A.U. after   12 cycles
 SCF Done:  E(RB3LYP) =  -725.465795534     A.U. after   12 cycles
 SCF Done:  E(RB3LYP) =  -725.465814440     A.U. after    9 cycles
 SCF Done:  E(RB3LYP) =  -725.465868633     A.U. after   11 cycles
 SCF Done:  E(RB3LYP) =  -725.465896118     A.U. after   10 cycles
 SCF Done:  E(RB3LYP) =  -725.465896142     A.U. after   11 cycles
 SCF Done:  E(RB3LYP) =  -725.465896941     A.U. after   10 cycles
 SCF Done:  E(RB3LYP) =  -725.465896965     A.U. after    9 cycles
 SCF Done:  E(RB3LYP) =  -725.465897006     A.U. after    7 cycles
 Optimization completed.
    -- Stationary point found.
 Normal termination of Gaussian 16 at Sun Dec 13 20:12:21 2020.

 --------------------------------------------------------------------
 #N Geom=AllCheck Guess=TCheck SCRF=Check GenChk RB3LYP/6-31G(d) Freq
 --------------------------------------------------------------------

 Structure from the checkpoint file:  "JID_7268.chk"
 ------------------------------
 CID_84689131_JID_7268_neutraal
 ------------------------------
 Charge =  0 Multiplicity = 1

 SCF Done:  E(RB3LYP) =  -725.465897006     A.U. after    1 cycles

  Exact polarizability: 190.648  -9.342 147.361  42.497   8.338 115.405
 Approx polarizability: 280.995 -28.452 267.743  86.556  16.229 206.524

                      1                      2                      3
                      A                      A                      A
 Frequencies --     12.8206                28.4072                32.3555
 Red. masses --      4.7547                 3.7824                 5.6287
 Frc consts  --      0.0005                 0.0018                 0.0035
 IR Inten    --      0.0123                 0.0297                 0.0518

                      4                      5                      6
                      A                      A                      A
 Frequencies --     96.3825               115.4874               187.9965
 Red. masses --      5.0164                 4.9850                 5.3179
 Frc consts  --      0.0275                 0.0392                 0.1107
 IR Inten    --      0.3747                 0.9332                 0.0805

                      7                      8                      9
                      A                      A                      A
 Frequencies --    226.3607               304.3169               337.4240
 Red. masses --      4.4309                 5.0216                 3.3308
 Frc consts  --      0.1338                 0.2740                 0.2234
 IR Inten    --      3.8191                 1.3651                 0.6252

                     10                     11                     12
                      A                      A                      A
 Frequencies --    367.0567               406.5485               415.1443
 Red. masses --      3.3021                 4.6771                 2.9734
 Frc consts  --      0.2621                 0.4555                 0.3019
 IR Inten    --      4.2268                 2.1134                 0.0048

                     13                     14                     15
                      A                      A                      A
 Frequencies --    430.7377               474.2552               496.2869
 Red. masses --      3.5489                 4.2103                 5.5789
 Frc consts  --      0.3879                 0.5579                 0.8096
 IR Inten    --      7.5754                 7.1013                 3.6136

                     16                     17                     18
                      A                      A                      A
 Frequencies --    504.9889               604.0554               637.2588
 Red. masses --      4.2828                 4.4917                 6.3187
 Frc consts  --      0.6435                 0.9656                 1.5119
 IR Inten    --      2.6970                11.3699                 0.0552

                     19                     20                     21
                      A                      A                      A
 Frequencies --    642.9289               646.6045               682.1008
 Red. masses --      5.5068                 4.9479                 2.9965
 Frc consts  --      1.3411                 1.2188                 0.8214
 IR Inten    --      2.3614                 5.4106                 8.5354

                     22                     23                     24
                      A                      A                      A
 Frequencies --    713.7947               732.1792               756.1501
 Red. masses --      1.7480                 2.5704                 1.5804
 Frc consts  --      0.5247                 0.8119                 0.5324
 IR Inten    --     31.9438                16.7818                27.3273

                     25                     26                     27
                      A                      A                      A
 Frequencies --    767.3904               784.7749               808.2013
 Red. masses --      2.3867                 4.2599                 2.3044
 Frc consts  --      0.8281                 1.5457                 0.8868
 IR Inten    --     11.7653                19.1159                 6.2793

                     28                     29                     30
                      A                      A                      A
 Frequencies --    813.5437               837.2154               860.1165
 Red. masses --      2.5834                 3.1792                 1.2501
 Frc consts  --      1.0074                 1.3129                 0.5449
 IR Inten    --      8.0225                 8.2846                 0.1090

                     31                     32                     33
                      A                      A                      A
 Frequencies --    876.8885               902.2623               927.4341
 Red. masses --      1.5739                 1.3058                 1.5042
 Frc consts  --      0.7131                 0.6263                 0.7623
 IR Inten    --     20.6637                 3.5703                16.4509

                     34                     35                     36
                      A                      A                      A
 Frequencies --    933.8485               937.2155               965.7550
 Red. masses --      4.6092                 1.2527                 2.8185
 Frc consts  --      2.3683                 0.6483                 1.5488
 IR Inten    --      7.0538                 0.2309                13.6278

                     37                     38                     39
                      A                      A                      A
 Frequencies --    967.6295               998.0151              1009.6064
 Red. masses --      1.5383                 1.2727                 2.8847
 Frc consts  --      0.8486                 0.7469                 1.7324
 IR Inten    --      2.3214                 3.1346                74.7343

                     40                     41                     42
                      A                      A                      A
 Frequencies --   1018.5555              1024.3835              1060.2245
 Red. masses --      2.2366                 5.9422                 2.2076
 Frc consts  --      1.3671                 3.6739                 1.4621
 IR Inten    --     46.1378                 4.8329                 0.4480

                     43                     44                     45
                      A                      A                      A
 Frequencies --   1079.8888              1123.5050              1140.1624
 Red. masses --      1.3791                 1.5050                 1.4666
 Frc consts  --      0.9476                 1.1193                 1.1233
 IR Inten    --      1.8763                 2.4342                 3.1285

                     46                     47                     48
                      A                      A                      A
 Frequencies --   1187.9811              1195.0185              1213.6431
 Red. masses --      1.9481                 1.1012                 1.4530
 Frc consts  --      1.6199                 0.9265                 1.2609
 IR Inten    --    140.9581                 0.0755                33.9426

                     49                     50                     51
                      A                      A                      A
 Frequencies --   1216.0881              1241.4670              1263.6379
 Red. masses --      1.4681                 3.0602                 2.4025
 Frc consts  --      1.2792                 2.7789                 2.2603
 IR Inten    --     32.6483                14.7603                21.5409

                     52                     53                     54
                      A                      A                      A
 Frequencies --   1278.8153              1285.9818              1317.2024
 Red. masses --      2.0290                 1.3724                 3.7264
 Frc consts  --      1.9550                 1.3372                 3.8092
 IR Inten    --     11.1211                13.6826                27.5758

                     55                     56                     57
                      A                      A                      A
 Frequencies --   1367.1223              1370.7535              1373.4285
 Red. masses --      4.8736                 1.2998                 3.1466
 Frc consts  --      5.3668                 1.4390                 3.4971
 IR Inten    --      0.8943                 1.2779                30.7574

                     58                     59                     60
                      A                      A                      A
 Frequencies --   1385.7039              1414.0364              1486.8838
 Red. masses --      3.1747                 1.3811                 3.5244
 Frc consts  --      3.5917                 1.6270                 4.5908
 IR Inten    --     42.8660                16.8063                54.2698

                     61                     62                     63
                      A                      A                      A
 Frequencies --   1505.0690              1519.1608              1531.3617
 Red. masses --      2.1935                 1.5253                 1.9105
 Frc consts  --      2.9275                 2.0740                 2.6397
 IR Inten    --      6.4826                 3.1817                19.2721

                     64                     65                     66
                      A                      A                      A
 Frequencies --   1549.1830              1572.0876              1578.1921
 Red. masses --      2.2125                 5.4890                 7.4350
 Frc consts  --      3.1285                 7.9928                10.9107
 IR Inten    --      2.5890                10.3418                34.7222

                     67                     68                     69
                      A                      A                      A
 Frequencies --   1649.8451              1669.0652              1700.6312
 Red. masses --      5.5797                 5.5943                 6.6373
 Frc consts  --      8.9484                 9.1820                11.3099
 IR Inten    --      0.4859                 0.3824               115.0257

                     70                     71                     72
                      A                      A                      A
 Frequencies --   3047.6920              3125.0637              3180.8306
 Red. masses --      1.0658                 1.1000                 1.0857
 Frc consts  --      5.8327                 6.3294                 6.4718
 IR Inten    --     38.9521                29.4195                 3.7575

                     73                     74                     75
                      A                      A                      A
 Frequencies --   3184.8315              3193.3824              3202.6026
 Red. masses --      1.0874                 1.0906                 1.0942
 Frc consts  --      6.4984                 6.5528                 6.6123
 IR Inten    --      2.4388                11.0071                34.8131

                     76                     77                     78
                      A                      A                      A
 Frequencies --   3212.8507              3225.0929              3249.5051
 Red. masses --      1.0980                 1.0916                 1.0888
 Frc consts  --      6.6780                 6.6897                 6.7740
 IR Inten    --     16.5076                 3.3512                 0.1988

                     79                     80                     81
                      A                      A                      A
 Frequencies --   3255.1005              3265.4737              3286.1407
 Red. masses --      1.0936                 1.0977                 1.0997
 Frc consts  --      6.8273                 6.8963                 6.9969
 IR Inten    --     10.9452                 0.8375                 2.2412

 - Thermochemistry -
 -------------------
 Temperature   298.150 Kelvin.  Pressure   1.00000 Atm.
 Atom     1 has atomic number  6 and mass  12.00000

 Molecular mass:   224.09496 amu.
 Principal axes and moments of inertia in atomic units:
                           1         2         3
     Eigenvalues --  1796.978206202.999546881.37372
           X            0.99995   0.00512   0.00857
           Y           -0.00534   0.99965   0.02578
           Z           -0.00843  -0.02582   0.99963
 This molecule is an asymmetric top.
 Rotational symmetry number  1.
 Warning -- assumption of classical behavior for rotation
           may cause significant error
 Rotational temperatures (Kelvin)      0.04820     0.01396     0.01259
 Rotational constants (GHZ):           1.00432     0.29095     0.26226
 Zero-point vibrational energy     610030.8 (Joules/Mol)
                                  145.80086 (Kcal/Mol)
 Warning -- explicit consideration of  17 degrees of freedom as
           vibrations may cause significant error
 Vibrational temperatures:     18.45    40.87    46.55   138.67   166.16
          (Kelvin)            270.48   325.68   437.84   485.48   528.11
                              584.93   597.30   619.74   682.35   714.05
                              726.57   869.10   916.87   925.03   930.32
                              981.39  1026.99  1053.44  1087.93  1104.10
                             1129.12  1162.82  1170.51  1204.57  1237.52
                             1261.65  1298.15  1334.37  1343.60  1348.44
                             1389.51  1392.20  1435.92  1452.60  1465.47
                             1473.86  1525.43  1553.72  1616.47  1640.44
                             1709.24  1719.37  1746.16  1749.68  1786.19
                             1818.09  1839.93  1850.24  1895.16  1966.98
                             1972.21  1976.06  1993.72  2034.48  2139.29
                             2165.46  2185.73  2203.29  2228.93  2261.88
                             2270.67  2373.76  2401.41  2446.83  4384.95
                             4496.27  4576.51  4582.26  4594.56  4607.83
                             4622.58  4640.19  4675.31  4683.36  4698.29
                             4728.02

 Zero-point correction=                           0.232348 (Hartree/Particle)
 Thermal correction to Energy=                    0.245330
 Thermal correction to Enthalpy=                  0.246274
 Thermal correction to Gibbs Free Energy=         0.189652
 Sum of electronic and zero-point Energies=           -725.233549
 Sum of electronic and thermal Energies=              -725.220567
 Sum of electronic and thermal Enthalpies=            -725.219623
 Sum of electronic and thermal Free Energies=         -725.276245

                     E (Thermal)             CV                S
                      KCal/Mol        Cal/Mol-Kelvin    Cal/Mol-Kelvin
 Total                  153.947             51.750            119.171
 Electronic               0.000              0.000              0.000
 Translational            0.889              2.981             42.123
 Rotational               0.889              2.981             32.706
 Vibrational            152.169             45.789             44.342
 Vibration     1          0.593              1.987              7.517
 Vibration     2          0.593              1.984              5.938
 Vibration     3          0.594              1.983              5.679
 Vibration     4          0.603              1.952              3.526
 Vibration     5          0.608              1.937              3.175
 Vibration     6          0.633              1.856              2.247
 Vibration     7          0.650              1.801              1.908
 Vibration     8          0.695              1.666              1.393
 Vibration     9          0.718              1.601              1.224
 Vibration    10          0.740              1.540              1.092
 Vibration    11          0.771              1.456              0.939
 Vibration    12          0.779              1.437              0.909
 Vibration    13          0.792              1.403              0.856
 Vibration    14          0.831              1.307              0.726
 Vibration    15          0.852              1.258              0.667
 Vibration    16          0.860              1.239              0.646
 Vibration    17          0.963              1.023              0.443

 Optimization completed.
    -- Stationary point found.
 Normal termination of Gaussian 16 at Sun Dec 13 20:22:44 2020.

 ----------------------------------------------------------------------
 # B3LYP/6-311++G(d,p) empiricaldispersion=gd3bj scf=xqc pop=npa geom=c
 heck
 ----------------------------------------------------------------------

 --------------------------------------
 CID_84689131_JID_7268_Energie_neutraal
 --------------------------------------
 Structure from the checkpoint file:  "JID_7268.chk"
 Charge =  0 Multiplicity = 1

 SCF Done:  E(RB3LYP) =  -725.653200783     A.U. after   15 cycles
 Normal termination of Gaussian 16 at Sun Dec 13 20:27:21 2020.

 ----------------------------------------------------------------------
 # B3LYP/6-311++G(d,p) empiricaldispersion=gd3bj scf=xqc pop=npa geom=c
 heck
 ----------------------------------------------------------------------

 ------------------------------------
 CID_84689131_JID_7268_Energie_kation
 ------------------------------------
 Structure from the checkpoint file:  "JID_7268.chk"
 Charge =  1 Multiplicity = 2

 SCF Done:  E(UB3LYP) =  -725.373931238     A.U. after   22 cycles
 Normal termination of Gaussian 16 at Sun Dec 13 20:37:13 2020.
 Gaussian 16:  ES64L-G16RevA.03 25-Dec-2016

 ----------------------------------------------------------------------
 # B3LYP/6-311++G(d,p) empiricaldispersion=gd3bj scf=xqc pop=npa geom=c
 heck
 ----------------------------------------------------------------------

 -----------------------------------
 CID_84689131_JID_7268_Energie_anion
 -----------------------------------
 Structure from the checkpoint file:  "JID_7268.chk"
 Charge = -1 Multiplicity = 2

                         Standard orientation:
 ---------------------------------------------------------------------
 Center     Atomic      Atomic             Coordinates (Angstroms)
 Number     Number       Type             X           Y           Z
 ---------------------------------------------------------------------
      1          6           0       -3.554407   -1.865512    0.212739
      2          6           0       -3.896563   -0.829151   -0.660022
      3          6           0       -3.274632    0.412101   -0.544694
      4          6           0       -2.307237    0.633637    0.443119
      5          6           0       -1.968283   -0.409935    1.308866
      6          6           0       -2.589734   -1.654455    1.197575
      7          6           0       -1.582337    1.952899    0.506837
      8          8           0       -0.617642    2.093533   -0.559408
      9          6           0        0.417674    1.187879   -0.509347
     10          6           0        1.483609    1.379612    0.335958
     11          6           0        2.541583    0.438834    0.342868
     12          6           0        3.753300    0.267646    1.015759
     13          6           0        4.288149   -0.920705    0.496309
     14          7           0        3.512410   -1.492379   -0.435702
     15          7           0        2.448183   -0.656580   -0.523737
     16          6           0        1.390906   -0.848499   -1.366863
     17          6           0        0.368833    0.055239   -1.373988
     18          1           0       -4.039370   -2.833542    0.123982
     19          1           0       -4.648890   -0.989755   -1.427170
     20          1           0       -3.532283    1.217686   -1.227894
     21          1           0       -1.205991   -0.248263    2.066605
     22          1           0       -2.317203   -2.458147    1.875593
     23          1           0       -2.265120    2.793887    0.362286
     24          1           0       -1.078611    2.072101    1.474594
     25          1           0        1.525797    2.246112    0.986370
     26          1           0        4.173715    0.917497    1.768269
     27          1           0        5.221800   -1.400407    0.760673
     28          1           0        1.445101   -1.737634   -1.981185
     29          1           0       -0.487125   -0.082622   -2.021470
 ---------------------------------------------------------------------

 SCF Done:  E(UB3LYP) =  -725.645042530     A.U. after   33 cycles
 SCF Done:  E(UB3LYP) =  -725.645042533     a.u. after    2 cycles

 The electronic state is 2-A.
 Alpha  occ. eigenvalues --  -19.02538 -14.28042 -14.21006 -10.11955 -10.10573
 Alpha  occ. eigenvalues --  -10.10122 -10.08572 -10.08175 -10.07599 -10.07421
 Alpha  occ. eigenvalues --  -10.07388 -10.07317 -10.07303 -10.06925 -10.05521
 Alpha  occ. eigenvalues --  -10.04890 -10.04887  -0.94209  -0.93780  -0.76071
 Alpha  occ. eigenvalues --   -0.75640  -0.69779  -0.67248  -0.64982  -0.64604
 Alpha  occ. eigenvalues --   -0.61154  -0.58007  -0.52905  -0.50862  -0.49822
 Alpha  occ. eigenvalues --   -0.49023  -0.47123  -0.41944  -0.41451  -0.39052
 Alpha  occ. eigenvalues --   -0.37452  -0.36910  -0.36294  -0.34939  -0.34377
 Alpha  occ. eigenvalues --   -0.33715  -0.33183  -0.32229  -0.31744  -0.29993
 Alpha  occ. eigenvalues --   -0.29101  -0.27271  -0.26403  -0.25852  -0.24667
 Alpha  occ. eigenvalues --   -0.23807  -0.21240  -0.19161  -0.18387  -0.17063
 Alpha  occ. eigenvalues --   -0.15573  -0.15100  -0.13478  -0.09398   0.04736
 Alpha virt. eigenvalues --    0.06366   0.07382   0.07779   0.08027   0.08435
 Alpha virt. eigenvalues --    0.08628   0.09521   0.09898   0.10128   0.10770
 Alpha virt. eigenvalues --    0.10933   0.11964   0.12676   0.13191   0.13576

  Beta  occ. eigenvalues --  -19.02533 -14.27909 -14.21033 -10.11927 -10.10424
  Beta  occ. eigenvalues --  -10.10154 -10.08281 -10.08149 -10.07582 -10.07395
  Beta  occ. eigenvalues --  -10.07383 -10.07299 -10.07270 -10.06867 -10.05553
  Beta  occ. eigenvalues --  -10.04861 -10.04686  -0.94085  -0.93636  -0.75894
  Beta  occ. eigenvalues --   -0.75549  -0.69570  -0.67153  -0.64829  -0.64511
  Beta  occ. eigenvalues --   -0.60905  -0.57885  -0.52611  -0.50763  -0.49751
  Beta  occ. eigenvalues --   -0.48916  -0.46967  -0.41878  -0.41289  -0.38986
  Beta  occ. eigenvalues --   -0.37338  -0.36787  -0.36173  -0.34602  -0.34124
  Beta  occ. eigenvalues --   -0.33530  -0.33079  -0.32181  -0.31690  -0.29927
  Beta  occ. eigenvalues --   -0.29052  -0.27164  -0.26238  -0.25744  -0.24585
  Beta  occ. eigenvalues --   -0.23630  -0.20734  -0.18484  -0.18370  -0.16985
  Beta  occ. eigenvalues --   -0.15418  -0.14864  -0.12993  -0.08634
  Beta virt. eigenvalues --    0.06991   0.07706   0.07883   0.08334   0.08569
  Beta virt. eigenvalues --    0.08797   0.09235   0.09632   0.10029   0.10330
  Beta virt. eigenvalues --    0.10893   0.11103   0.12004   0.12770   0.13314

 Mulliken charges and spin densities:
               1          2
     1  C    0.559570  -0.885150
     2  C    0.287327  -0.534578
     3  C    0.100811  -0.155599
     4  C   -0.194926   0.866956
     5  C   -0.676142   0.609679
     6  C   -0.498080   0.153756
     7  C    1.125354  -1.814404
     8  O   -0.092517   0.003948
     9  C   -0.277029   0.091707
    10  C   -0.191421   0.137338
    11  C   -0.050485  -0.000294
    12  C   -0.074860  -0.050304
    13  C   -0.323840   0.027332
    14  N   -0.137977   0.002925
    15  N    0.263507   0.012076
    16  C   -0.209332   0.397112
    17  C   -0.042166  -0.247427
    18  H   -0.110070   0.249373
    19  H   -0.756659   0.935491
    20  H   -0.234540   0.410898
    21  H    0.138884   0.015956
    22  H    0.112339   0.043729
    23  H   -0.445123   0.629628
    24  H    0.118657  -0.003196
    25  H    0.066787   0.069610
    26  H    0.119645   0.014275
    27  H    0.110907   0.001058
    28  H    0.137029   0.013891
    29  H    0.174347   0.004214
 Sum of Mulliken charges =  -1.00000   1.00000

 Dipole moment (field-independent basis, Debye):
    X=              3.3498    Y=             -0.5790    Z=              3.3791  Tot=              4.7932
 Quadrupole moment (field-independent basis, Debye-Ang):
   XX=           -175.5751   YY=           -132.7701   ZZ=           -116.8249
   XY=              6.1797   XZ=             -2.0059   YZ=              0.3085

 Summary of Natural Population Analysis:

                                       Natural Population
                Natural  -----------------------------------------------
    Atom  No    Charge         Core      Valence    Rydberg      Total
 -----------------------------------------------------------------------
      C    1   -0.09945      0.99956     2.08969    0.01020     3.09945
      C    2   -0.10235      0.99956     2.09235    0.01044     3.10235
      C    3   -0.08417      0.99950     2.07380    0.01086     3.08417
      C    4   -0.03639      0.99950     2.02632    0.01057     3.03639
      C    5   -0.09430      0.99951     2.08593    0.00886     3.09430
      C    6   -0.09649      0.99956     2.08711    0.00982     3.09649
      C    7   -0.01142      0.99950     1.99845    0.01346     3.01142
      O    8   -0.29137      0.99986     3.28172    0.00978     4.29137
      C    9    0.18102      0.99937     1.80538    0.01423     2.81898
      C   10   -0.10797      0.99946     2.10031    0.00819     3.10797
      C   11    0.07326      0.99956     1.91466    0.01253     2.92674
      C   12   -0.17995      0.99952     2.17266    0.00777     3.17995
      C   13   -0.00454      0.99965     1.99113    0.01376     3.00454
      N   14   -0.18040      0.99974     2.66787    0.01278     3.68040
      N   15   -0.07844      0.99960     2.56664    0.01219     3.57844
      C   16    0.07776      0.99957     1.91234    0.01033     2.92224
      C   17   -0.15020      0.99952     2.14132    0.00936     3.15020
      H   18    0.09865      0.00000     0.40049    0.00086     0.40135
      H   19    0.10138      0.00000     0.39694    0.00168     0.39862
      H   20    0.10272      0.00000     0.39587    0.00141     0.39728
      H   21    0.10072      0.00000     0.39825    0.00103     0.39928
      H   22    0.09752      0.00000     0.40175    0.00073     0.40248
      H   23    0.09610      0.00000     0.40200    0.00190     0.40390
      H   24    0.08238      0.00000     0.41639    0.00123     0.41762
      H   25    0.10241      0.00000     0.39664    0.00095     0.39759
      H   26    0.10343      0.00000     0.39583    0.00074     0.39657
      H   27    0.09059      0.00000     0.40861    0.00080     0.40941
      H   28    0.09957      0.00000     0.39935    0.00109     0.40043
      H   29    0.10994      0.00000     0.38877    0.00129     0.39006
 =======================================================================
   * Total *    0.00000     16.99257    41.80857    0.19886    59.00000

 Normal termination of Gaussian 16 at Sun Dec 13 21:05:40 2020.
