 Gaussian 16, Revision A.03,

 -----------------------------------------------------------
 # opt freq B3LYP/6-31G(d) empiricaldispersion=gd3bj scf=xqc
 -----------------------------------------------------------

 -------------------------------
 CID_136679278_JID_2497_neutraal
 -------------------------------
 Symbolic Z-matrix:
 Charge =  0 Multiplicity = 1

 SCF Done:  E(RB3LYP) =  -1330.72368777     A.U. after   15 cycles
 SCF Done:  E(RB3LYP) =  -1330.73260880     A.U. after   14 cycles
 SCF Done:  E(RB3LYP) =  -1330.73343300     A.U. after   13 cycles
 SCF Done:  E(RB3LYP) =  -1330.73450628     A.U. after   14 cycles
 SCF Done:  E(RB3LYP) =  -1330.73505353     A.U. after   14 cycles
 SCF Done:  E(RB3LYP) =  -1330.73542953     A.U. after   13 cycles
 SCF Done:  E(RB3LYP) =  -1330.73548558     A.U. after   12 cycles
 SCF Done:  E(RB3LYP) =  -1330.73556348     A.U. after   13 cycles
 SCF Done:  E(RB3LYP) =  -1330.73553296     A.U. after   14 cycles
 SCF Done:  E(RB3LYP) =  -1330.73575958     A.U. after   14 cycles
 SCF Done:  E(RB3LYP) =  -1330.73722014     A.U. after   12 cycles
 SCF Done:  E(RB3LYP) =  -1330.73724646     A.U. after   12 cycles
 SCF Done:  E(RB3LYP) =  -1330.73726126     A.U. after   11 cycles
 SCF Done:  E(RB3LYP) =  -1330.73726541     A.U. after   10 cycles
 SCF Done:  E(RB3LYP) =  -1330.73726741     A.U. after   10 cycles
 SCF Done:  E(RB3LYP) =  -1330.73726776     A.U. after    9 cycles
 Optimization completed.
    -- Stationary point found.
 Normal termination of Gaussian 16 at Wed Dec  9 17:50:51 2020.

 --------------------------------------------------------------------
 #N Geom=AllCheck Guess=TCheck SCRF=Check GenChk RB3LYP/6-31G(d) Freq
 --------------------------------------------------------------------

 Structure from the checkpoint file:  "JID_2497.chk"
 -------------------------------
 CID_136679278_JID_2497_neutraal
 -------------------------------
 Charge =  0 Multiplicity = 1

 SCF Done:  E(RB3LYP) =  -1330.73726776     A.U. after    1 cycles

  Exact polarizability: 148.134  -3.357 142.183   9.901  -4.477  65.289
 Approx polarizability: 241.009 -20.923 221.405  30.288 -13.400 104.428

                      1                      2                      3
                      A                      A                      A
 Frequencies --     30.8880                48.7113                82.5174
 Red. masses --     13.1375                 6.0556                 3.6009
 Frc consts  --      0.0074                 0.0085                 0.0144
 IR Inten    --      2.7636                 2.0428                 2.5833

                      4                      5                      6
                      A                      A                      A
 Frequencies --     84.4816               117.8451               146.0283
 Red. masses --      3.2604                 2.3543                 1.4179
 Frc consts  --      0.0137                 0.0193                 0.0178
 IR Inten    --      4.1411                 0.7367                 0.2014

                      7                      8                      9
                      A                      A                      A
 Frequencies --    161.6427               176.9025               178.0142
 Red. masses --      1.7953                 3.9697                 2.0926
 Frc consts  --      0.0276                 0.0732                 0.0391
 IR Inten    --      1.3472                 0.2018                 0.6171

                     10                     11                     12
                      A                      A                      A
 Frequencies --    236.5562               291.5852               300.5586
 Red. masses --      9.5835                 9.4224                 6.8229
 Frc consts  --      0.3160                 0.4720                 0.3631
 IR Inten    --      5.6053                 4.2790                 2.7318

                     13                     14                     15
                      A                      A                      A
 Frequencies --    335.7336               376.8058               400.7503
 Red. masses --      6.6205                 5.4332                 6.5038
 Frc consts  --      0.4397                 0.4545                 0.6154
 IR Inten    --     10.4498                15.7069                 6.6277

                     16                     17                     18
                      A                      A                      A
 Frequencies --    439.8691               464.4137               489.7842
 Red. masses --      8.3937                 5.3018                 1.2256
 Frc consts  --      0.9569                 0.6737                 0.1732
 IR Inten    --     10.1562                 6.4217                14.8543

                     19                     20                     21
                      A                      A                      A
 Frequencies --    574.8804               702.7339               704.6776
 Red. masses --     10.9535                 6.0372                10.3696
 Frc consts  --      2.1328                 1.7566                 3.0338
 IR Inten    --      5.8380                 6.9197                 9.7027

                     22                     23                     24
                      A                      A                      A
 Frequencies --    742.5556               758.2936               770.7552
 Red. masses --      1.3280                 4.1040                 6.1967
 Frc consts  --      0.4314                 1.3904                 2.1689
 IR Inten    --     38.5773                58.8446                50.4692

                     25                     26                     27
                      A                      A                      A
 Frequencies --    838.6555               911.4724               961.9751
 Red. masses --      4.8948                 7.8834                 1.5961
 Frc consts  --      2.0284                 3.8588                 0.8702
 IR Inten    --    113.9652                34.8356                55.4729

                     28                     29                     30
                      A                      A                      A
 Frequencies --   1000.7520              1075.0674              1138.3005
 Red. masses --      7.0017                 4.7289                 6.5479
 Frc consts  --      4.1315                 3.2202                 4.9988
 IR Inten    --     94.0603               170.1657               224.4836

                     31                     32                     33
                      A                      A                      A
 Frequencies --   1177.3783              1185.5980              1205.4535
 Red. masses --      1.2553                 1.2584                 1.5902
 Frc consts  --      1.0252                 1.0422                 1.3615
 IR Inten    --      0.3798                 0.6523                51.9370

                     34                     35                     36
                      A                      A                      A
 Frequencies --   1220.2739              1263.4411              1302.4728
 Red. masses --      1.4540                 5.3947                 7.2212
 Frc consts  --      1.2757                 5.0737                 7.2177
 IR Inten    --     18.9598                12.0285               265.1972

                     37                     38                     39
                      A                      A                      A
 Frequencies --   1364.8350              1459.9730              1493.9890
 Red. masses --      1.8880                 1.6038                 1.2013
 Frc consts  --      2.0722                 2.0141                 1.5797
 IR Inten    --    142.2301               153.3048                18.4863

                     40                     41                     42
                      A                      A                      A
 Frequencies --   1507.3177              1514.9389              1517.4680
 Red. masses --      1.0487                 1.1785                 1.0846
 Frc consts  --      1.4039                 1.5935                 1.4715
 IR Inten    --      6.6566                80.6200                28.2711

                     43                     44                     45
                      A                      A                      A
 Frequencies --   1527.8504              1531.7043              1633.3086
 Red. masses --      1.0539                 1.9461                 2.5230
 Frc consts  --      1.4495                 2.6901                 3.9656
 IR Inten    --     10.1783               288.9368              1002.3258

                     46                     47                     48
                      A                      A                      A
 Frequencies --   1801.0703              2664.4629              3083.9342
 Red. masses --     11.0078                 1.0375                 1.0298
 Frc consts  --     21.0383                 4.3396                 5.7706
 IR Inten    --    196.6692                16.7599                35.7784

                     49                     50                     51
                      A                      A                      A
 Frequencies --   3089.3588              3163.8465              3174.3565
 Red. masses --      1.0280                 1.1085                 1.1085
 Frc consts  --      5.7806                 6.5375                 6.5811
 IR Inten    --     41.9419                15.6271                13.0685

                     52                     53                     54
                      A                      A                      A
 Frequencies --   3191.5947              3200.3967              3315.5500
 Red. masses --      1.1089                 1.1070                 1.0671
 Frc consts  --      6.6552                 6.6803                 6.9115
 IR Inten    --     11.7823                10.5311               572.3799

 - Thermochemistry -
 -------------------
 Temperature   298.150 Kelvin.  Pressure   1.00000 Atm.
 Atom     1 has atomic number  6 and mass  12.00000

 Molecular mass:   207.98640 amu.
 Principal axes and moments of inertia in atomic units:
                           1         2         3
     Eigenvalues --  2383.760072666.170134827.70599
           X            0.99664  -0.08145  -0.00888
           Y            0.08148   0.99667   0.00331
           Z            0.00858  -0.00402   0.99996
 This molecule is an asymmetric top.
 Rotational symmetry number  1.
 Warning -- assumption of classical behavior for rotation
           may cause significant error
 Rotational temperatures (Kelvin)      0.03634     0.03249     0.01794
 Rotational constants (GHZ):           0.75710     0.67690     0.37383
 Zero-point vibrational energy     371642.5 (Joules/Mol)
                                   88.82470 (Kcal/Mol)
 Warning -- explicit consideration of  19 degrees of freedom as
           vibrations may cause significant error
 Vibrational temperatures:     44.44    70.08   118.72   121.55   169.55
          (Kelvin)            210.10   232.57   254.52   256.12   340.35
                              419.53   432.44   483.05   542.14   576.59
                              632.87   668.19   704.69   827.12  1011.08
                             1013.87  1068.37  1091.02  1108.94  1206.64
                             1311.41  1384.07  1439.86  1546.78  1637.76
                             1693.98  1705.81  1734.38  1755.70  1817.81
                             1873.97  1963.69  2100.58  2149.52  2168.69
                             2179.66  2183.30  2198.24  2203.78  2349.97
                             2591.34  3833.57  4437.09  4444.90  4552.07
                             4567.19  4591.99  4604.66  4770.34

 Zero-point correction=                           0.141551 (Hartree/Particle)
 Thermal correction to Energy=                    0.154988
 Thermal correction to Enthalpy=                  0.155932
 Thermal correction to Gibbs Free Energy=         0.099831
 Sum of electronic and zero-point Energies=          -1330.595717
 Sum of electronic and thermal Energies=             -1330.582280
 Sum of electronic and thermal Enthalpies=           -1330.581336
 Sum of electronic and thermal Free Energies=        -1330.637437

                     E (Thermal)             CV                S
                      KCal/Mol        Cal/Mol-Kelvin    Cal/Mol-Kelvin
 Total                   97.256             46.209            118.074
 Electronic               0.000              0.000              0.000
 Translational            0.889              2.981             41.901
 Rotational               0.889              2.981             31.795
 Vibrational             95.479             40.248             44.378
 Vibration     1          0.594              1.984              5.772
 Vibration     2          0.595              1.978              4.869
 Vibration     3          0.600              1.961              3.830
 Vibration     4          0.601              1.960              3.784
 Vibration     5          0.608              1.935              3.135
 Vibration     6          0.617              1.907              2.723
 Vibration     7          0.622              1.889              2.530
 Vibration     8          0.628              1.871              2.361
 Vibration     9          0.628              1.869              2.349
 Vibration    10          0.655              1.785              1.829
 Vibration    11          0.687              1.689              1.465
 Vibration    12          0.693              1.673              1.414
 Vibration    13          0.717              1.604              1.232
 Vibration    14          0.747              1.520              1.052
 Vibration    15          0.767              1.468              0.960
 Vibration    16          0.800              1.383              0.827
 Vibration    17          0.822              1.329              0.753
 Vibration    18          0.846              1.273              0.684
 Vibration    19          0.931              1.086              0.495

                           ! Non-Optimized Parameters !
 Normal termination of Gaussian 16 at Wed Dec  9 17:56:08 2020.

 ----------------------------------------------------------------------
 # B3LYP/6-311++G(d,p) empiricaldispersion=gd3bj scf=xqc pop=npa geom=c
 heck
 ----------------------------------------------------------------------

 ---------------------------------------
 CID_136679278_JID_2497_Energie_neutraal
 ---------------------------------------
 Structure from the checkpoint file:  "JID_2497.chk"
 Charge =  0 Multiplicity = 1

 SCF Done:  E(RB3LYP) =  -1330.95727363     A.U. after   18 cycles
 Normal termination of Gaussian 16 at Wed Dec  9 18:00:07 2020.

 ----------------------------------------------------------------------
 # B3LYP/6-311++G(d,p) empiricaldispersion=gd3bj scf=xqc pop=npa geom=c
 heck
 ----------------------------------------------------------------------

 -------------------------------------
 CID_136679278_JID_2497_Energie_kation
 -------------------------------------
 Structure from the checkpoint file:  "JID_2497.chk"
 Charge =  1 Multiplicity = 2

 SCF Done:  E(UB3LYP) =  -1330.67553490     A.U. after   26 cycles
 Normal termination of Gaussian 16 at Wed Dec  9 18:06:12 2020.
 Gaussian 16:  ES64L-G16RevA.03 25-Dec-2016

 ----------------------------------------------------------------------
 # B3LYP/6-311++G(d,p) empiricaldispersion=gd3bj scf=xqc pop=npa geom=c
 heck
 ----------------------------------------------------------------------

 ------------------------------------
 CID_136679278_JID_2497_Energie_anion
 ------------------------------------
 Structure from the checkpoint file:  "JID_2497.chk"
 Charge = -1 Multiplicity = 2

                         Standard orientation:
 ---------------------------------------------------------------------
 Center     Atomic      Atomic             Coordinates (Angstroms)
 Number     Number       Type             X           Y           Z
 ---------------------------------------------------------------------
      1          6           0       -2.010224    3.009254    0.371943
      2          8           0       -1.606846    1.630293    0.301544
      3          6           0       -0.347350    1.339873    0.083208
      4          6           0        0.078570    0.004964   -0.031548
      5          6           0        1.511624   -0.304965   -0.046003
      6          8           0        2.018551   -1.398690    0.087956
      7          8           0        2.330265    0.798943   -0.257772
      8          6           0        3.745940    0.534015   -0.240228
      9          6           0       -0.887486   -1.101796   -0.081507
     10         16           0       -2.441416   -0.977679   -0.657892
     11         16           0       -0.295747   -2.685165    0.503468
     12          8           0        0.447280    2.397485    0.044513
     13          1           0       -1.543829    3.503122    1.227559
     14          1           0       -3.091808    2.969442    0.491699
     15          1           0       -1.743940    3.533258   -0.548394
     16          1           0        4.040730    0.120474    0.726239
     17          1           0        4.001035   -0.174176   -1.030203
     18          1           0        4.222728    1.498626   -0.413803
     19          1           0       -1.523842   -3.237455    0.392900
     20          1           0        1.373088    2.079890   -0.120332
 ---------------------------------------------------------------------

 SCF Done:  E(UB3LYP) =  -1330.97151590     A.U. after   31 cycles

 The electronic state is 2-A.
 Alpha  occ. eigenvalues --  -88.68147 -88.61162 -19.06460 -19.03093 -19.02996
 Alpha  occ. eigenvalues --  -18.97851 -10.17285 -10.14777 -10.13595 -10.11622
 Alpha  occ. eigenvalues --  -10.04957 -10.03949  -7.76817  -7.69933  -5.73182
 Alpha  occ. eigenvalues --   -5.72762  -5.72303  -5.66272  -5.65896  -5.65486
 Alpha  occ. eigenvalues --   -1.00317  -0.98804  -0.92042  -0.89720  -0.68200
 Alpha  occ. eigenvalues --   -0.63674  -0.62621  -0.57579  -0.52472  -0.50350
 Alpha  occ. eigenvalues --   -0.47383  -0.43694  -0.41191  -0.39531  -0.38417
 Alpha  occ. eigenvalues --   -0.36918  -0.35716  -0.33082  -0.31577  -0.30433
 Alpha  occ. eigenvalues --   -0.30275  -0.28065  -0.25943  -0.23723  -0.23323
 Alpha  occ. eigenvalues --   -0.22617  -0.21246  -0.20068  -0.18480  -0.16944
 Alpha  occ. eigenvalues --   -0.14617  -0.08985  -0.05874  -0.02889   0.04589
 Alpha virt. eigenvalues --    0.06817   0.08117   0.10268   0.10790   0.11231
 Alpha virt. eigenvalues --    0.11637   0.12133   0.12475   0.13149   0.14660
 Alpha virt. eigenvalues --    0.15734   0.16053   0.16903   0.16942   0.17721

  Beta  occ. eigenvalues --  -88.68133 -88.61070 -19.06469 -19.02935 -19.02813
  Beta  occ. eigenvalues --  -18.97906 -10.17265 -10.14167 -10.13592 -10.11628
  Beta  occ. eigenvalues --  -10.04211 -10.04119  -7.76804  -7.69851  -5.73188
  Beta  occ. eigenvalues --   -5.72769  -5.72227  -5.66245  -5.65587  -5.65433
  Beta  occ. eigenvalues --   -1.00062  -0.98602  -0.91735  -0.89765  -0.67711
  Beta  occ. eigenvalues --   -0.63489  -0.62134  -0.57504  -0.52051  -0.50013
  Beta  occ. eigenvalues --   -0.47261  -0.43327  -0.40788  -0.39367  -0.38387
  Beta  occ. eigenvalues --   -0.36216  -0.35441  -0.32958  -0.31497  -0.30236
  Beta  occ. eigenvalues --   -0.29830  -0.27405  -0.25810  -0.23548  -0.22916
  Beta  occ. eigenvalues --   -0.22300  -0.20836  -0.19545  -0.17874  -0.15288
  Beta  occ. eigenvalues --   -0.14383  -0.08509  -0.04505  -0.02653
  Beta virt. eigenvalues --    0.06772   0.08074   0.10231   0.11129   0.11474
  Beta virt. eigenvalues --    0.11779   0.12225   0.12512   0.12746   0.13120
  Beta virt. eigenvalues --    0.14658   0.15750   0.16043   0.16909   0.17009

 Mulliken charges and spin densities:
               1          2
     1  C   -0.285871  -0.016133
     2  O   -0.006281   0.026861
     3  C   -0.261751   0.309020
     4  C    1.373959  -0.096265
     5  C   -1.260961  -0.018632
     6  O   -0.227329  -0.016977
     7  O   -0.282332  -0.002676
     8  C   -0.242591  -0.011457
     9  C    0.304740   0.367013
    10  S   -0.832121   0.284930
    11  S   -0.241625   0.092964
    12  O   -0.362432   0.037947
    13  H    0.143121   0.012441
    14  H    0.124208   0.009208
    15  H    0.160275   0.003448
    16  H    0.175287   0.006632
    17  H    0.180773  -0.002373
    18  H    0.102355   0.014246
    19  H   -0.012666  -0.000649
    20  H    0.451242   0.000450
 Sum of Mulliken charges =  -1.00000   1.00000

 Dipole moment (field-independent basis, Debye):
    X=              6.4151    Y=              7.3651    Z=              1.0434  Tot=              9.8228
 Quadrupole moment (field-independent basis, Debye-Ang):
   XX=           -104.2846   YY=           -105.9723   ZZ=            -95.1390
   XY=             -3.5956   XZ=             -5.9310   YZ=              0.0251

 Summary of Natural Population Analysis:

                                       Natural Population
                Natural  -----------------------------------------------
    Atom  No    Charge         Core      Valence    Rydberg      Total
 -----------------------------------------------------------------------
      C    1   -0.10313      0.99960     2.09503    0.00849     3.10313
      O    2   -0.23426      0.99983     3.22503    0.00939     4.23426
      C    3    0.48590      0.99950     1.49888    0.01573     2.51410
      C    4   -0.23160      0.99936     2.21850    0.01374     3.23160
      C    5    0.39007      0.99961     1.58727    0.02305     2.60993
      O    6   -0.32455      0.99987     3.31752    0.00716     4.32455
      O    7   -0.31591      0.99986     3.30709    0.00896     4.31591
      C    8   -0.10159      0.99961     2.09352    0.00845     3.10159
      C    9   -0.00729      0.99963     1.99331    0.01435     3.00729
      S   10   -0.06677      4.99946     3.05096    0.01634     8.06677
      S   11    0.01353      4.99950     2.96852    0.01845     7.98647
      O   12   -0.34059      0.99986     3.33420    0.00653     4.34059
      H   13    0.08424      0.00000     0.41450    0.00126     0.41576
      H   14    0.09039      0.00000     0.40875    0.00085     0.40961
      H   15    0.08679      0.00000     0.41208    0.00113     0.41321
      H   16    0.09101      0.00000     0.40782    0.00117     0.40899
      H   17    0.09286      0.00000     0.40603    0.00111     0.40714
      H   18    0.08473      0.00000     0.41445    0.00082     0.41527
      H   19    0.05407      0.00000     0.44158    0.00435     0.44593
      H   20    0.25208      0.00000     0.24510    0.00282     0.24792
 =======================================================================
   * Total *   -0.00000     19.99570    33.84014    0.16417    54.00000

 Normal termination of Gaussian 16 at Wed Dec  9 18:12:58 2020.
