 Gaussian 16, Revision A.03,

 -----------------------------------------------------------
 # opt freq B3LYP/6-31G(d) empiricaldispersion=gd3bj scf=xqc
 -----------------------------------------------------------

 ------------------------------
 CID_64969371_JID_8819_neutraal
 ------------------------------
 Symbolic Z-matrix:
 Charge =  0 Multiplicity = 1

 SCF Done:  E(RB3LYP) =  -807.958362624     A.U. after   15 cycles
 SCF Done:  E(RB3LYP) =  -807.970481848     A.U. after   13 cycles
 SCF Done:  E(RB3LYP) =  -807.971419068     A.U. after   12 cycles
 SCF Done:  E(RB3LYP) =  -807.971621247     A.U. after   12 cycles
 SCF Done:  E(RB3LYP) =  -807.972633262     A.U. after   12 cycles
 SCF Done:  E(RB3LYP) =  -807.973686394     A.U. after   12 cycles
 SCF Done:  E(RB3LYP) =  -807.974128231     A.U. after   12 cycles
 SCF Done:  E(RB3LYP) =  -807.974341821     A.U. after   11 cycles
 SCF Done:  E(RB3LYP) =  -807.974473777     A.U. after   11 cycles
 SCF Done:  E(RB3LYP) =  -807.974556358     A.U. after   10 cycles
 SCF Done:  E(RB3LYP) =  -807.974598534     A.U. after    9 cycles
 SCF Done:  E(RB3LYP) =  -807.974604347     A.U. after    9 cycles
 SCF Done:  E(RB3LYP) =  -807.974606426     A.U. after    9 cycles
 SCF Done:  E(RB3LYP) =  -807.974607132     A.U. after    7 cycles
 SCF Done:  E(RB3LYP) =  -807.974607376     A.U. after    7 cycles
 Optimization completed.
    -- Stationary point found.
 Normal termination of Gaussian 16 at Fri Dec 11 22:20:20 2020.

 --------------------------------------------------------------------
 #N Geom=AllCheck Guess=TCheck SCRF=Check GenChk RB3LYP/6-31G(d) Freq
 --------------------------------------------------------------------

 Structure from the checkpoint file:  "JID_8819.chk"
 ------------------------------
 CID_64969371_JID_8819_neutraal
 ------------------------------
 Charge =  0 Multiplicity = 1

 SCF Done:  E(RB3LYP) =  -807.974607376     A.U. after    1 cycles

  Exact polarizability: 178.368   3.620 160.020  -5.240  -2.017 135.690
 Approx polarizability: 233.034  11.533 223.261 -19.089 -12.952 216.635

                      1                      2                      3
                      A                      A                      A
 Frequencies --     28.0384                45.4825                61.7766
 Red. masses --      3.1596                 4.1058                 3.7725
 Frc consts  --      0.0015                 0.0050                 0.0085
 IR Inten    --      0.1479                 0.5430                 1.1064

                      4                      5                      6
                      A                      A                      A
 Frequencies --     80.6820                93.9827               102.6781
 Red. masses --      3.2843                 3.2932                 2.7344
 Frc consts  --      0.0126                 0.0171                 0.0170
 IR Inten    --      0.8626                 0.1678                 0.4983

                      7                      8                      9
                      A                      A                      A
 Frequencies --    118.5563               154.4904               169.1631
 Red. masses --      2.8407                 3.1983                 3.5586
 Frc consts  --      0.0235                 0.0450                 0.0600
 IR Inten    --      0.3053                 0.4215                 2.5244

                     10                     11                     12
                      A                      A                      A
 Frequencies --    188.8675               198.6458               219.5696
 Red. masses --      2.1156                 1.3333                 3.1338
 Frc consts  --      0.0445                 0.0310                 0.0890
 IR Inten    --      0.4820                 0.2036                 2.0000

                     13                     14                     15
                      A                      A                      A
 Frequencies --    245.4597               258.7218               263.7774
 Red. masses --      1.3343                 2.0167                 3.2111
 Frc consts  --      0.0474                 0.0795                 0.1316
 IR Inten    --      0.2634                 1.9790                 0.6164

                     16                     17                     18
                      A                      A                      A
 Frequencies --    300.0200               316.0280               318.6238
 Red. masses --      3.3246                 1.9783                 2.1154
 Frc consts  --      0.1763                 0.1164                 0.1265
 IR Inten    --      4.6799                 4.1419                 6.2401

                     19                     20                     21
                      A                      A                      A
 Frequencies --    334.6995               343.7143               384.7300
 Red. masses --      2.2290                 2.7953                 3.0053
 Frc consts  --      0.1471                 0.1946                 0.2621
 IR Inten    --      0.0590                 2.1324                 2.6864

                     22                     23                     24
                      A                      A                      A
 Frequencies --    400.8169               440.9820               449.8714
 Red. masses --      3.2669                 3.5994                 4.6354
 Frc consts  --      0.3092                 0.4124                 0.5527
 IR Inten    --      4.2975                 8.3636                 2.3884

                     25                     26                     27
                      A                      A                      A
 Frequencies --    466.9968               514.3059               530.4942
 Red. masses --      3.0376                 1.8545                 2.6745
 Frc consts  --      0.3903                 0.2890                 0.4435
 IR Inten    --      4.3344                39.8639                 4.8374

                     28                     29                     30
                      A                      A                      A
 Frequencies --    567.9175               602.0919               643.8941
 Red. masses --      2.5158                 3.2058                 3.2187
 Frc consts  --      0.4781                 0.6847                 0.7863
 IR Inten    --     14.1565                19.5445                15.2593

                     31                     32                     33
                      A                      A                      A
 Frequencies --    660.0339               694.3637               774.9930
 Red. masses --      3.0627                 2.6129                 1.5510
 Frc consts  --      0.7861                 0.7422                 0.5489
 IR Inten    --     22.1289                 7.9018                 4.9121

                     34                     35                     36
                      A                      A                      A
 Frequencies --    784.2277               801.8362               818.7177
 Red. masses --      1.9642                 1.1826                 2.4610
 Frc consts  --      0.7118                 0.4480                 0.9719
 IR Inten    --     13.5018                 0.3207                 2.4903

                     37                     38                     39
                      A                      A                      A
 Frequencies --    842.7169               861.7944               868.2145
 Red. masses --      3.8214                 2.3612                 2.6852
 Frc consts  --      1.5990                 1.0332                 1.1925
 IR Inten    --     11.8863                 1.1491                 5.5475

                     40                     41                     42
                      A                      A                      A
 Frequencies --    899.3431               913.0600               926.7754
 Red. masses --      2.3180                 1.9732                 2.0207
 Frc consts  --      1.1046                 0.9692                 1.0226
 IR Inten    --      2.2077                 0.4463                 2.6345

                     43                     44                     45
                      A                      A                      A
 Frequencies --    935.6393               955.3765               964.9599
 Red. masses --      2.6581                 1.2572                 2.5984
 Frc consts  --      1.3710                 0.6761                 1.4255
 IR Inten    --      0.8317                 1.2616                 2.3885

                     46                     47                     48
                      A                      A                      A
 Frequencies --    976.3099               985.0172              1018.1233
 Red. masses --      1.4008                 1.5092                 2.4387
 Frc consts  --      0.7867                 0.8628                 1.4894
 IR Inten    --      2.7611                 0.7425                 0.5279

                     49                     50                     51
                      A                      A                      A
 Frequencies --   1021.9259              1062.1067              1063.7593
 Red. masses --      2.1029                 1.9482                 1.7224
 Frc consts  --      1.2939                 1.2949                 1.1483
 IR Inten    --     13.9757                 0.0845                10.2650

                     52                     53                     54
                      A                      A                      A
 Frequencies --   1073.9538              1116.0945              1116.6824
 Red. masses --      3.6727                 1.8393                 1.9403
 Frc consts  --      2.4958                 1.3499                 1.4256
 IR Inten    --      6.5411                 9.8363                 9.8925

                     55                     56                     57
                      A                      A                      A
 Frequencies --   1136.9123              1157.4229              1181.2347
 Red. masses --      2.3526                 2.3849                 2.5571
 Frc consts  --      1.7916                 1.8824                 2.1022
 IR Inten    --     13.7658                30.1507                14.4567

                     58                     59                     60
                      A                      A                      A
 Frequencies --   1183.5660              1201.3002              1213.6528
 Red. masses --      2.2479                 2.3570                 1.3459
 Frc consts  --      1.8553                 2.0041                 1.1681
 IR Inten    --      3.7822                14.4192                 1.7683

                     61                     62                     63
                      A                      A                      A
 Frequencies --   1219.7234              1269.4266              1273.4286
 Red. masses --      2.1071                 1.4494                 1.3416
 Frc consts  --      1.8469                 1.3761                 1.2818
 IR Inten    --     10.6617                 3.2690                 0.1596

                     64                     65                     66
                      A                      A                      A
 Frequencies --   1276.3477              1282.5545              1289.3029
 Red. masses --      1.1272                 1.4834                 1.5263
 Frc consts  --      1.0819                 1.4376                 1.4949
 IR Inten    --      1.2760                 8.7599                30.4044

                     67                     68                     69
                      A                      A                      A
 Frequencies --   1298.5132              1305.9864              1314.3353
 Red. masses --      1.4992                 1.3623                 1.3307
 Frc consts  --      1.4894                 1.3690                 1.3544
 IR Inten    --     36.3115                 3.0826                 5.6591

                     70                     71                     72
                      A                      A                      A
 Frequencies --   1333.6199              1342.2594              1347.5100
 Red. masses --      1.4533                 1.5546                 1.3195
 Frc consts  --      1.5229                 1.6502                 1.4116
 IR Inten    --     54.4154                49.0578                 3.5047

                     73                     74                     75
                      A                      A                      A
 Frequencies --   1364.8875              1385.9657              1393.2520
 Red. masses --      1.3416                 2.0178                 1.7240
 Frc consts  --      1.4725                 2.2837                 1.9718
 IR Inten    --      2.1243               159.3785                83.8050

                     76                     77                     78
                      A                      A                      A
 Frequencies --   1406.8402              1417.8250              1426.3802
 Red. masses --      1.3621                 1.5322                 1.2817
 Frc consts  --      1.5883                 1.8148                 1.5364
 IR Inten    --     12.4274                13.7583                 5.8053

                     79                     80                     81
                      A                      A                      A
 Frequencies --   1434.7913              1444.0689              1451.9006
 Red. masses --      1.3813                 1.2870                 1.4846
 Frc consts  --      1.6754                 1.5812                 1.8438
 IR Inten    --     13.1096                 7.0969                30.9924

                     82                     83                     84
                      A                      A                      A
 Frequencies --   1453.8040              1474.0231              1502.3695
 Red. masses --      1.2309                 1.8098                 1.0917
 Frc consts  --      1.5328                 2.3168                 1.4518
 IR Inten    --     15.1462                 0.2821                 2.0576

                     85                     86                     87
                      A                      A                      A
 Frequencies --   1507.5801              1513.6054              1519.3787
 Red. masses --      1.1158                 1.0898                 1.0523
 Frc consts  --      1.4941                 1.4711                 1.4312
 IR Inten    --      5.2465                 5.1177                 5.3917

                     88                     89                     90
                      A                      A                      A
 Frequencies --   1528.0904              1528.2180              1535.8616
 Red. masses --      1.0720                 1.0454                 1.0580
 Frc consts  --      1.4748                 1.4385                 1.4704
 IR Inten    --      7.7662                 2.7069                 3.1597

                     91                     92                     93
                      A                      A                      A
 Frequencies --   1538.5304              1540.2238              1544.4389
 Red. masses --      1.0460                 1.1371                 1.0648
 Frc consts  --      1.4589                 1.5893                 1.4965
 IR Inten    --      9.1949                 5.7895                 9.7054

                     94                     95                     96
                      A                      A                      A
 Frequencies --   1554.6210              1756.3211              1806.0475
 Red. masses --      1.0514                10.7455                 9.2168
 Frc consts  --      1.4971                19.5292                17.7129
 IR Inten    --     16.1031               224.5282               336.1277

                     97                     98                     99
                      A                      A                      A
 Frequencies --   2980.6748              3003.0284              3032.9489
 Red. masses --      1.0818                 1.0824                 1.0452
 Frc consts  --      5.6625                 5.7512                 5.6646
 IR Inten    --     25.2607                15.3141                21.5025

                    100                    101                    102
                      A                      A                      A
 Frequencies --   3037.0865              3044.1211              3050.4774
 Red. masses --      1.0693                 1.0459                 1.0718
 Frc consts  --      5.8111                 5.7103                 5.8761
 IR Inten    --     30.9856                17.2410                45.7273

                    103                    104                    105
                      A                      A                      A
 Frequencies --   3052.2935              3064.6099              3074.9197
 Red. masses --      1.0489                 1.0749                 1.0632
 Frc consts  --      5.7576                 5.9478                 5.9228
 IR Inten    --     17.2088                40.8201                32.9552

                    106                    107                    108
                      A                      A                      A
 Frequencies --   3082.3703              3091.1476              3096.7170
 Red. masses --      1.0652                 1.0658                 1.0919
 Frc consts  --      5.9627                 6.0004                 6.1693
 IR Inten    --     66.5778                23.4997                20.8578

                    109                    110                    111
                      A                      A                      A
 Frequencies --   3106.8615              3108.7681              3115.9801
 Red. masses --      1.0984                 1.0933                 1.0988
 Frc consts  --      6.2469                 6.2256                 6.2860
 IR Inten    --      7.4812                15.6708                58.4413

                    112                    113                    114
                      A                      A                      A
 Frequencies --   3121.3563              3129.9614              3135.7871
 Red. masses --      1.1000                 1.1056                 1.0949
 Frc consts  --      6.3142                 6.3817                 6.3435
 IR Inten    --     39.6143                21.6884                24.3909

                    115                    116                    117
                      A                      A                      A
 Frequencies --   3154.7980              3159.4931              3167.6544
 Red. masses --      1.0929                 1.0943                 1.1004
 Frc consts  --      6.4086                 6.4363                 6.5052
 IR Inten    --      9.8982                14.6292                 2.2867

                    118                    119                    120
                      A                      A                      A
 Frequencies --   3179.7372              3180.6562              3620.8010
 Red. masses --      1.0952                 1.0973                 1.0766
 Frc consts  --      6.5241                 6.5404                 8.3160
 IR Inten    --     29.6219                 3.6690                34.7461

 - Thermochemistry -
 -------------------
 Temperature   298.150 Kelvin.  Pressure   1.00000 Atm.
 Atom     1 has atomic number  6 and mass  12.00000

 Molecular mass:   252.18378 amu.
 Principal axes and moments of inertia in atomic units:
                           1         2         3
     Eigenvalues --  3620.490944736.855816824.17225
           X            0.99991  -0.00327   0.01297
           Y            0.00296   0.99972   0.02326
           Z           -0.01304  -0.02322   0.99965
 This molecule is an asymmetric top.
 Rotational symmetry number  1.
 Warning -- assumption of classical behavior for rotation
           may cause significant error
 Rotational temperatures (Kelvin)      0.02392     0.01829     0.01269
 Rotational constants (GHZ):           0.49848     0.38100     0.26446
 Zero-point vibrational energy     983506.7 (Joules/Mol)
                                  235.06374 (Kcal/Mol)
 Warning -- explicit consideration of  29 degrees of freedom as
           vibrations may cause significant error
 Vibrational temperatures:     40.34    65.44    88.88   116.08   135.22
          (Kelvin)            147.73   170.58   222.28   243.39   271.74
                              285.81   315.91   353.16   372.24   379.52
                              431.66   454.69   458.43   481.56   494.53
                              553.54   576.69   634.47   647.26   671.90
                              739.97   763.26   817.11   866.28   926.42
                              949.64   999.03  1115.04  1128.33  1153.66
                             1177.95  1212.48  1239.93  1249.17  1293.95
                             1313.69  1333.42  1346.18  1374.57  1388.36
                             1404.69  1417.22  1464.85  1470.32  1528.13
                             1530.51  1545.18  1605.81  1606.66  1635.76
                             1665.27  1699.53  1702.89  1728.40  1746.18
                             1754.91  1826.42  1832.18  1836.38  1845.31
                             1855.02  1868.27  1879.02  1891.04  1918.78
                             1931.21  1938.77  1963.77  1994.10  2004.58
                             2024.13  2039.93  2052.24  2064.34  2077.69
                             2088.96  2091.70  2120.79  2161.57  2169.07
                             2177.74  2186.05  2198.58  2198.76  2209.76
                             2213.60  2216.04  2222.10  2236.75  2526.95
                             2598.50  4288.53  4320.69  4363.74  4369.69
                             4379.81  4388.96  4391.57  4409.29  4424.12
                             4434.84  4447.47  4455.49  4470.08  4472.82
                             4483.20  4490.94  4503.32  4511.70  4539.05
                             4545.81  4557.55  4574.93  4576.25  5209.53

 Zero-point correction=                           0.374598 (Hartree/Particle)
 Thermal correction to Energy=                    0.393237
 Thermal correction to Enthalpy=                  0.394182
 Thermal correction to Gibbs Free Energy=         0.328053
 Sum of electronic and zero-point Energies=           -807.600009
 Sum of electronic and thermal Energies=              -807.581370
 Sum of electronic and thermal Enthalpies=            -807.580426
 Sum of electronic and thermal Free Energies=         -807.646554

                     E (Thermal)             CV                S
                      KCal/Mol        Cal/Mol-Kelvin    Cal/Mol-Kelvin
 Total                  246.760             71.693            139.179
 Electronic               0.000              0.000              0.000
 Translational            0.889              2.981             42.475
 Rotational               0.889              2.981             33.126
 Vibrational            244.983             65.731             63.578
 Vibration     1          0.593              1.984              5.964
 Vibration     2          0.595              1.979              5.005
 Vibration     3          0.597              1.973              4.400
 Vibration     4          0.600              1.962              3.874
 Vibration     5          0.603              1.953              3.575
 Vibration     6          0.605              1.947              3.403
 Vibration     7          0.609              1.934              3.124
 Vibration     8          0.620              1.898              2.616
 Vibration     9          0.625              1.880              2.445
 Vibration    10          0.633              1.855              2.239
 Vibration    11          0.637              1.842              2.146
 Vibration    12          0.647              1.811              1.963
 Vibration    13          0.660              1.770              1.763
 Vibration    14          0.668              1.748              1.670
 Vibration    15          0.670              1.739              1.637
 Vibration    16          0.693              1.674              1.417
 Vibration    17          0.703              1.643              1.331
 Vibration    18          0.705              1.638              1.317
 Vibration    19          0.716              1.606              1.237
 Vibration    20          0.722              1.588              1.195
 Vibration    21          0.754              1.503              1.021
 Vibration    22          0.767              1.468              0.960
 Vibration    23          0.801              1.381              0.824
 Vibration    24          0.809              1.361              0.796
 Vibration    25          0.824              1.323              0.746
 Vibration    26          0.869              1.218              0.623
 Vibration    27          0.885              1.183              0.586
 Vibration    28          0.924              1.101              0.508
 Vibration    29          0.960              1.027              0.446

                           ! Non-Optimized Parameters !
 Normal termination of Gaussian 16 at Fri Dec 11 22:41:58 2020.

 ----------------------------------------------------------------------
 # B3LYP/6-311++G(d,p) empiricaldispersion=gd3bj scf=xqc pop=npa geom=c
 heck
 ----------------------------------------------------------------------

 --------------------------------------
 CID_64969371_JID_8819_Energie_neutraal
 --------------------------------------
 Structure from the checkpoint file:  "JID_8819.chk"
 Charge =  0 Multiplicity = 1

 SCF Done:  E(RB3LYP) =  -808.201319189     A.U. after   16 cycles
 Normal termination of Gaussian 16 at Fri Dec 11 22:51:29 2020.

 ----------------------------------------------------------------------
 # B3LYP/6-311++G(d,p) empiricaldispersion=gd3bj scf=xqc pop=npa geom=c
 heck
 ----------------------------------------------------------------------

 ------------------------------------
 CID_64969371_JID_8819_Energie_kation
 ------------------------------------
 Structure from the checkpoint file:  "JID_8819.chk"
 Charge =  1 Multiplicity = 2

 SCF Done:  E(UB3LYP) =  -807.896734915     A.U. after   26 cycles
 Normal termination of Gaussian 16 at Fri Dec 11 23:12:01 2020.
 Gaussian 16:  ES64L-G16RevA.03 25-Dec-2016

 ----------------------------------------------------------------------
 # B3LYP/6-311++G(d,p) empiricaldispersion=gd3bj scf=xqc pop=npa geom=c
 heck
 ----------------------------------------------------------------------

 -----------------------------------
 CID_64969371_JID_8819_Energie_anion
 -----------------------------------
 Structure from the checkpoint file:  "JID_8819.chk"
 Charge = -1 Multiplicity = 2

                         Standard orientation:
 ---------------------------------------------------------------------
 Center     Atomic      Atomic             Coordinates (Angstroms)
 Number     Number       Type             X           Y           Z
 ---------------------------------------------------------------------
      1          6           0        3.602550   -0.404654    1.344083
      2          6           0        3.735155    0.129776   -0.086170
      3          6           0        3.011688   -0.662533   -1.189529
      4          6           0        1.489987   -0.841314   -1.072562
      5          6           0        0.748947    0.500590   -0.877835
      6          8           0        1.284586    1.572859   -1.143731
      7          7           0       -0.512769    0.380966   -0.359677
      8          6           0       -1.080978   -0.995448   -0.308780
      9          6           0       -0.104558   -1.807954    0.556126
     10          8           0       -0.376172   -2.385604    1.599344
     11          7           0        1.143560   -1.771496    0.007408
     12          6           0       -2.556994   -1.113449    0.087006
     13          6           0       -3.456651   -0.326739   -0.879271
     14          6           0       -2.980049   -2.592450    0.073971
     15          6           0       -1.119442    1.526366    0.319600
     16          6           0       -0.288426    2.356939    1.333609
     17          6           0       -1.059224    3.610749    0.837771
     18          6           0       -1.440426    2.833804   -0.451825
     19          1           0        2.581059   -0.308797    1.726458
     20          1           0        4.255849    0.156011    2.021438
     21          1           0        3.896008   -1.461254    1.416436
     22          1           0        3.387176    1.164782   -0.121980
     23          1           0        4.798409    0.147054   -0.358477
     24          1           0        3.198100   -0.159370   -2.143019
     25          1           0        3.445668   -1.668682   -1.276065
     26          1           0        1.141778   -1.266522   -2.028365
     27          1           0       -1.013912   -1.396360   -1.331250
     28          1           0        1.889771   -2.162118    0.566826
     29          1           0       -2.683844   -0.743800    1.111486
     30          1           0       -3.370957   -0.739457   -1.892281
     31          1           0       -4.504464   -0.417743   -0.573791
     32          1           0       -3.214026    0.736143   -0.937230
     33          1           0       -2.424439   -3.170887    0.811831
     34          1           0       -4.049597   -2.671747    0.296047
     35          1           0       -2.816557   -3.033368   -0.918306
     36          1           0       -2.014855    1.165480    0.820206
     37          1           0       -0.375782    2.073416    2.386781
     38          1           0        0.763030    2.403174    1.049782
     39          1           0       -0.479161    4.527585    0.708362
     40          1           0       -1.932417    3.831174    1.460336
     41          1           0       -0.713370    2.998608   -1.246648
     42          1           0       -2.455785    2.950250   -0.844779
 ---------------------------------------------------------------------

 SCF Done:  E(UB3LYP) =  -808.190811715     A.U. after   33 cycles
 SCF Done:  E(UB3LYP) =  -808.190811715     a.u. after    1 cycles

 The electronic state is 2-A.
 Alpha  occ. eigenvalues --  -19.00244 -18.99899 -14.25599 -14.24653 -10.18298
 Alpha  occ. eigenvalues --  -10.17945 -10.13251 -10.13085 -10.12432 -10.09614
 Alpha  occ. eigenvalues --  -10.08392 -10.08060 -10.07858 -10.07583 -10.07209
 Alpha  occ. eigenvalues --  -10.07137 -10.06947 -10.06486  -0.95752  -0.94682
 Alpha  occ. eigenvalues --   -0.86352  -0.83258  -0.75619  -0.72053  -0.70436
 Alpha  occ. eigenvalues --   -0.65057  -0.63039  -0.59841  -0.59242  -0.57420
 Alpha  occ. eigenvalues --   -0.55800  -0.52929  -0.49302  -0.48411  -0.47620
 Alpha  occ. eigenvalues --   -0.44463  -0.43347  -0.42483  -0.40920  -0.39405
 Alpha  occ. eigenvalues --   -0.38355  -0.36287  -0.35678  -0.34692  -0.34366
 Alpha  occ. eigenvalues --   -0.33619  -0.32768  -0.32102  -0.31731  -0.30859
 Alpha  occ. eigenvalues --   -0.30455  -0.29936  -0.29503  -0.29140  -0.28451
 Alpha  occ. eigenvalues --   -0.26634  -0.26140  -0.25611  -0.25220  -0.24977
 Alpha  occ. eigenvalues --   -0.24402  -0.24278  -0.24011  -0.23358  -0.22882
 Alpha  occ. eigenvalues --   -0.18847  -0.18262  -0.15079  -0.14457   0.04053
 Alpha virt. eigenvalues --    0.05734   0.06424   0.07268   0.07997   0.08087
 Alpha virt. eigenvalues --    0.08516   0.08601   0.08816   0.09725   0.09977
 Alpha virt. eigenvalues --    0.10651   0.10721   0.11072   0.11295   0.11678

  Beta  occ. eigenvalues --  -19.00242 -18.99876 -14.25594 -14.24643 -10.18294
  Beta  occ. eigenvalues --  -10.17909 -10.13235 -10.13071 -10.12423 -10.09610
  Beta  occ. eigenvalues --  -10.08386 -10.08032 -10.07854 -10.07569 -10.07199
  Beta  occ. eigenvalues --  -10.07117 -10.06915 -10.06469  -0.95723  -0.94650
  Beta  occ. eigenvalues --   -0.86324  -0.83235  -0.75604  -0.72030  -0.70397
  Beta  occ. eigenvalues --   -0.65010  -0.62999  -0.59794  -0.59188  -0.57398
  Beta  occ. eigenvalues --   -0.55761  -0.52895  -0.49241  -0.48371  -0.47577
  Beta  occ. eigenvalues --   -0.44433  -0.43313  -0.42427  -0.40874  -0.39377
  Beta  occ. eigenvalues --   -0.38303  -0.36259  -0.35658  -0.34655  -0.34335
  Beta  occ. eigenvalues --   -0.33585  -0.32741  -0.32056  -0.31680  -0.30823
  Beta  occ. eigenvalues --   -0.30432  -0.29911  -0.29475  -0.29109  -0.28417
  Beta  occ. eigenvalues --   -0.26561  -0.26102  -0.25592  -0.25190  -0.24943
  Beta  occ. eigenvalues --   -0.24372  -0.24244  -0.23970  -0.23330  -0.22867
  Beta  occ. eigenvalues --   -0.18825  -0.18234  -0.15047  -0.14408
  Beta virt. eigenvalues --    0.06060   0.06586   0.06935   0.07694   0.08307
  Beta virt. eigenvalues --    0.08495   0.08771   0.08815   0.09106   0.09852
  Beta virt. eigenvalues --    0.10213   0.10861   0.11110   0.11325   0.11561

 Mulliken charges and spin densities:
               1          2
     1  C    0.071181  -0.738447
     2  C   -0.494744   0.431478
     3  C    2.216293  -2.897047
     4  C    0.093469   0.843950
     5  C   -0.348576  -0.534365
     6  O   -0.284179   0.033111
     7  N    0.684133  -0.001922
     8  C    0.419837  -1.111670
     9  C    0.557792  -0.683885
    10  O   -0.316328   0.015776
    11  N   -0.095895  -0.075449
    12  C   -2.752196   2.954658
    13  C    0.713729  -1.239102
    14  C    0.067301  -0.739955
    15  C   -0.510711   0.290112
    16  C   -0.079981  -0.097773
    17  C   -0.173682  -0.219446
    18  C    0.075184  -0.302082
    19  H    0.045935   0.127959
    20  H   -0.050121   0.183502
    21  H   -0.057454   0.191137
    22  H    0.072832   0.114255
    23  H   -0.180442   0.342676
    24  H    0.076545   0.096019
    25  H   -0.506074   0.702507
    26  H   -0.854485   1.124949
    27  H    0.144464   0.124766
    28  H    0.312891   0.010927
    29  H   -0.022952   0.219012
    30  H   -0.145807   0.300703
    31  H   -0.467370   0.638165
    32  H    0.127401  -0.023735
    33  H    0.181485   0.001996
    34  H   -0.058540   0.208503
    35  H   -0.115024   0.258971
    36  H    0.228374  -0.025047
    37  H    0.080498   0.074896
    38  H    0.212891  -0.073971
    39  H    0.119641   0.041380
    40  H   -0.017881   0.137527
    41  H    0.124023   0.076551
    42  H   -0.093454   0.218409
 Sum of Mulliken charges =  -1.00000   1.00000

 Dipole moment (field-independent basis, Debye):
    X=             -0.6089    Y=              3.6797    Z=              3.5936  Tot=              5.1793
 Quadrupole moment (field-independent basis, Debye-Ang):
   XX=           -188.2075   YY=           -161.3672   ZZ=           -156.6213
   XY=              3.8471   XZ=              2.7626   YZ=             -0.8259

 Summary of Natural Population Analysis:

                                       Natural Population
                Natural  -----------------------------------------------
    Atom  No    Charge         Core      Valence    Rydberg      Total
 -----------------------------------------------------------------------
      C    1   -0.29126      0.99966     2.28665    0.00495     3.29126
      C    2   -0.19684      0.99963     2.18874    0.00848     3.19684
      C    3   -0.18892      0.99961     2.17865    0.01065     3.18892
      C    4   -0.05108      0.99955     2.03816    0.01337     3.05108
      C    5    0.35899      0.99962     1.61893    0.02246     2.64101
      O    6   -0.32240      0.99988     3.31736    0.00516     4.32240
      N    7   -0.25476      0.99961     2.74318    0.01198     3.75476
      C    8   -0.03779      0.99951     2.02532    0.01296     3.03779
      C    9    0.34725      0.99963     1.63038    0.02274     2.65275
      O   10   -0.32174      0.99987     3.31644    0.00542     4.32174
      N   11   -0.31823      0.99966     2.80793    0.01064     3.81823
      C   12   -0.11824      0.99961     2.10868    0.00995     3.11824
      C   13   -0.28586      0.99964     2.27991    0.00630     3.28586
      C   14   -0.28440      0.99964     2.27985    0.00491     3.28440
      C   15   -0.00842      0.99956     1.99477    0.01410     3.00842
      C   16   -0.19170      0.99962     2.18533    0.00675     3.19170
      C   17   -0.19031      0.99965     2.18384    0.00682     3.19031
      C   18   -0.19291      0.99962     2.18520    0.00809     3.19291
      H   19    0.09847      0.00000     0.40044    0.00109     0.40153
      H   20    0.09975      0.00000     0.39952    0.00073     0.40025
      H   21    0.09338      0.00000     0.40555    0.00107     0.40662
      H   22    0.10767      0.00000     0.39099    0.00134     0.39233
      H   23    0.09595      0.00000     0.40301    0.00104     0.40405
      H   24    0.11190      0.00000     0.38687    0.00124     0.38810
      H   25    0.10099      0.00000     0.39670    0.00230     0.39901
      H   26    0.11421      0.00000     0.38186    0.00392     0.38579
      H   27    0.10792      0.00000     0.38999    0.00210     0.39208
      H   28    0.19952      0.00000     0.29793    0.00255     0.30048
      H   29    0.10023      0.00000     0.39789    0.00188     0.39977
      H   30    0.10038      0.00000     0.39833    0.00129     0.39962
      H   31    0.10160      0.00000     0.39729    0.00112     0.39840
      H   32    0.10145      0.00000     0.39721    0.00134     0.39855
      H   33    0.11443      0.00000     0.38457    0.00100     0.38557
      H   34    0.09875      0.00000     0.40046    0.00079     0.40125
      H   35    0.09681      0.00000     0.40218    0.00101     0.40319
      H   36    0.10326      0.00000     0.39480    0.00194     0.39674
      H   37    0.09449      0.00000     0.40461    0.00090     0.40551
      H   38    0.10941      0.00000     0.38916    0.00143     0.39059
      H   39    0.09676      0.00000     0.40238    0.00086     0.40324
      H   40    0.09358      0.00000     0.40519    0.00123     0.40642
      H   41    0.11298      0.00000     0.38571    0.00130     0.38702
      H   42    0.09474      0.00000     0.40420    0.00106     0.40526
 =======================================================================
   * Total *   -0.00000     17.99357    50.78615    0.22028    69.00000

 Normal termination of Gaussian 16 at Fri Dec 11 23:38:24 2020.
