 Gaussian 16, Revision A.03,

 -----------------------------------------------------------
 # opt freq B3LYP/6-31G(d) empiricaldispersion=gd3bj scf=xqc
 -----------------------------------------------------------

 ------------------------------
 CID_149139586_JID_532_neutraal
 ------------------------------
 Symbolic Z-matrix:
 Charge =  0 Multiplicity = 1

 SCF Done:  E(RB3LYP) =  -406.751491945     A.U. after   13 cycles
 SCF Done:  E(RB3LYP) =  -406.755701349     A.U. after   10 cycles
 SCF Done:  E(RB3LYP) =  -406.756076919     A.U. after   10 cycles
 SCF Done:  E(RB3LYP) =  -406.756132234     A.U. after    9 cycles
 SCF Done:  E(RB3LYP) =  -406.756140054     A.U. after    8 cycles
 SCF Done:  E(RB3LYP) =  -406.756141177     A.U. after    7 cycles
 SCF Done:  E(RB3LYP) =  -406.756141322     A.U. after    6 cycles
 Optimization completed.
    -- Stationary point found.

 1\1\GINC-NODE372\FOpt\RB3LYP\6-31G(d)\C9H15N1\VSC10255\08-Dec-2020\0\\
 # opt freq B3LYP/6-31G(d) empiricaldispersion=gd3bj scf=xqc\\CID_14913
 9586_JID_532_neutraal\\0,1\C,1.0154337879,-0.0148686909,-0.0612287404\
 C,0.1913155149,0.9126393367,0.8202370278\C,0.9057874609,2.1421933217,1
 .4566726945\C,-0.3258543454,3.0180087484,1.0933485689\C,-0.8239569429,
 1.8827357993,0.1456231365\C,-2.2461767963,1.461417493,0.579785162\C,-2
 .7016461766,2.5945134453,1.527571585\C,-1.4178444744,3.1447535541,2.18
 10695742\C,-2.006395483,0.0973730548,1.2569527589\N,-0.6501228326,0.20

 Normal termination of Gaussian 16 at Tue Dec  8 12:09:55 2020.

 --------------------------------------------------------------------
 #N Geom=AllCheck Guess=TCheck SCRF=Check GenChk RB3LYP/6-31G(d) Freq
 --------------------------------------------------------------------

 Structure from the checkpoint file:  "JID_532.chk"
 ------------------------------
 CID_149139586_JID_532_neutraal
 ------------------------------
 Charge =  0 Multiplicity = 1

 SCF Done:  E(RB3LYP) =  -406.756141322     A.U. after    1 cycles

  Exact polarizability:  99.632  -1.304  94.269  -0.353  -0.348  81.369
 Approx polarizability: 129.049  -2.249 131.657  -1.144  -1.584 126.355

                      1                      2                      3
                      A                      A                      A
 Frequencies --    146.3516               168.7281               217.4184
 Red. masses --      2.2103                 2.4630                 2.1962
 Frc consts  --      0.0279                 0.0413                 0.0612
 IR Inten    --      0.6089                 0.9406                 0.0320

                      4                      5                      6
                      A                      A                      A
 Frequencies --    252.8059               317.4185               363.2943
 Red. masses --      1.0866                 2.6041                 2.2693
 Frc consts  --      0.0409                 0.1546                 0.1765
 IR Inten    --      0.0471                 0.1935                 4.4792

                      7                      8                      9
                      A                      A                      A
 Frequencies --    385.5220               418.2962               516.2055
 Red. masses --      2.0587                 1.8128                 2.9918
 Frc consts  --      0.1803                 0.1869                 0.4697
 IR Inten    --      4.0577                 1.1136                 2.4844

                     10                     11                     12
                      A                      A                      A
 Frequencies --    546.8427               604.1026               663.8176
 Red. masses --      2.5439                 3.3009                 3.0608
 Frc consts  --      0.4482                 0.7098                 0.7947
 IR Inten    --     16.3431                14.8404                 1.9872

                     13                     14                     15
                      A                      A                      A
 Frequencies --    722.0563               787.3811               814.0683
 Red. masses --      2.4757                 2.5849                 1.9492
 Frc consts  --      0.7605                 0.9442                 0.7611
 IR Inten    --     32.6556                 0.3896                 2.5366

                     16                     17                     18
                      A                      A                      A
 Frequencies --    830.2256               837.9283               874.0255
 Red. masses --      2.7669                 3.7027                 2.1392
 Frc consts  --      1.1237                 1.5317                 0.9628
 IR Inten    --      1.3296                 9.7430                 5.2070

                     19                     20                     21
                      A                      A                      A
 Frequencies --    908.4097               929.2184               944.9196
 Red. masses --      1.9914                 1.8900                 1.8615
 Frc consts  --      0.9682                 0.9615                 0.9793
 IR Inten    --     10.2256                 1.7394                 1.8133

                     22                     23                     24
                      A                      A                      A
 Frequencies --    959.1143               970.7367               991.4077
 Red. masses --      2.0573                 1.7272                 1.6330
 Frc consts  --      1.1150                 0.9589                 0.9457
 IR Inten    --      0.3215                 0.4549                 0.8602

                     25                     26                     27
                      A                      A                      A
 Frequencies --    993.4124              1028.8153              1053.8011
 Red. masses --      1.8048                 1.6923                 1.6720
 Frc consts  --      1.0494                 1.0554                 1.0940
 IR Inten    --      4.1609                 1.1652                 1.4684

                     28                     29                     30
                      A                      A                      A
 Frequencies --   1075.0451              1111.3236              1147.9544
 Red. masses --      1.5795                 1.8795                 2.0605
 Frc consts  --      1.0756                 1.3677                 1.5998
 IR Inten    --      4.9572                 6.3817                 4.5859

                     31                     32                     33
                      A                      A                      A
 Frequencies --   1154.0555              1166.0033              1199.5967
 Red. masses --      1.4045                 1.9624                 1.6097
 Frc consts  --      1.1021                 1.5720                 1.3648
 IR Inten    --      1.6888                 2.4878                 0.1089

                     34                     35                     36
                      A                      A                      A
 Frequencies --   1214.0700              1225.0467              1241.5046
 Red. masses --      1.5288                 1.6330                 1.5455
 Frc consts  --      1.3277                 1.4439                 1.4035
 IR Inten    --      5.0442                 6.7739                 1.9111

                     37                     38                     39
                      A                      A                      A
 Frequencies --   1247.3776              1272.5419              1284.4511
 Red. masses --      1.7691                 1.7011                 1.5096
 Frc consts  --      1.6218                 1.6230                 1.4674
 IR Inten    --     13.9091                17.4344                 1.4611

                     40                     41                     42
                      A                      A                      A
 Frequencies --   1301.9899              1316.9797              1325.4954
 Red. masses --      1.5421                 1.7101                 1.3632
 Frc consts  --      1.5402                 1.7476                 1.4111
 IR Inten    --      4.6701                 5.6057                 4.5074

                     43                     44                     45
                      A                      A                      A
 Frequencies --   1345.4195              1368.1951              1377.0526
 Red. masses --      1.5205                 1.3544                 1.3501
 Frc consts  --      1.6216                 1.4939                 1.5084
 IR Inten    --      0.5668                 3.0818                 2.2749

                     46                     47                     48
                      A                      A                      A
 Frequencies --   1388.7448              1432.5419              1460.2794
 Red. masses --      1.5418                 1.2770                 1.4337
 Frc consts  --      1.7520                 1.5440                 1.8012
 IR Inten    --     10.0954                 4.1774                11.4564

                     49                     50                     51
                      A                      A                      A
 Frequencies --   1504.6158              1515.0457              1520.4320
 Red. masses --      1.1226                 1.0869                 1.0539
 Frc consts  --      1.4974                 1.4699                 1.4355
 IR Inten    --      0.2908                 3.2454                 2.0874

                     52                     53                     54
                      A                      A                      A
 Frequencies --   1525.4032              1528.3550              1549.6546
 Red. masses --      1.0549                 1.0997                 1.0927
 Frc consts  --      1.4463                 1.5135                 1.5461
 IR Inten    --      2.2489                 3.9286                 0.8592

                     55                     56                     57
                      A                      A                      A
 Frequencies --   2941.3081              3029.7482              3039.0381
 Red. masses --      1.0742                 1.0360                 1.0646
 Frc consts  --      5.4754                 5.6030                 5.7931
 IR Inten    --     95.9654                31.6679                31.3040

                     58                     59                     60
                      A                      A                      A
 Frequencies --   3060.9238              3065.5289              3066.2650
 Red. masses --      1.0610                 1.0828                 1.0726
 Frc consts  --      5.8571                 5.9951                 5.9416
 IR Inten    --     39.5362                49.6196                18.2230

                     61                     62                     63
                      A                      A                      A
 Frequencies --   3081.4223              3082.5530              3087.6941
 Red. masses --      1.0883                 1.0850                 1.0957
 Frc consts  --      6.0884                 6.0745                 6.1546
 IR Inten    --     83.0804                24.2413                39.0868

                     64                     65                     66
                      A                      A                      A
 Frequencies --   3091.8291              3105.1830              3115.3225
 Red. masses --      1.1015                 1.1013                 1.0896
 Frc consts  --      6.2037                 6.2564                 6.2307
 IR Inten    --     28.5143                22.8563                25.7679

                     67                     68                     69
                      A                      A                      A
 Frequencies --   3117.6734              3123.4655              3512.7626
 Red. masses --      1.1064                 1.1027                 1.0750
 Frc consts  --      6.3362                 6.3386                 7.8151
 IR Inten    --     13.7459                77.8131                 0.8409

 - Thermochemistry -
 -------------------
 Temperature   298.150 Kelvin.  Pressure   1.00000 Atm.
 Atom     1 has atomic number  6 and mass  12.00000

 Molecular mass:   137.12045 amu.
 Principal axes and moments of inertia in atomic units:
                           1         2         3
     Eigenvalues --   830.323551225.647771600.68481
           X            0.99995  -0.00052   0.00989
           Y            0.00045   0.99998   0.00645
           Z           -0.00989  -0.00645   0.99993
 This molecule is an asymmetric top.
 Rotational symmetry number  1.
 Warning -- assumption of classical behavior for rotation
           may cause significant error
 Rotational temperatures (Kelvin)      0.10431     0.07067     0.05411
 Rotational constants (GHZ):           2.17354     1.47248     1.12748
 Zero-point vibrational energy     601519.6 (Joules/Mol)
                                  143.76662 (Kcal/Mol)
 Warning -- explicit consideration of  11 degrees of freedom as
           vibrations may cause significant error
 Vibrational temperatures:    210.57   242.76   312.82   363.73   456.69
          (Kelvin)            522.70   554.68   601.83   742.70   786.78
                              869.17   955.09  1038.88  1132.87  1171.26
                             1194.51  1205.59  1257.53  1307.00  1336.94
                             1359.53  1379.95  1396.67  1426.41  1429.30
                             1480.24  1516.18  1546.75  1598.95  1651.65
                             1660.43  1677.62  1725.95  1746.78  1762.57
                             1786.25  1794.70  1830.90  1848.04  1873.27
                             1894.84  1907.09  1935.76  1968.53  1981.27
                             1998.09  2061.11  2101.02  2164.81  2179.81
                             2187.56  2194.71  2198.96  2229.61  4231.89
                             4359.13  4372.50  4403.99  4410.61  4411.67
                             4433.48  4435.11  4442.50  4448.45  4467.67
                             4482.25  4485.64  4493.97  5054.08

 Zero-point correction=                           0.229107 (Hartree/Particle)
 Thermal correction to Energy=                    0.237412
 Thermal correction to Enthalpy=                  0.238356
 Thermal correction to Gibbs Free Energy=         0.196715
 Sum of electronic and zero-point Energies=           -406.527035
 Sum of electronic and thermal Energies=              -406.518730
 Sum of electronic and thermal Enthalpies=            -406.517785
 Sum of electronic and thermal Free Energies=         -406.559426

                     E (Thermal)             CV                S
                      KCal/Mol        Cal/Mol-Kelvin    Cal/Mol-Kelvin
 Total                  148.978             35.239             87.640
 Electronic               0.000              0.000              0.000
 Translational            0.889              2.981             40.659
 Rotational               0.889              2.981             28.878
 Vibrational            147.201             29.277             18.102
 Vibration     1          0.617              1.907              2.719
 Vibration     2          0.625              1.881              2.450
 Vibration     3          0.646              1.815              1.980
 Vibration     4          0.664              1.758              1.711
 Vibration     5          0.704              1.640              1.323
 Vibration     6          0.737              1.548              1.108
 Vibration     7          0.754              1.501              1.017
 Vibration     8          0.781              1.430              0.898
 Vibration     9          0.871              1.214              0.619
 Vibration    10          0.902              1.147              0.551
 Vibration    11          0.963              1.023              0.443

 Optimization completed.
    -- Stationary point found.

 1\1\GINC-NODE372\Freq\RB3LYP\6-31G(d)\C9H15N1\VSC10255\08-Dec-2020\0\\
 #N Geom=AllCheck Guess=TCheck SCRF=Check GenChk RB3LYP/6-31G(d) Freq\\
 CID_149139586_JID_532_neutraal\\0,1\C,1.0154337879,-0.0148686909,-0.06
 12287404\C,0.1913155149,0.9126393367,0.8202370278\C,0.9057874609,2.142
 1933217,1.4566726945\C,-0.3258543454,3.0180087484,1.0933485689\C,-0.82
 39569429,1.8827357993,0.1456231365\C,-2.2461767963,1.461417493,0.57978
 5162\C,-2.7016461766,2.5945134453,1.527571585\C,-1.4178444744,3.144753
 5541,2.1810695742\C,-2.006395483,0.0973730548,1.2569527589\N,-0.650122

 Normal termination of Gaussian 16 at Tue Dec  8 12:15:24 2020.

 ----------------------------------------------------------------------
 # B3LYP/6-311++G(d,p) empiricaldispersion=gd3bj scf=xqc pop=npa geom=c
 heck
 ----------------------------------------------------------------------

 --------------------------------------
 CID_149139586_JID_532_Energie_neutraal
 --------------------------------------
 Structure from the checkpoint file:  "JID_532.chk"
 Charge =  0 Multiplicity = 1

 SCF Done:  E(RB3LYP) =  -406.865135412     A.U. after   13 cycles
 Normal termination of Gaussian 16 at Tue Dec  8 12:19:18 2020.

 ----------------------------------------------------------------------
 # B3LYP/6-311++G(d,p) empiricaldispersion=gd3bj scf=xqc pop=npa geom=c
 heck
 ----------------------------------------------------------------------

 ------------------------------------
 CID_149139586_JID_532_Energie_kation
 ------------------------------------
 Structure from the checkpoint file:  "JID_532.chk"
 Charge =  1 Multiplicity = 2

 SCF Done:  E(UB3LYP) =  -406.568946149     A.U. after   17 cycles
 Normal termination of Gaussian 16 at Tue Dec  8 12:25:34 2020.
 Gaussian 16:  ES64L-G16RevA.03 25-Dec-2016

 -----------------------------------
 CID_149139586_JID_532_Energie_anion
 -----------------------------------
 Structure from the checkpoint file:  "JID_532.chk"
 Charge = -1 Multiplicity = 2

                         Standard orientation:
 ---------------------------------------------------------------------
 Center     Atomic      Atomic             Coordinates (Angstroms)
 Number     Number       Type             X           Y           Z
 ---------------------------------------------------------------------
      1          6           0        2.594457    0.101274    0.409030
      2          6           0        1.170906   -0.155248   -0.064385
      3          6           0        0.789088   -1.607565   -0.479495
      4          6           0       -0.553235   -1.450469    0.288287
      5          6           0        0.023175   -0.180715    0.988723
      6          6           0       -0.914109    1.014038    0.701008
      7          6           0       -2.203421    0.358287    0.155733
      8          6           0       -1.757548   -0.944075   -0.539263
      9          6           0       -0.112378    1.837146   -0.326799
     10          7           0        0.680198    0.832075   -1.044542
     11          1           0        2.891808   -0.613391    1.185101
     12          1           0        2.692234    1.111944    0.825526
     13          1           0        3.307948    0.004757   -0.420298
     14          1           0        1.445318   -2.351251   -0.013856
     15          1           0        0.731290   -1.798256   -1.555339
     16          1           0       -0.825775   -2.284100    0.942614
     17          1           0        0.344811   -0.300213    2.025808
     18          1           0       -1.128574    1.623758    1.584362
     19          1           0       -2.767976    1.023700   -0.507948
     20          1           0       -2.858068    0.117997    1.003852
     21          1           0       -2.565628   -1.682190   -0.592909
     22          1           0       -1.438991   -0.725555   -1.561998
     23          1           0       -0.755866    2.384155   -1.026553
     24          1           0        0.504935    2.583513    0.207028
     25          1           0        1.439533    1.244569   -1.580631
 ---------------------------------------------------------------------

 SCF Done:  E(UB3LYP) =  -406.847430827     A.U. after   27 cycles

 The electronic state is 2-A.
 Alpha  occ. eigenvalues --  -14.17880 -10.08714 -10.07501 -10.05571 -10.05514
 Alpha  occ. eigenvalues --  -10.05077 -10.04994 -10.04734 -10.04728 -10.04589
 Alpha  occ. eigenvalues --   -0.81476  -0.71904  -0.67661  -0.60879  -0.59962
 Alpha  occ. eigenvalues --   -0.53756  -0.52801  -0.46798  -0.44368  -0.40845
 Alpha  occ. eigenvalues --   -0.38858  -0.36238  -0.33883  -0.33049  -0.31724
 Alpha  occ. eigenvalues --   -0.30900  -0.29761  -0.27874  -0.27080  -0.25377
 Alpha  occ. eigenvalues --   -0.22826  -0.21859  -0.21245  -0.20828  -0.19724
 Alpha  occ. eigenvalues --   -0.18118  -0.17646  -0.10823   0.04918
 Alpha virt. eigenvalues --    0.07398   0.07794   0.08377   0.09899   0.10088
 Alpha virt. eigenvalues --    0.10300   0.10641   0.10925   0.12396   0.12782
 Alpha virt. eigenvalues --    0.13168   0.13769   0.14281   0.14985   0.16066

  Beta  occ. eigenvalues --  -14.17860 -10.08716 -10.07477 -10.05561 -10.05503
  Beta  occ. eigenvalues --  -10.05061 -10.04975 -10.04722 -10.04719 -10.04547
  Beta  occ. eigenvalues --   -0.81450  -0.71873  -0.67631  -0.60836  -0.59909
  Beta  occ. eigenvalues --   -0.53704  -0.52751  -0.46752  -0.44326  -0.40784
  Beta  occ. eigenvalues --   -0.38790  -0.36195  -0.33852  -0.32999  -0.31685
  Beta  occ. eigenvalues --   -0.30865  -0.29729  -0.27837  -0.27035  -0.25339
  Beta  occ. eigenvalues --   -0.22793  -0.21828  -0.21212  -0.20795  -0.19695
  Beta  occ. eigenvalues --   -0.18091  -0.17609  -0.10788
  Beta virt. eigenvalues --    0.07318   0.08325   0.08552   0.09079   0.10434
  Beta virt. eigenvalues --    0.10684   0.10992   0.11104   0.11477   0.12976
  Beta virt. eigenvalues --    0.13327   0.13542   0.14251   0.14591   0.15340

 Mulliken charges and spin densities:
               1          2
     1  C    3.245746  -3.633074
     2  C   -2.882014   2.831525
     3  C   -0.047165  -0.771495
     4  C    0.037928   0.474943
     5  C    0.957193  -1.256879
     6  C   -0.924052   1.144798
     7  C    0.973599  -1.513796
     8  C   -0.580336   0.027670
     9  C    1.587040  -2.034454
    10  N   -0.285417   0.215417
    11  H   -0.227941   0.380065
    12  H   -0.217017   0.364149
    13  H   -0.347730   0.479501
    14  H   -0.271704   0.383057
    15  H    0.110529   0.009674
    16  H   -0.184439   0.406524
    17  H   -0.604323   0.851932
    18  H   -0.508874   0.719864
    19  H   -0.016454   0.126347
    20  H   -0.254800   0.390338
    21  H   -0.258586   0.397751
    22  H    0.111411   0.061570
    23  H   -0.125373   0.280013
    24  H   -0.309482   0.444342
    25  H    0.022261   0.220220
 Sum of Mulliken charges =  -1.00000   1.00000

 Dipole moment (field-independent basis, Debye):
    X=             -1.3626    Y=             -1.1967    Z=             -3.5187  Tot=              3.9585
 Quadrupole moment (field-independent basis, Debye-Ang):
   XX=           -113.0032   YY=           -103.4954   ZZ=           -100.2948
   XY=             -2.9080   XZ=              0.6563   YZ=              0.5157

 Summary of Natural Population Analysis:

                                       Natural Population
                Natural  -----------------------------------------------
    Atom  No    Charge         Core      Valence    Rydberg      Total
 -----------------------------------------------------------------------
      C    1   -0.29163      0.99960     2.28529    0.00674     3.29163
      C    2    0.06448      0.99955     1.92097    0.01500     2.93552
      C    3   -0.18340      0.99958     2.17485    0.00898     3.18340
      C    4   -0.10743      0.99960     2.09604    0.01178     3.10743
      C    5   -0.09940      0.99955     2.08708    0.01277     3.09940
      C    6   -0.11747      0.99959     2.10539    0.01250     3.11747
      C    7   -0.18513      0.99962     2.17701    0.00850     3.18513
      C    8   -0.19457      0.99962     2.18597    0.00897     3.19457
      C    9   -0.08278      0.99961     2.07140    0.01177     3.08278
      N   10   -0.35203      0.99972     2.84084    0.01147     3.85203
      H   11    0.10223      0.00000     0.39616    0.00161     0.39777
      H   12    0.10263      0.00000     0.39568    0.00169     0.39737
      H   13    0.09770      0.00000     0.40098    0.00132     0.40230
      H   14    0.09715      0.00000     0.40168    0.00117     0.40285
      H   15    0.09620      0.00000     0.40266    0.00114     0.40380
      H   16    0.09733      0.00000     0.40138    0.00129     0.40267
      H   17    0.11031      0.00000     0.38713    0.00256     0.38969
      H   18    0.10473      0.00000     0.39337    0.00190     0.39527
      H   19    0.09599      0.00000     0.40301    0.00100     0.40401
      H   20    0.09645      0.00000     0.40198    0.00157     0.40355
      H   21    0.09660      0.00000     0.40238    0.00101     0.40340
      H   22    0.10167      0.00000     0.39670    0.00164     0.39833
      H   23    0.09041      0.00000     0.40836    0.00122     0.40959
      H   24    0.08264      0.00000     0.41517    0.00219     0.41736
      H   25    0.17730      0.00000     0.32005    0.00264     0.32270
 =======================================================================
   * Total *   -0.00000      9.99604    27.87151    0.13245    38.00000

 Normal termination of Gaussian 16 at Tue Dec  8 12:40:04 2020.
