 Gaussian 16, Revision A.03,

 -----------------------------------------------------------
 # opt freq B3LYP/6-31G(d) empiricaldispersion=gd3bj scf=xqc
 -----------------------------------------------------------

 --------------------------------
 CID_105682817_JID_10109_neutraal
 --------------------------------
 Symbolic Z-matrix:
 Charge =  0 Multiplicity = 1

 SCF Done:  E(RB3LYP) =  -1255.22301402     A.U. after   14 cycles
 SCF Done:  E(RB3LYP) =  -1255.23551480     A.U. after   13 cycles
 SCF Done:  E(RB3LYP) =  -1255.23775525     A.U. after   12 cycles
 SCF Done:  E(RB3LYP) =  -1255.23911257     A.U. after   12 cycles
 SCF Done:  E(RB3LYP) =  -1255.24062203     A.U. after   12 cycles
 SCF Done:  E(RB3LYP) =  -1255.24233870     A.U. after   12 cycles
 SCF Done:  E(RB3LYP) =  -1255.24440737     A.U. after   15 cycles
 SCF Done:  E(RB3LYP) =  -1255.24662665     A.U. after   11 cycles
 SCF Done:  E(RB3LYP) =  -1255.24829355     A.U. after   11 cycles
 SCF Done:  E(RB3LYP) =  -1255.24910160     A.U. after   12 cycles
 SCF Done:  E(RB3LYP) =  -1255.26151714     A.U. after   10 cycles
 SCF Done:  E(RB3LYP) =  -1255.26151776     A.U. after    9 cycles
 SCF Done:  E(RB3LYP) =  -1255.26151786     A.U. after    9 cycles
 SCF Done:  E(RB3LYP) =  -1255.26151795     A.U. after    9 cycles
 SCF Done:  E(RB3LYP) =  -1255.26151807     A.U. after    9 cycles
 Optimization completed.
    -- Stationary point found.
 Normal termination of Gaussian 16 at Sun Dec 13 21:15:29 2020.

 --------------------------------------------------------------------
 #N Geom=AllCheck Guess=TCheck SCRF=Check GenChk RB3LYP/6-31G(d) Freq
 --------------------------------------------------------------------

 Structure from the checkpoint file:  "JID_10109.chk"
 --------------------------------
 CID_105682817_JID_10109_neutraal
 --------------------------------
 Charge =  0 Multiplicity = 1

 SCF Done:  E(RB3LYP) =  -1255.26151807     A.U. after    1 cycles

  Exact polarizability: 215.524   6.316 223.716 -35.404  -2.150 136.093
 Approx polarizability: 301.423  10.655 351.551 -78.444  -1.241 227.898

                      1                      2                      3
                      A                      A                      A
 Frequencies --      8.4612                24.4921                34.5859
 Red. masses --      4.5940                 5.7585                 2.6577
 Frc consts  --      0.0002                 0.0020                 0.0019
 IR Inten    --      0.5169                 0.0992                 0.4923

                      4                      5                      6
                      A                      A                      A
 Frequencies --     41.6484                71.7579                80.5094
 Red. masses --      4.5623                 4.2995                 3.9034
 Frc consts  --      0.0047                 0.0130                 0.0149
 IR Inten    --      0.4182                 1.3698                 0.4589

                      7                      8                      9
                      A                      A                      A
 Frequencies --     96.6089               130.0482               139.1481
 Red. masses --      5.0848                 3.2405                 3.9163
 Frc consts  --      0.0280                 0.0323                 0.0447
 IR Inten    --      1.5514                 0.5232                 4.1318

                     10                     11                     12
                      A                      A                      A
 Frequencies --    160.8841               184.6974               207.0650
 Red. masses --      2.9394                 5.0848                 1.3504
 Frc consts  --      0.0448                 0.1022                 0.0341
 IR Inten    --      1.3773                 4.1774                22.1630

                     13                     14                     15
                      A                      A                      A
 Frequencies --    219.7737               228.2006               242.0157
 Red. masses --      1.1136                 3.5872                 1.1424
 Frc consts  --      0.0317                 0.1101                 0.0394
 IR Inten    --      0.1337                 4.0222                 0.8193

                     16                     17                     18
                      A                      A                      A
 Frequencies --    248.2104               258.0399               272.9651
 Red. masses --      3.0738                 2.4961                 3.5268
 Frc consts  --      0.1116                 0.0979                 0.1548
 IR Inten    --      6.6391                 2.7434                 8.5805

                     19                     20                     21
                      A                      A                      A
 Frequencies --    308.5208               319.6622               331.8268
 Red. masses --      3.9705                 3.5134                 2.9198
 Frc consts  --      0.2227                 0.2115                 0.1894
 IR Inten    --      1.1421                 2.4287                 2.5238

                     22                     23                     24
                      A                      A                      A
 Frequencies --    366.5688               377.0248               408.7924
 Red. masses --      3.5373                 2.8861                 2.5923
 Frc consts  --      0.2800                 0.2417                 0.2552
 IR Inten    --      9.0598                 7.1919                 0.4820

                     25                     26                     27
                      A                      A                      A
 Frequencies --    437.7328               448.9141               475.5511
 Red. masses --      1.8125                 9.3419                 4.6009
 Frc consts  --      0.2046                 1.1092                 0.6130
 IR Inten    --      4.1289                 1.5341                53.6173

                     28                     29                     30
                      A                      A                      A
 Frequencies --    515.8893               531.4591               537.1017
 Red. masses --      4.2864                 3.5094                 1.7691
 Frc consts  --      0.6721                 0.5840                 0.3007
 IR Inten    --      2.3900                21.9285               114.3991

                     31                     32                     33
                      A                      A                      A
 Frequencies --    598.0198               613.7293               633.8579
 Red. masses --      3.0583                 3.6528                 3.5638
 Frc consts  --      0.6444                 0.8106                 0.8436
 IR Inten    --     70.4234                 7.8843                 2.8657

                     34                     35                     36
                      A                      A                      A
 Frequencies --    654.5477               696.9680               715.1574
 Red. masses --      2.0477                 2.3971                 2.6027
 Frc consts  --      0.5169                 0.6861                 0.7843
 IR Inten    --     29.2951                55.8389                45.1457

                     37                     38                     39
                      A                      A                      A
 Frequencies --    734.4548               749.1379               777.1400
 Red. masses --      4.9896                 2.3050                 1.4787
 Frc consts  --      1.5858                 0.7622                 0.5262
 IR Inten    --     28.5857                58.1817                17.8279

                     40                     41                     42
                      A                      A                      A
 Frequencies --    793.7327               799.0060               829.7820
 Red. masses --      5.9568                 8.2782                 2.6640
 Frc consts  --      2.2111                 3.1138                 1.0807
 IR Inten    --     12.5791                 9.8768                 1.8130

                     43                     44                     45
                      A                      A                      A
 Frequencies --    870.8527               875.8605               878.6341
 Red. masses --      3.0004                 2.4535                 1.6548
 Frc consts  --      1.3407                 1.1090                 0.7527
 IR Inten    --      2.6119                 8.8607                11.5054

                     46                     47                     48
                      A                      A                      A
 Frequencies --    912.3193               938.7791               944.9729
 Red. masses --      1.8053                 3.0540                 1.2623
 Frc consts  --      0.8853                 1.5858                 0.6642
 IR Inten    --     13.7245                65.1007                 2.8085

                     49                     50                     51
                      A                      A                      A
 Frequencies --    955.6822               963.7563               970.1257
 Red. masses --      2.0118                 1.5834                 2.5205
 Frc consts  --      1.0826                 0.8665                 1.3976
 IR Inten    --     43.7957                 0.7506                17.5704

                     52                     53                     54
                      A                      A                      A
 Frequencies --    985.0208              1025.9190              1060.1751
 Red. masses --      1.5477                 2.1458                 2.6119
 Frc consts  --      0.8848                 1.3307                 1.7296
 IR Inten    --      2.9892                37.6554                22.0878

                     55                     56                     57
                      A                      A                      A
 Frequencies --   1069.1253              1121.2047              1138.9495
 Red. masses --      2.5844                 1.9547                 1.3754
 Frc consts  --      1.7405                 1.4478                 1.0512
 IR Inten    --     17.5975                36.1354                35.7347

                     58                     59                     60
                      A                      A                      A
 Frequencies --   1148.6440              1165.2309              1171.7260
 Red. masses --      2.9162                 3.3300                 2.7599
 Frc consts  --      2.2669                 2.6639                 2.2325
 IR Inten    --     76.4714                80.7406                 7.6319

                     61                     62                     63
                      A                      A                      A
 Frequencies --   1205.6629              1212.2943              1216.0048
 Red. masses --      2.0373                 1.8798                 2.1631
 Frc consts  --      1.7448                 1.6277                 1.8845
 IR Inten    --      0.4518                 1.0249                 5.7023

                     64                     65                     66
                      A                      A                      A
 Frequencies --   1261.6900              1264.7600              1272.9434
 Red. masses --      1.6030                 1.4449                 1.4717
 Frc consts  --      1.5034                 1.3618                 1.4050
 IR Inten    --     41.5295                14.8844                21.2332

                     67                     68                     69
                      A                      A                      A
 Frequencies --   1318.4688              1328.7410              1338.1000
 Red. masses --      1.3644                 1.2164                 3.3080
 Frc consts  --      1.3974                 1.2653                 3.4897
 IR Inten    --     14.8828                 4.6218                14.4832

                     70                     71                     72
                      A                      A                      A
 Frequencies --   1347.8585              1356.7254              1362.0910
 Red. masses --      3.3881                 1.3470                 1.8580
 Frc consts  --      3.6266                 1.4609                 2.0310
 IR Inten    --     16.0724                 1.9449                21.6034

                     73                     74                     75
                      A                      A                      A
 Frequencies --   1381.7492              1390.4276              1394.4588
 Red. masses --      1.3532                 1.4607                 1.4054
 Frc consts  --      1.5222                 1.6638                 1.6102
 IR Inten    --     27.4403                57.7794                 8.8401

                     76                     77                     78
                      A                      A                      A
 Frequencies --   1406.4044              1421.5847              1426.6652
 Red. masses --      1.4573                 1.5776                 1.2883
 Frc consts  --      1.6984                 1.8784                 1.5449
 IR Inten    --      1.3017                16.1804                 8.2875

                     79                     80                     81
                      A                      A                      A
 Frequencies --   1431.8680              1448.1341              1459.9658
 Red. masses --      1.3223                 1.2770                 1.3308
 Frc consts  --      1.5973                 1.5779                 1.6713
 IR Inten    --      2.6234                19.0284                23.0758

                     82                     83                     84
                      A                      A                      A
 Frequencies --   1478.5823              1505.9002              1511.1625
 Red. masses --      2.0158                 2.3648                 1.0877
 Frc consts  --      2.5965                 3.1596                 1.4635
 IR Inten    --    152.0706               189.4421                 5.4470

                     85                     86                     87
                      A                      A                      A
 Frequencies --   1515.6229              1518.9421              1527.1344
 Red. masses --      1.0769                 1.0446                 1.0685
 Frc consts  --      1.4575                 1.4200                 1.4682
 IR Inten    --      1.8314                 0.0524                 2.7998

                     88                     89                     90
                      A                      A                      A
 Frequencies --   1530.8483              1534.2271              1540.5586
 Red. masses --      1.4305                 1.0474                 1.0580
 Frc consts  --      1.9751                 1.4526                 1.4795
 IR Inten    --     86.1008                 5.5347                 9.3834

                     91                     92                     93
                      A                      A                      A
 Frequencies --   1552.5125              1556.2183              1581.3940
 Red. masses --      3.9009                 1.1473                 3.3160
 Frc consts  --      5.5396                 1.6370                 4.8859
 IR Inten    --    116.3096                11.1075               244.8660

                     94                     95                     96
                      A                      A                      A
 Frequencies --   1603.9684              1627.1989              1747.6757
 Red. masses --      5.4906                 4.2795                 1.0639
 Frc consts  --      8.3226                 6.6761                 1.9145
 IR Inten    --    491.1303               384.7615                31.5418

                     97                     98                     99
                      A                      A                      A
 Frequencies --   2992.3045              3010.5068              3026.7166
 Red. masses --      1.0675                 1.0590                 1.0802
 Frc consts  --      5.6318                 5.6550                 5.8303
 IR Inten    --     38.9771                16.9799                18.6520

                    100                    101                    102
                      A                      A                      A
 Frequencies --   3039.6257              3042.0811              3045.4030
 Red. masses --      1.0370                 1.0959                 1.0417
 Frc consts  --      5.6448                 5.9756                 5.6920
 IR Inten    --     25.1560                33.3445                18.7268

                    103                    104                    105
                      A                      A                      A
 Frequencies --   3061.5068              3078.6467              3092.0121
 Red. masses --      1.0669                 1.0961                 1.0665
 Frc consts  --      5.8920                 6.1211                 6.0077
 IR Inten    --     39.4277                39.0255                34.5973

                    106                    107                    108
                      A                      A                      A
 Frequencies --   3101.6056              3102.7395              3108.7384
 Red. masses --      1.1024                 1.1009                 1.1005
 Frc consts  --      6.2482                 6.2442                 6.2662
 IR Inten    --     31.8135                18.2144                59.9024

                    109                    110                    111
                      A                      A                      A
 Frequencies --   3116.5711              3131.2575              3145.1313
 Red. masses --      1.1018                 1.1012                 1.1004
 Frc consts  --      6.3052                 6.3613                 6.4130
 IR Inten    --     40.6887                29.4157                25.9226

                    112                    113                    114
                      A                      A                      A
 Frequencies --   3250.6166              3273.9267              3428.5609
 Red. masses --      1.0874                 1.0990                 1.0495
 Frc consts  --      6.7698                 6.9406                 7.2687
 IR Inten    --      6.0072                 3.2999                 6.3614

                    115                    116                    117
                      A                      A                      A
 Frequencies --   3505.9759              3579.5572              3622.1938
 Red. masses --      1.0920                 1.0747                 1.0774
 Frc consts  --      7.9085                 8.1130                 8.3287
 IR Inten    --      0.3395                34.8871                54.8109

 - Thermochemistry -
 -------------------
 Temperature   298.150 Kelvin.  Pressure   1.00000 Atm.
 Atom     1 has atomic number  6 and mass  12.00000

 Molecular mass:   295.14668 amu.
 Principal axes and moments of inertia in atomic units:
                           1         2         3
     Eigenvalues --  4186.69022********************
           X            0.99994   0.00583   0.00978
           Y           -0.00590   0.99996   0.00701
           Z           -0.00974  -0.00707   0.99993
 This molecule is an asymmetric top.
 Rotational symmetry number  1.
 Warning -- assumption of classical behavior for rotation
           may cause significant error
 Rotational temperatures (Kelvin)      0.02069     0.00844     0.00668
 Rotational constants (GHZ):           0.43107     0.17583     0.13912
 Zero-point vibrational energy     914155.6 (Joules/Mol)
                                  218.48844 (Kcal/Mol)
 Warning -- explicit consideration of  32 degrees of freedom as
           vibrations may cause significant error
 Vibrational temperatures:     12.17    35.24    49.76    59.92   103.24
          (Kelvin)            115.84   139.00   187.11   200.20   231.48
                              265.74   297.92   316.21   328.33   348.21
                              357.12   371.26   392.74   443.89   459.92
                              477.42   527.41   542.45   588.16   629.80
                              645.89   684.21   742.25   764.65   772.77
                              860.42   883.02   911.98   941.75  1002.78
                             1028.95  1056.72  1077.84  1118.13  1142.00
                             1149.59  1193.87  1252.96  1260.17  1264.16
                             1312.62  1350.69  1359.61  1375.01  1386.63
                             1395.79  1417.23  1476.07  1525.36  1538.23
                             1613.16  1638.69  1652.64  1676.51  1685.85
                             1734.68  1744.22  1749.56  1815.29  1819.71
                             1831.48  1896.98  1911.76  1925.23  1939.27
                             1952.03  1959.75  1988.03  2000.52  2006.32
                             2023.50  2045.34  2052.65  2060.14  2083.54
                             2100.57  2127.35  2166.65  2174.23  2180.64
                             2185.42  2197.21  2202.55  2207.41  2216.52
                             2233.72  2239.05  2275.27  2307.75  2341.18
                             2514.52  4305.26  4331.45  4354.77  4373.34
                             4376.88  4381.66  4404.83  4429.49  4448.72
                             4462.52  4464.15  4472.78  4484.05  4505.18
                             4525.14  4676.91  4710.45  4932.93  5044.32
                             5150.18  5211.53

 Zero-point correction=                           0.348183 (Hartree/Particle)
 Thermal correction to Energy=                    0.368744
 Thermal correction to Enthalpy=                  0.369688
 Thermal correction to Gibbs Free Energy=         0.296124
 Sum of electronic and zero-point Energies=          -1254.913335
 Sum of electronic and thermal Energies=             -1254.892774
 Sum of electronic and thermal Enthalpies=           -1254.891830
 Sum of electronic and thermal Free Energies=        -1254.965394

                     E (Thermal)             CV                S
                      KCal/Mol        Cal/Mol-Kelvin    Cal/Mol-Kelvin
 Total                  231.390             77.033            154.829
 Electronic               0.000              0.000              0.000
 Translational            0.889              2.981             42.944
 Rotational               0.889              2.981             34.677
 Vibrational            229.613             71.071             77.209
 Vibration     1          0.593              1.987              8.343
 Vibration     2          0.593              1.985              6.232
 Vibration     3          0.594              1.983              5.547
 Vibration     4          0.594              1.981              5.179
 Vibration     5          0.598              1.967              4.105
 Vibration     6          0.600              1.962              3.878
 Vibration     7          0.603              1.952              3.522
 Vibration     8          0.612              1.923              2.945
 Vibration     9          0.615              1.914              2.816
 Vibration    10          0.622              1.890              2.539
 Vibration    11          0.631              1.861              2.280
 Vibration    12          0.641              1.830              2.069
 Vibration    13          0.647              1.811              1.961
 Vibration    14          0.651              1.798              1.893
 Vibration    15          0.658              1.776              1.788
 Vibration    16          0.662              1.766              1.743
 Vibration    17          0.667              1.749              1.675
 Vibration    18          0.676              1.723              1.577
 Vibration    19          0.698              1.657              1.370
 Vibration    20          0.706              1.636              1.312
 Vibration    21          0.714              1.612              1.251
 Vibration    22          0.739              1.541              1.094
 Vibration    23          0.748              1.519              1.051
 Vibration    24          0.773              1.451              0.931
 Vibration    25          0.798              1.388              0.834
 Vibration    26          0.808              1.363              0.799
 Vibration    27          0.832              1.304              0.722
 Vibration    28          0.871              1.215              0.620
 Vibration    29          0.886              1.180              0.584
 Vibration    30          0.892              1.168              0.572
 Vibration    31          0.956              1.036              0.453
 Vibration    32          0.973              1.003              0.427

 Optimization completed.
    -- Stationary point found.
 Normal termination of Gaussian 16 at Sun Dec 13 21:36:03 2020.

 ----------------------------------------------------------------------
 # B3LYP/6-311++G(d,p) empiricaldispersion=gd3bj scf=xqc pop=npa geom=c
 heck
 ----------------------------------------------------------------------

 ----------------------------------------
 CID_105682817_JID_10109_Energie_neutraal
 ----------------------------------------
 Structure from the checkpoint file:  "JID_10109.chk"
 Charge =  0 Multiplicity = 1

 SCF Done:  E(RB3LYP) =  -1255.53268888     A.U. after   15 cycles
 Normal termination of Gaussian 16 at Sun Dec 13 21:44:54 2020.

 ----------------------------------------------------------------------
 # B3LYP/6-311++G(d,p) empiricaldispersion=gd3bj scf=xqc pop=npa geom=c
 heck
 ----------------------------------------------------------------------

 --------------------------------------
 CID_105682817_JID_10109_Energie_kation
 --------------------------------------
 Structure from the checkpoint file:  "JID_10109.chk"
 Charge =  1 Multiplicity = 2

 SCF Done:  E(UB3LYP) =  -1255.26218459     A.U. after   25 cycles
 Normal termination of Gaussian 16 at Sun Dec 13 22:04:58 2020.
 Gaussian 16:  ES64L-G16RevA.03 25-Dec-2016

 ----------------------------------------------------------------------
 # B3LYP/6-311++G(d,p) empiricaldispersion=gd3bj scf=xqc pop=npa geom=c
 heck
 ----------------------------------------------------------------------

 -------------------------------------
 CID_105682817_JID_10109_Energie_anion
 -------------------------------------
 Structure from the checkpoint file:  "JID_10109.chk"
 Charge = -1 Multiplicity = 2

                         Standard orientation:
 ---------------------------------------------------------------------
 Center     Atomic      Atomic             Coordinates (Angstroms)
 Number     Number       Type             X           Y           Z
 ---------------------------------------------------------------------
      1          6           0       -4.981768   -2.004311   -0.767325
      2          6           0       -4.413594   -0.581272   -0.808861
      3          6           0       -5.522290    0.474821   -0.829010
      4          6           0       -3.476250   -0.368154    0.385705
      5          8           0       -2.913949    0.936680    0.465010
      6          6           0       -1.949465    1.209911   -0.542632
      7          6           0       -1.114328    2.408838   -0.106543
      8          6           0       -0.607332    2.266105    1.339840
      9          7           0       -0.109562    0.935185    1.675584
     10          6           0        0.847956    0.242040    0.986231
     11          6           0        1.938543    0.836941    0.285328
     12          6           0        2.372782    2.195060    0.078800
     13          6           0        3.500843    2.282148   -0.673145
     14         16           0        4.115909    0.717012   -1.173947
     15          6           0        2.802407   -0.092715   -0.333545
     16          7           0        2.690684   -1.422598   -0.304442
     17          6           0        1.630094   -1.846364    0.397370
     18          7           0        0.713775   -1.090315    1.031051
     19          7           0        1.422509   -3.202436    0.464826
     20          7           0        2.424985   -4.124685    0.106008
     21          1           0       -4.184443   -2.756863   -0.773792
     22          1           0       -5.629160   -2.193023   -1.630548
     23          1           0       -5.582540   -2.158685    0.138214
     24          1           0       -3.821060   -0.481931   -1.729618
     25          1           0       -6.162949    0.378140    0.057124
     26          1           0       -5.102523    1.485242   -0.825329
     27          1           0       -6.157151    0.364324   -1.715244
     28          1           0       -4.038877   -0.496198    1.318483
     29          1           0       -2.666656   -1.116789    0.370865
     30          1           0       -1.303004    0.330752   -0.681779
     31          1           0       -2.432802    1.418170   -1.508163
     32          1           0       -0.275445    2.511468   -0.804489
     33          1           0       -1.706462    3.329662   -0.173369
     34          1           0        0.152966    3.020879    1.559775
     35          1           0       -1.435882    2.447909    2.026103
     36          1           0       -0.837281    0.303708    1.990489
     37          1           0        1.875965    3.069009    0.477306
     38          1           0        4.026738    3.179353   -0.968943
     39          1           0        0.813631   -3.512048    1.209423
     40          1           0        2.432447   -4.176233   -0.912648
     41          1           0        3.329220   -3.716828    0.354744
 ---------------------------------------------------------------------

 SCF Done:  E(UB3LYP) =  -1255.52087563     A.U. after   33 cycles
 SCF Done:  E(UB3LYP) =  -1255.52088890     a.u. after    4 cycles

 The electronic state is 2-A.
 Alpha  occ. eigenvalues --  -88.78556 -19.03762 -14.26884 -14.25629 -14.24328
 Alpha  occ. eigenvalues --  -14.21489 -14.21043 -10.18356 -10.16792 -10.14863
 Alpha  occ. eigenvalues --  -10.12673 -10.12572 -10.11932 -10.11184 -10.09559
 Alpha  occ. eigenvalues --  -10.09503 -10.08661 -10.08250 -10.07414 -10.06658
 Alpha  occ. eigenvalues --   -7.87186  -5.83478  -5.83137  -5.82741  -0.94992
 Alpha  occ. eigenvalues --   -0.93527  -0.88968  -0.85292  -0.80076  -0.77054
 Alpha  occ. eigenvalues --   -0.72410  -0.71794  -0.68649  -0.66268  -0.63681
 Alpha  occ. eigenvalues --   -0.61658  -0.59821  -0.57738  -0.54608  -0.54234
 Alpha  occ. eigenvalues --   -0.50989  -0.48573  -0.47783  -0.46927  -0.44174
 Alpha  occ. eigenvalues --   -0.42720  -0.41765  -0.41002  -0.40533  -0.40354
 Alpha  occ. eigenvalues --   -0.38824  -0.36671  -0.36405  -0.36052  -0.34943
 Alpha  occ. eigenvalues --   -0.34666  -0.34181  -0.32389  -0.31437  -0.30551
 Alpha  occ. eigenvalues --   -0.29959  -0.29756  -0.28639  -0.27527  -0.27193
 Alpha  occ. eigenvalues --   -0.26473  -0.26419  -0.25548  -0.25171  -0.24538
 Alpha  occ. eigenvalues --   -0.22908  -0.22263  -0.21282  -0.20188  -0.17656
 Alpha  occ. eigenvalues --   -0.17276  -0.16910  -0.15507  -0.11976   0.04006
 Alpha virt. eigenvalues --    0.05406   0.05866   0.06122   0.06643   0.06876
 Alpha virt. eigenvalues --    0.07145   0.07856   0.08219   0.08876   0.09287
 Alpha virt. eigenvalues --    0.09462   0.09774   0.10534   0.10650   0.11032

  Beta  occ. eigenvalues --  -88.78555 -19.03757 -14.26884 -14.25625 -14.24322
  Beta  occ. eigenvalues --  -14.21463 -14.20991 -10.18358 -10.16711 -10.14765
  Beta  occ. eigenvalues --  -10.12662 -10.12562 -10.11920 -10.11178 -10.09575
  Beta  occ. eigenvalues --  -10.09485 -10.08653 -10.08235 -10.07387 -10.06630
  Beta  occ. eigenvalues --   -7.87184  -5.83479  -5.83137  -5.82736  -0.94981
  Beta  occ. eigenvalues --   -0.93491  -0.88908  -0.85234  -0.79998  -0.77009
  Beta  occ. eigenvalues --   -0.72384  -0.71770  -0.68619  -0.66231  -0.63611
  Beta  occ. eigenvalues --   -0.61617  -0.59767  -0.57692  -0.54577  -0.54143
  Beta  occ. eigenvalues --   -0.50941  -0.48528  -0.47739  -0.46883  -0.44133
  Beta  occ. eigenvalues --   -0.42704  -0.41728  -0.40971  -0.40495  -0.40325
  Beta  occ. eigenvalues --   -0.38774  -0.36625  -0.36360  -0.35983  -0.34811
  Beta  occ. eigenvalues --   -0.34616  -0.34132  -0.32349  -0.31390  -0.30497
  Beta  occ. eigenvalues --   -0.29917  -0.29719  -0.28535  -0.27493  -0.27118
  Beta  occ. eigenvalues --   -0.26437  -0.26366  -0.25418  -0.25129  -0.24498
  Beta  occ. eigenvalues --   -0.22836  -0.22229  -0.21217  -0.20115  -0.17634
  Beta  occ. eigenvalues --   -0.17224  -0.16876  -0.15363  -0.11855
  Beta virt. eigenvalues --    0.05875   0.06248   0.06575   0.06611   0.06698
  Beta virt. eigenvalues --    0.07358   0.07519   0.08153   0.08562   0.09187
  Beta virt. eigenvalues --    0.09360   0.09577   0.09945   0.10619   0.10862

 Mulliken charges and spin densities:
               1          2
     1  C    0.375733  -0.969912
     2  C   -0.870892   1.160754
     3  C    0.460435  -0.943946
     4  C    0.227453  -0.606006
     5  O   -0.044013   0.016150
     6  C   -0.304407  -0.218569
     7  C    0.174859  -0.459310
     8  C   -0.073111  -0.198631
     9  N    0.037593   0.028984
    10  C    0.587892  -0.605668
    11  C    0.107668   0.425065
    12  C    0.157498  -0.697154
    13  C    1.041796  -1.375454
    14  S   -0.141999  -0.268851
    15  C   -1.412584   1.295815
    16  N   -0.060227   0.000589
    17  C    0.194841  -0.188540
    18  N   -0.220713   0.043137
    19  N   -0.253080   0.009464
    20  N   -0.265069   0.024554
    21  H   -0.149706   0.283667
    22  H   -0.192687   0.350083
    23  H   -0.022043   0.146707
    24  H    0.014457   0.130587
    25  H   -0.028633   0.156866
    26  H    0.099331   0.065687
    27  H   -0.311028   0.449367
    28  H    0.011194   0.142261
    29  H    0.211290  -0.099943
    30  H    0.107909   0.079462
    31  H   -0.288021   0.479251
    32  H    0.227688  -0.070037
    33  H   -0.270291   0.453173
    34  H   -0.162725   0.321221
    35  H    0.097031   0.112701
    36  H    0.279481   0.023619
    37  H   -0.217694   0.326260
    38  H   -0.838885   1.104259
    39  H    0.264458   0.035134
    40  H    0.234113   0.016139
    41  H    0.215089   0.021062
 Sum of Mulliken charges =  -1.00000   1.00000

 Dipole moment (field-independent basis, Debye):
    X=              3.1054    Y=             -3.8800    Z=              2.7794  Tot=              5.6942
 Quadrupole moment (field-independent basis, Debye-Ang):
   XX=           -234.5754   YY=           -195.8863   ZZ=           -158.3278
   XY=            -14.3986   XZ=            -11.7752   YZ=              1.9071

 Summary of Natural Population Analysis:

                                       Natural Population
                Natural  -----------------------------------------------
    Atom  No    Charge         Core      Valence    Rydberg      Total
 -----------------------------------------------------------------------
      C    1   -0.28301      0.99965     2.27845    0.00491     3.28301
      C    2   -0.13174      0.99962     2.12216    0.00996     3.13174
      C    3   -0.28726      0.99965     2.28074    0.00686     3.28726
      C    4   -0.00505      0.99955     1.99398    0.01152     3.00505
      O    5   -0.30814      0.99988     3.29903    0.00923     4.30814
      C    6   -0.01403      0.99957     2.00218    0.01228     3.01403
      C    7   -0.20821      0.99962     2.19945    0.00914     3.20821
      C    8   -0.08878      0.99961     2.07684    0.01233     3.08878
      N    9   -0.30123      0.99966     2.79239    0.00918     3.80123
      C   10    0.24697      0.99951     1.73899    0.01453     2.75303
      C   11   -0.12042      0.99940     2.11178    0.00924     3.12042
      C   12   -0.11368      0.99951     2.10343    0.01074     3.11368
      C   13   -0.18817      0.99953     2.17675    0.01189     3.18817
      S   14    0.18488      4.99944     2.79330    0.02238     7.81512
      C   15    0.06527      0.99946     1.91801    0.01727     2.93473
      N   16   -0.30068      0.99962     2.78921    0.01185     3.80068
      C   17    0.29596      0.99960     1.68654    0.01790     2.70404
      N   18   -0.29255      0.99963     2.78267    0.01025     3.79255
      N   19   -0.22521      0.99965     2.71275    0.01281     3.72521
      N   20   -0.31710      0.99978     2.80700    0.01032     3.81710
      H   21    0.09983      0.00000     0.39887    0.00131     0.40017
      H   22    0.10220      0.00000     0.39667    0.00113     0.39780
      H   23    0.09530      0.00000     0.40362    0.00108     0.40470
      H   24    0.09434      0.00000     0.40349    0.00216     0.40566
      H   25    0.09478      0.00000     0.40424    0.00097     0.40522
      H   26    0.10550      0.00000     0.39331    0.00119     0.39450
      H   27    0.09969      0.00000     0.39929    0.00102     0.40031
      H   28    0.08662      0.00000     0.41216    0.00122     0.41338
      H   29    0.08415      0.00000     0.41404    0.00181     0.41585
      H   30    0.08374      0.00000     0.41446    0.00180     0.41626
      H   31    0.08600      0.00000     0.41264    0.00135     0.41400
      H   32    0.10478      0.00000     0.39391    0.00131     0.39522
      H   33    0.10336      0.00000     0.39520    0.00144     0.39664
      H   34    0.09638      0.00000     0.40228    0.00134     0.40362
      H   35    0.10365      0.00000     0.39510    0.00125     0.39635
      H   36    0.19411      0.00000     0.30265    0.00324     0.30589
      H   37    0.11109      0.00000     0.38737    0.00155     0.38891
      H   38    0.11236      0.00000     0.38563    0.00201     0.38764
      H   39    0.18844      0.00000     0.30895    0.00261     0.31156
      H   40    0.17249      0.00000     0.32518    0.00232     0.32751
      H   41    0.17339      0.00000     0.32420    0.00241     0.32661
 =======================================================================
   * Total *    0.00000     23.99194    54.73895    0.26911    79.00000

 Normal termination of Gaussian 16 at Sun Dec 13 23:38:52 2020.
