 Gaussian 16, Revision A.03,

 -----------------------------------------------------------
 # opt freq B3LYP/6-31G(d) empiricaldispersion=gd3bj scf=xqc
 -----------------------------------------------------------

 -------------------------------
 CID_148544471_JID_3622_neutraal
 -------------------------------
 Symbolic Z-matrix:
 Charge =  0 Multiplicity = 1

 SCF Done:  E(RB3LYP) =  -508.648173129     A.U. after   13 cycles
 SCF Done:  E(RB3LYP) =  -508.653673001     A.U. after   11 cycles
 SCF Done:  E(RB3LYP) =  -508.654867528     A.U. after   11 cycles
 SCF Done:  E(RB3LYP) =  -508.655924068     A.U. after   13 cycles
 SCF Done:  E(RB3LYP) =  -508.656639748     A.U. after   10 cycles
 SCF Done:  E(RB3LYP) =  -508.657665237     A.U. after   11 cycles
 SCF Done:  E(RB3LYP) =  -508.657987162     A.U. after   11 cycles
 SCF Done:  E(RB3LYP) =  -508.657540249     A.U. after   11 cycles
 SCF Done:  E(RB3LYP) =  -508.658292697     A.U. after   11 cycles
 SCF Done:  E(RB3LYP) =  -508.658374039     A.U. after   10 cycles
 SCF Done:  E(RB3LYP) =  -508.658452321     A.U. after   10 cycles
 SCF Done:  E(RB3LYP) =  -508.658468020     A.U. after   10 cycles
 SCF Done:  E(RB3LYP) =  -508.658467936     A.U. after    8 cycles
 SCF Done:  E(RB3LYP) =  -508.658468181     A.U. after    7 cycles
 SCF Done:  E(RB3LYP) =  -508.658468220     A.U. after    7 cycles
 Optimization completed on the basis of negligible forces.
    -- Stationary point found.
 Normal termination of Gaussian 16 at Mon Dec 14 16:53:43 2020.

 --------------------------------------------------------------------
 #N Geom=AllCheck Guess=TCheck SCRF=Check GenChk RB3LYP/6-31G(d) Freq
 --------------------------------------------------------------------

 Structure from the checkpoint file:  "JID_3622.chk"
 -------------------------------
 CID_148544471_JID_3622_neutraal
 -------------------------------
 Charge =  0 Multiplicity = 1

 SCF Done:  E(RB3LYP) =  -508.658468220     A.U. after    1 cycles

  Exact polarizability: 161.516   5.882 133.583   1.202   2.026 106.503
 Approx polarizability: 198.426  14.243 188.394   2.266   4.355 163.438

                      1                      2                      3
                      A                      A                      A
 Frequencies --     17.2710                21.4449                41.6066
 Red. masses --      2.3377                 3.1466                 2.7707
 Frc consts  --      0.0004                 0.0009                 0.0028
 IR Inten    --      0.0016                 0.0125                 0.0417

                      4                      5                      6
                      A                      A                      A
 Frequencies --     85.7361               120.8113               134.6981
 Red. masses --      2.6707                 2.5677                 2.6933
 Frc consts  --      0.0116                 0.0221                 0.0288
 IR Inten    --      0.1046                 0.1735                 0.2023

                      7                      8                      9
                      A                      A                      A
 Frequencies --    164.6868               166.8584               221.5535
 Red. masses --      1.0639                 2.5914                 1.9446
 Frc consts  --      0.0170                 0.0425                 0.0562
 IR Inten    --      0.0872                 0.1057                 0.1138

                     10                     11                     12
                      A                      A                      A
 Frequencies --    243.7385               269.9833               280.2352
 Red. masses --      1.7560                 1.3352                 2.5014
 Frc consts  --      0.0615                 0.0573                 0.1157
 IR Inten    --      0.3959                 0.1260                 0.5768

                     13                     14                     15
                      A                      A                      A
 Frequencies --    311.4290               323.9267               384.4270
 Red. masses --      2.0809                 2.1254                 2.7478
 Frc consts  --      0.1189                 0.1314                 0.2393
 IR Inten    --      0.3422                 2.2561                 1.4587

                     16                     17                     18
                      A                      A                      A
 Frequencies --    434.5981               497.6201               564.9539
 Red. masses --      2.1146                 1.9762                 3.9136
 Frc consts  --      0.2353                 0.2883                 0.7360
 IR Inten    --      1.2554                 2.0046                 0.0668

                     19                     20                     21
                      A                      A                      A
 Frequencies --    591.3229               614.4122               651.8934
 Red. masses --      2.2378                 3.5008                 2.8796
 Frc consts  --      0.4610                 0.7786                 0.7210
 IR Inten    --      0.5952                 0.7204                 4.9666

                     22                     23                     24
                      A                      A                      A
 Frequencies --    751.4493               776.3885               795.6897
 Red. masses --      1.4245                 1.7015                 2.2678
 Frc consts  --      0.4739                 0.6043                 0.8460
 IR Inten    --      1.1047                 1.4533                 0.5306

                     25                     26                     27
                      A                      A                      A
 Frequencies --    816.3839               832.7434               871.8347
 Red. masses --      2.0624                 2.2107                 2.1182
 Frc consts  --      0.8099                 0.9033                 0.9486
 IR Inten    --      0.4358                 0.1552                 0.7291

                     28                     29                     30
                      A                      A                      A
 Frequencies --    905.4806               908.5633               915.1498
 Red. masses --      2.3787                 2.5116                 1.3426
 Frc consts  --      1.1491                 1.2215                 0.6625
 IR Inten    --      0.2401                 0.3662                 0.5998

                     31                     32                     33
                      A                      A                      A
 Frequencies --    932.8479               948.3416               975.3357
 Red. masses --      1.9925                 1.6659                 1.6914
 Frc consts  --      1.0216                 0.8828                 0.9480
 IR Inten    --      1.9861                 0.5397                 1.6103

                     34                     35                     36
                      A                      A                      A
 Frequencies --    998.6604              1012.6029              1020.0195
 Red. masses --      1.6707                 1.4178                 1.3792
 Frc consts  --      0.9817                 0.8565                 0.8454
 IR Inten    --      1.9953                 0.1554                 0.1369

                     37                     38                     39
                      A                      A                      A
 Frequencies --   1031.1807              1042.5636              1081.1865
 Red. masses --      1.5900                 2.0533                 1.6915
 Frc consts  --      0.9962                 1.3149                 1.1650
 IR Inten    --      0.1820                 0.1387                 2.8401

                     40                     41                     42
                      A                      A                      A
 Frequencies --   1091.5117              1112.5683              1120.4516
 Red. masses --      1.5265                 2.1269                 1.7534
 Frc consts  --      1.0715                 1.5511                 1.2969
 IR Inten    --      1.5283                 0.2133                 0.0494

                     43                     44                     45
                      A                      A                      A
 Frequencies --   1154.2803              1181.5202              1184.2017
 Red. masses --      2.5725                 1.4648                 1.7070
 Frc consts  --      2.0194                 1.2047                 1.4103
 IR Inten    --      8.2403                 2.3957                 0.7959

                     46                     47                     48
                      A                      A                      A
 Frequencies --   1205.1562              1211.4972              1228.6473
 Red. masses --      1.7553                 1.5609                 1.7830
 Frc consts  --      1.5021                 1.3498                 1.5858
 IR Inten    --      0.8887                 0.2465                 2.5485

                     49                     50                     51
                      A                      A                      A
 Frequencies --   1232.2242              1246.3580              1266.4912
 Red. masses --      1.4987                 1.4482                 1.5538
 Frc consts  --      1.3408                 1.3254                 1.4684
 IR Inten    --      3.6382                 0.3353                 5.8091

                     52                     53                     54
                      A                      A                      A
 Frequencies --   1285.5162              1305.6639              1314.7565
 Red. masses --      1.2885                 1.4578                 1.2876
 Frc consts  --      1.2546                 1.4643                 1.3114
 IR Inten    --      0.3953                 0.6171                 0.0295

                     55                     56                     57
                      A                      A                      A
 Frequencies --   1331.4016              1340.8726              1345.5912
 Red. masses --      1.6558                 1.2630                 1.4391
 Frc consts  --      1.7293                 1.3379                 1.5353
 IR Inten    --     11.4897                 2.4636                 4.0269

                     58                     59                     60
                      A                      A                      A
 Frequencies --   1356.2758              1364.6848              1376.3239
 Red. masses --      1.5071                 1.3070                 1.6272
 Frc consts  --      1.6334                 1.4341                 1.8161
 IR Inten    --      0.5188                 3.9771                10.8755

                     61                     62                     63
                      A                      A                      A
 Frequencies --   1385.0987              1397.2138              1419.0360
 Red. masses --      1.3568                 1.6003                 1.4187
 Frc consts  --      1.5336                 1.8407                 1.6831
 IR Inten    --      3.5870                 0.3293                10.8296

                     64                     65                     66
                      A                      A                      A
 Frequencies --   1432.3175              1437.4715              1506.0163
 Red. masses --      1.2543                 1.3338                 1.0782
 Frc consts  --      1.5161                 1.6239                 1.4409
 IR Inten    --      2.9949                 1.0791                 3.3018

                     67                     68                     69
                      A                      A                      A
 Frequencies --   1507.1530              1510.0008              1516.9109
 Red. masses --      1.0520                 1.1105                 1.0606
 Frc consts  --      1.4080                 1.4919                 1.4378
 IR Inten    --      4.3091                 0.6600                 1.5488

                     70                     71                     72
                      A                      A                      A
 Frequencies --   1519.0887              1520.3581              1523.6424
 Red. masses --      1.0817                 1.0864                 1.0810
 Frc consts  --      1.4706                 1.4796                 1.4785
 IR Inten    --      0.8771                 2.8289                 4.3131

                     73                     74                     75
                      A                      A                      A
 Frequencies --   1526.8290              1528.5056              1529.2737
 Red. masses --      1.0715                 1.0565                 1.0761
 Frc consts  --      1.4717                 1.4543                 1.4827
 IR Inten    --      3.1444                 4.8828                 2.0959

                     76                     77                     78
                      A                      A                      A
 Frequencies --   1548.0135              1763.7381              3011.6468
 Red. masses --      1.1056                 8.5064                 1.0819
 Frc consts  --      1.5610                15.5906                 5.7815
 IR Inten    --      2.0078                 2.2019                15.4249

                     79                     80                     81
                      A                      A                      A
 Frequencies --   3019.4428              3025.1243              3026.3116
 Red. masses --      1.0825                 1.0541                 1.0473
 Frc consts  --      5.8146                 5.6838                 5.6511
 IR Inten    --     28.4644                44.1980                28.0180

                     82                     83                     84
                      A                      A                      A
 Frequencies --   3033.7294              3037.6404              3040.7253
 Red. masses --      1.0486                 1.0432                 1.0696
 Frc consts  --      5.6863                 5.6716                 5.8268
 IR Inten    --     64.1426                26.2876                27.3929

                     85                     86                     87
                      A                      A                      A
 Frequencies --   3044.0769              3047.5050              3050.8808
 Red. masses --      1.0632                 1.0630                 1.0637
 Frc consts  --      5.8046                 5.8169                 5.8332
 IR Inten    --     54.3826                32.0654                24.2546

                     88                     89                     90
                      A                      A                      A
 Frequencies --   3064.6392              3064.8158              3072.5620
 Red. masses --      1.0669                 1.0908                 1.1004
 Frc consts  --      5.9040                 6.0365                 6.1207
 IR Inten    --     25.7184                12.6840                10.7837

                     91                     92                     93
                      A                      A                      A
 Frequencies --   3075.0632              3085.4184              3089.8742
 Red. masses --      1.1064                 1.1015                 1.0986
 Frc consts  --      6.1641                 6.1785                 6.1798
 IR Inten    --     52.1005                60.0538                26.2622

                     94                     95                     96
                      A                      A                      A
 Frequencies --   3093.9600              3099.2254              3101.6766
 Red. masses --      1.0983                 1.1026                 1.1019
 Frc consts  --      6.1944                 6.2399                 6.2460
 IR Inten    --     34.4105                39.5890                31.1513

                     97                     98                     99
                      A                      A                      A
 Frequencies --   3106.8252              3109.9142              3111.1773
 Red. masses --      1.1025                 1.1001                 1.1051
 Frc consts  --      6.2698                 6.2685                 6.3021
 IR Inten    --     42.2666                30.8020                96.2855

 - Thermochemistry -
 -------------------
 Temperature   298.150 Kelvin.  Pressure   1.00000 Atm.
 Atom     1 has atomic number  6 and mass  12.00000

 Molecular mass:   178.17215 amu.
 Principal axes and moments of inertia in atomic units:
                           1         2         3
     Eigenvalues --  1193.461435088.902665831.07128
           X            0.99999  -0.00107   0.00390
           Y            0.00108   0.99999  -0.00307
           Z           -0.00389   0.00307   0.99999
 This molecule is an asymmetric top.
 Rotational symmetry number  1.
 Warning -- assumption of classical behavior for rotation
           may cause significant error
 Rotational temperatures (Kelvin)      0.07257     0.01702     0.01485
 Rotational constants (GHZ):           1.51219     0.35464     0.30950
 Zero-point vibrational energy     849339.8 (Joules/Mol)
                                  202.99708 (Kcal/Mol)
 Warning -- explicit consideration of  20 degrees of freedom as
           vibrations may cause significant error
 Vibrational temperatures:     24.85    30.85    59.86   123.36   173.82
          (Kelvin)            193.80   236.95   240.07   318.77   350.69
                              388.45   403.20   448.08   466.06   553.10
                              625.29   715.96   812.84   850.78   884.00
                              937.93  1081.17  1117.05  1144.82  1174.59
                             1198.13  1254.38  1302.78  1307.22  1316.70
                             1342.16  1364.45  1403.29  1436.85  1456.91
                             1467.58  1483.64  1500.02  1555.59  1570.44
                             1600.74  1612.08  1660.75  1699.94  1703.80
                             1733.95  1743.07  1767.75  1772.90  1793.23
                             1822.20  1849.57  1878.56  1891.64  1915.59
                             1929.22  1936.01  1951.38  1963.48  1980.22
                             1992.85  2010.28  2041.68  2060.79  2068.20
                             2166.82  2168.46  2172.55  2182.50  2185.63
                             2187.46  2192.18  2196.77  2199.18  2200.28
                             2227.25  2537.63  4333.09  4344.30  4352.48
                             4354.19  4364.86  4370.49  4374.93  4379.75
                             4384.68  4389.54  4409.33  4409.59  4420.73
                             4424.33  4439.23  4445.64  4451.52  4459.09
                             4462.62  4470.03  4474.47  4476.29

 Zero-point correction=                           0.323496 (Hartree/Particle)
 Thermal correction to Energy=                    0.337867
 Thermal correction to Enthalpy=                  0.338811
 Thermal correction to Gibbs Free Energy=         0.279949
 Sum of electronic and zero-point Energies=           -508.334972
 Sum of electronic and thermal Energies=              -508.320601
 Sum of electronic and thermal Enthalpies=            -508.319657
 Sum of electronic and thermal Free Energies=         -508.378519

                     E (Thermal)             CV                S
                      KCal/Mol        Cal/Mol-Kelvin    Cal/Mol-Kelvin
 Total                  212.015             53.796            123.886
 Electronic               0.000              0.000              0.000
 Translational            0.889              2.981             41.440
 Rotational               0.889              2.981             31.938
 Vibrational            210.237             47.834             50.508
 Vibration     1          0.593              1.986              6.926
 Vibration     2          0.593              1.985              6.496
 Vibration     3          0.594              1.981              5.181
 Vibration     4          0.601              1.959              3.755
 Vibration     5          0.609              1.932              3.087
 Vibration     6          0.613              1.919              2.878
 Vibration     7          0.623              1.886              2.495
 Vibration     8          0.624              1.883              2.471
 Vibration     9          0.648              1.808              1.946
 Vibration    10          0.659              1.773              1.775
 Vibration    11          0.674              1.728              1.596
 Vibration    12          0.680              1.710              1.532
 Vibration    13          0.700              1.652              1.355
 Vibration    14          0.708              1.628              1.290
 Vibration    15          0.753              1.503              1.022
 Vibration    16          0.795              1.395              0.844
 Vibration    17          0.853              1.255              0.664
 Vibration    18          0.921              1.107              0.514
 Vibration    19          0.949              1.050              0.465
 Vibration    20          0.974              1.001              0.426

 Optimization completed on the basis of negligible forces.
    -- Stationary point found.
 Normal termination of Gaussian 16 at Mon Dec 14 17:02:38 2020.

 ----------------------------------------------------------------------
 # B3LYP/6-311++G(d,p) empiricaldispersion=gd3bj scf=xqc pop=npa geom=c
 heck
 ----------------------------------------------------------------------

 ---------------------------------------
 CID_148544471_JID_3622_Energie_neutraal
 ---------------------------------------
 Structure from the checkpoint file:  "JID_3622.chk"
 Charge =  0 Multiplicity = 1

 SCF Done:  E(RB3LYP) =  -508.792143013     A.U. after   13 cycles
 Normal termination of Gaussian 16 at Mon Dec 14 17:06:56 2020.

 ----------------------------------------------------------------------
 # B3LYP/6-311++G(d,p) empiricaldispersion=gd3bj scf=xqc pop=npa geom=c
 heck
 ----------------------------------------------------------------------

 -------------------------------------
 CID_148544471_JID_3622_Energie_kation
 -------------------------------------
 Structure from the checkpoint file:  "JID_3622.chk"
 Charge =  1 Multiplicity = 2

 SCF Done:  E(UB3LYP) =  -508.495348226     A.U. after   18 cycles
 Normal termination of Gaussian 16 at Mon Dec 14 17:15:14 2020.
 Gaussian 16:  ES64L-G16RevA.03 25-Dec-2016

 ----------------------------------------------------------------------
 # B3LYP/6-311++G(d,p) empiricaldispersion=gd3bj scf=xqc pop=npa geom=c
 heck
 ----------------------------------------------------------------------

 ------------------------------------
 CID_148544471_JID_3622_Energie_anion
 ------------------------------------
 Structure from the checkpoint file:  "JID_3622.chk"
 Charge = -1 Multiplicity = 2

                         Standard orientation:
 ---------------------------------------------------------------------
 Center     Atomic      Atomic             Coordinates (Angstroms)
 Number     Number       Type             X           Y           Z
 ---------------------------------------------------------------------
      1          6           0        2.424128   -2.255211    0.525671
      2          6           0        2.598698   -1.127293   -0.487290
      3          6           0        3.799047   -0.143097   -0.235121
      4          6           0        2.744634    0.948489   -0.150760
      5          6           0        1.710930    0.110621   -0.358029
      6          6           0        0.229081    0.285423   -0.439159
      7          6           0       -0.499119   -0.176151    0.840848
      8          6           0       -2.033275   -0.165886    0.767669
      9          6           0       -2.689489    1.172716    0.375616
     10          6           0       -4.113975    0.762594   -0.018549
     11          6           0       -3.892397   -0.517439   -0.848700
     12          6           0       -2.650091   -1.202965   -0.216479
     13          6           0        2.873287    2.417471    0.068587
     14          1           0        3.241971   -2.982314    0.448698
     15          1           0        1.483201   -2.795197    0.365890
     16          1           0        2.414897   -1.859898    1.548570
     17          1           0        2.610123   -1.544607   -1.504847
     18          1           0        4.356649   -0.340289    0.690183
     19          1           0        4.517486   -0.059551   -1.061369
     20          1           0        0.001135    1.341709   -0.627617
     21          1           0       -0.155071   -0.274196   -1.303935
     22          1           0       -0.170066   -1.191871    1.093282
     23          1           0       -0.167693    0.462736    1.669989
     24          1           0       -2.398306   -0.412621    1.774892
     25          1           0       -2.651181    1.913085    1.182816
     26          1           0       -2.184128    1.609882   -0.495266
     27          1           0       -4.656998    1.539452   -0.567585
     28          1           0       -4.694816    0.532506    0.884693
     29          1           0       -3.679161   -0.243396   -1.889030
     30          1           0       -4.773305   -1.167326   -0.865699
     31          1           0       -1.931408   -1.493220   -0.990491
     32          1           0       -2.918894   -2.121801    0.315516
     33          1           0        1.897363    2.915044    0.043537
     34          1           0        3.338869    2.636112    1.039430
     35          1           0        3.510580    2.880116   -0.697485
 ---------------------------------------------------------------------

 SCF Done:  E(UB3LYP) =  -508.775390530     A.U. after   33 cycles
 SCF Done:  E(UB3LYP) =  -508.775390530     a.u. after    1 cycles

 The electronic state is 2-A.
 Alpha  occ. eigenvalues --  -10.07673 -10.06813 -10.06770 -10.06713 -10.06713
 Alpha  occ. eigenvalues --  -10.06696 -10.06372 -10.06339 -10.06291 -10.06271
 Alpha  occ. eigenvalues --  -10.06085 -10.05974 -10.05867  -0.76490  -0.73834
 Alpha  occ. eigenvalues --   -0.67433  -0.64694  -0.61093  -0.60640  -0.60105
 Alpha  occ. eigenvalues --   -0.54443  -0.50900  -0.48401  -0.46990  -0.44164
 Alpha  occ. eigenvalues --   -0.39201  -0.38119  -0.36978  -0.36379  -0.35696
 Alpha  occ. eigenvalues --   -0.34591  -0.32151  -0.31697  -0.31325  -0.31061
 Alpha  occ. eigenvalues --   -0.30241  -0.29025  -0.27736  -0.27001  -0.24888
 Alpha  occ. eigenvalues --   -0.23957  -0.23838  -0.23640  -0.22699  -0.22203
 Alpha  occ. eigenvalues --   -0.21137  -0.20889  -0.20819  -0.19494  -0.13009
 Alpha  occ. eigenvalues --    0.04511
 Alpha virt. eigenvalues --    0.06335   0.06811   0.07347   0.08157   0.08346
 Alpha virt. eigenvalues --    0.08636   0.09602   0.09923   0.10343   0.10574
 Alpha virt. eigenvalues --    0.10841   0.11281   0.11585   0.12516   0.12960

  Beta  occ. eigenvalues --  -10.07665 -10.06802 -10.06754 -10.06705 -10.06700
  Beta  occ. eigenvalues --  -10.06662 -10.06356 -10.06339 -10.06273 -10.06258
  Beta  occ. eigenvalues --  -10.06061 -10.05956 -10.05847  -0.76472  -0.73807
  Beta  occ. eigenvalues --   -0.67408  -0.64655  -0.61059  -0.60599  -0.60059
  Beta  occ. eigenvalues --   -0.54404  -0.50855  -0.48351  -0.46929  -0.44119
  Beta  occ. eigenvalues --   -0.39161  -0.38077  -0.36930  -0.36353  -0.35672
  Beta  occ. eigenvalues --   -0.34554  -0.32126  -0.31671  -0.31284  -0.31020
  Beta  occ. eigenvalues --   -0.30205  -0.28996  -0.27712  -0.26980  -0.24857
  Beta  occ. eigenvalues --   -0.23918  -0.23803  -0.23607  -0.22672  -0.22169
  Beta  occ. eigenvalues --   -0.21106  -0.20864  -0.20787  -0.19475  -0.12976
  Beta virt. eigenvalues --    0.06459   0.07010   0.07453   0.07781   0.08648
  Beta virt. eigenvalues --    0.08688   0.08994   0.09964   0.10272   0.10727
  Beta virt. eigenvalues --    0.10919   0.11071   0.11588   0.11839   0.12672

 Mulliken charges and spin densities:
               1          2
     1  C    0.462017  -1.138080
     2  C   -1.109749   1.613270
     3  C    0.737569  -1.616054
     4  C   -1.665101   1.410466
     5  C    3.154458  -1.377941
     6  C   -2.713938   1.431944
     7  C   -0.312749  -0.075641
     8  C   -0.052123   0.312418
     9  C    0.162854  -0.432019
    10  C    0.078571  -0.565760
    11  C    0.324310  -0.713725
    12  C    0.142031  -0.539993
    13  C    1.767269  -2.517899
    14  H   -0.163855   0.295696
    15  H   -0.112900   0.246194
    16  H   -0.065277   0.214007
    17  H   -0.095624   0.288425
    18  H   -0.111184   0.268492
    19  H    0.037575   0.077877
    20  H    0.180111  -0.008809
    21  H   -0.060912   0.199299
    22  H    0.141698  -0.005638
    23  H   -0.028882   0.187967
    24  H   -0.273349   0.487740
    25  H   -0.327555   0.486784
    26  H   -0.066828   0.192722
    27  H   -0.253691   0.415406
    28  H    0.063067   0.061737
    29  H   -0.011415   0.132209
    30  H   -0.084040   0.236758
    31  H   -0.013899   0.139422
    32  H   -0.219277   0.366380
    33  H   -0.209095   0.336274
    34  H   -0.170980   0.324572
    35  H   -0.129108   0.265498
 Sum of Mulliken charges =  -1.00000   1.00000

 Dipole moment (field-independent basis, Debye):
    X=              0.8114    Y=             -0.8074    Z=             -1.5631  Tot=              1.9374
 Quadrupole moment (field-independent basis, Debye-Ang):
   XX=           -165.5756   YY=           -135.2877   ZZ=           -116.3514
   XY=             -1.4543   XZ=             -0.1015   YZ=             -1.3597

 Summary of Natural Population Analysis:

                                       Natural Population
                Natural  -----------------------------------------------
    Atom  No    Charge         Core      Valence    Rydberg      Total
 -----------------------------------------------------------------------
      C    1   -0.28510      0.99965     2.28041    0.00505     3.28510
      C    2   -0.10764      0.99958     2.09790    0.01015     3.10764
      C    3   -0.18610      0.99960     2.17951    0.00698     3.18610
      C    4   -0.00732      0.99940     1.99657    0.01135     3.00732
      C    5   -0.00143      0.99940     1.98978    0.01225     3.00143
      C    6   -0.20968      0.99957     2.20211    0.00799     3.20968
      C    7   -0.17992      0.99960     2.17173    0.00860     3.17992
      C    8   -0.10897      0.99960     2.09825    0.01111     3.10897
      C    9   -0.19134      0.99962     2.18291    0.00881     3.19134
      C   10   -0.18817      0.99964     2.18171    0.00682     3.18817
      C   11   -0.19071      0.99964     2.18423    0.00683     3.19071
      C   12   -0.19202      0.99963     2.18371    0.00868     3.19202
      C   13   -0.30063      0.99962     2.29626    0.00475     3.30063
      H   14    0.09653      0.00000     0.40232    0.00115     0.40347
      H   15    0.09948      0.00000     0.39908    0.00144     0.40052
      H   16    0.09772      0.00000     0.40089    0.00139     0.40228
      H   17    0.09169      0.00000     0.40709    0.00122     0.40831
      H   18    0.09423      0.00000     0.40422    0.00156     0.40577
      H   19    0.09337      0.00000     0.40522    0.00142     0.40663
      H   20    0.10264      0.00000     0.39575    0.00161     0.39736
      H   21    0.10021      0.00000     0.39811    0.00167     0.39979
      H   22    0.09736      0.00000     0.40091    0.00174     0.40264
      H   23    0.09790      0.00000     0.40056    0.00153     0.40210
      H   24    0.09593      0.00000     0.40247    0.00160     0.40407
      H   25    0.10144      0.00000     0.39731    0.00125     0.39856
      H   26    0.09347      0.00000     0.40485    0.00168     0.40653
      H   27    0.09719      0.00000     0.40162    0.00119     0.40281
      H   28    0.09255      0.00000     0.40583    0.00162     0.40745
      H   29    0.09256      0.00000     0.40595    0.00149     0.40744
      H   30    0.09749      0.00000     0.40131    0.00120     0.40251
      H   31    0.09593      0.00000     0.40263    0.00144     0.40407
      H   32    0.09908      0.00000     0.39967    0.00125     0.40092
      H   33    0.10597      0.00000     0.39270    0.00133     0.39403
      H   34    0.10455      0.00000     0.39370    0.00175     0.39545
      H   35    0.10173      0.00000     0.39685    0.00143     0.39827
 =======================================================================
   * Total *   -0.00000     12.99455    36.86412    0.14133    50.00000

 Normal termination of Gaussian 16 at Mon Dec 14 17:30:28 2020.
