 Gaussian 16, Revision A.03,

 -----------------------------------------------------------
 # opt freq B3LYP/6-31G(d) empiricaldispersion=gd3bj scf=xqc
 -----------------------------------------------------------

 -------------------------------
 CID_133349097_JID_7986_neutraal
 -------------------------------
 Symbolic Z-matrix:
 Charge =  0 Multiplicity = 1

 SCF Done:  E(RB3LYP) =  -728.920761263     A.U. after   14 cycles
 SCF Done:  E(RB3LYP) =  -728.928929723     A.U. after   12 cycles
 SCF Done:  E(RB3LYP) =  -728.930900422     A.U. after   12 cycles
 SCF Done:  E(RB3LYP) =  -728.931985187     A.U. after   12 cycles
 SCF Done:  E(RB3LYP) =  -728.932639140     A.U. after   12 cycles
 SCF Done:  E(RB3LYP) =  -728.933350540     A.U. after   11 cycles
 SCF Done:  E(RB3LYP) =  -728.934144426     A.U. after   12 cycles
 SCF Done:  E(RB3LYP) =  -728.934296565     A.U. after   12 cycles
 SCF Done:  E(RB3LYP) =  -728.934728794     A.U. after   11 cycles
 SCF Done:  E(RB3LYP) =  -728.934945322     A.U. after   11 cycles
 SCF Done:  E(RB3LYP) =  -728.937427389     A.U. after   11 cycles
 SCF Done:  E(RB3LYP) =  -728.937428540     A.U. after    7 cycles
 SCF Done:  E(RB3LYP) =  -728.937428468     A.U. after    9 cycles
 SCF Done:  E(RB3LYP) =  -728.937428798     A.U. after    8 cycles
 SCF Done:  E(RB3LYP) =  -728.937428940     A.U. after    8 cycles
 SCF Done:  E(RB3LYP) =  -728.937428934     A.U. after    6 cycles
 Optimization completed.
    -- Stationary point found.
 Normal termination of Gaussian 16 at Fri Dec 11 14:38:25 2020.

 --------------------------------------------------------------------
 #N Geom=AllCheck Guess=TCheck SCRF=Check GenChk RB3LYP/6-31G(d) Freq
 --------------------------------------------------------------------

 Structure from the checkpoint file:  "JID_7986.chk"
 -------------------------------
 CID_133349097_JID_7986_neutraal
 -------------------------------
 Charge =  0 Multiplicity = 1

 SCF Done:  E(RB3LYP) =  -728.937428934     A.U. after    1 cycles

  Exact polarizability: 222.298   7.145 169.804   2.062  12.170 121.148
 Approx polarizability: 302.515   5.519 254.381   6.004  23.580 172.200

                      1                      2                      3
                      A                      A                      A
 Frequencies --     16.1259                35.6878                43.5140
 Red. masses --      3.0120                 3.1954                 3.5650
 Frc consts  --      0.0005                 0.0024                 0.0040
 IR Inten    --      0.2923                 0.1622                 0.7571

                      4                      5                      6
                      A                      A                      A
 Frequencies --     58.9541                83.4211                98.1358
 Red. masses --      3.5702                 2.4126                 2.2880
 Frc consts  --      0.0073                 0.0099                 0.0130
 IR Inten    --      0.0572                 1.0261                 2.3909

                      7                      8                      9
                      A                      A                      A
 Frequencies --    110.9971               112.0543               131.9485
 Red. masses --      2.1741                 1.6898                 1.2644
 Frc consts  --      0.0158                 0.0125                 0.0130
 IR Inten    --      1.1806                 2.2846                 0.9515

                     10                     11                     12
                      A                      A                      A
 Frequencies --    149.6504               167.1250               179.3741
 Red. masses --      1.5013                 3.0507                 2.0745
 Frc consts  --      0.0198                 0.0502                 0.0393
 IR Inten    --      0.2138                 2.2237                 1.3067

                     13                     14                     15
                      A                      A                      A
 Frequencies --    198.3204               231.7077               248.3444
 Red. masses --      1.4228                 1.2653                 1.5050
 Frc consts  --      0.0330                 0.0400                 0.0547
 IR Inten    --      1.1094                 1.1145                 3.2962

                     16                     17                     18
                      A                      A                      A
 Frequencies --    257.3169               283.9213               294.5169
 Red. masses --      1.7730                 2.2685                 3.3142
 Frc consts  --      0.0692                 0.1077                 0.1694
 IR Inten    --      2.1251                 0.0626                 9.2039

                     19                     20                     21
                      A                      A                      A
 Frequencies --    308.6322               311.2888               341.3983
 Red. masses --      3.0437                 2.5799                 3.0936
 Frc consts  --      0.1708                 0.1473                 0.2124
 IR Inten    --      3.1932                 0.2859                 1.2513

                     22                     23                     24
                      A                      A                      A
 Frequencies --    365.4233               387.3994               426.7881
 Red. masses --      2.6825                 2.8910                 2.5114
 Frc consts  --      0.2110                 0.2556                 0.2695
 IR Inten    --      0.9567                 1.4939                 2.7659

                     25                     26                     27
                      A                      A                      A
 Frequencies --    455.8109               474.0843               491.4164
 Red. masses --      2.3292                 3.3031                 2.6196
 Frc consts  --      0.2851                 0.4374                 0.3727
 IR Inten    --      2.2640                 4.1419                 7.0922

                     28                     29                     30
                      A                      A                      A
 Frequencies --    555.8098               596.4343               609.6381
 Red. masses --      2.9385                 4.1434                 3.3406
 Frc consts  --      0.5349                 0.8684                 0.7315
 IR Inten    --      1.9770                 8.2639                 2.9373

                     31                     32                     33
                      A                      A                      A
 Frequencies --    716.8318               726.4900               754.4018
 Red. masses --      4.5140                 5.0943                 3.6809
 Frc consts  --      1.3666                 1.5841                 1.2343
 IR Inten    --      0.8085                 0.2345                 7.5462

                     34                     35                     36
                      A                      A                      A
 Frequencies --    792.5356               797.1754               809.8769
 Red. masses --      2.3303                 1.6461                 2.7726
 Frc consts  --      0.8624                 0.6163                 1.0715
 IR Inten    --     11.7733                 6.3443                11.9517

                     37                     38                     39
                      A                      A                      A
 Frequencies --    856.7666               873.1267               890.7127
 Red. masses --      2.9527                 2.7657                 2.2019
 Frc consts  --      1.2770                 1.2422                 1.0292
 IR Inten    --      2.6912                 3.0399                 7.5970

                     40                     41                     42
                      A                      A                      A
 Frequencies --    912.0925               929.7735               968.9443
 Red. masses --      1.3950                 1.5304                 1.3724
 Frc consts  --      0.6838                 0.7795                 0.7592
 IR Inten    --      4.0362                 2.2432                 6.5777

                     43                     44                     45
                      A                      A                      A
 Frequencies --    985.2128              1021.6715              1033.9234
 Red. masses --      1.9085                 1.7373                 1.6662
 Frc consts  --      1.0914                 1.0684                 1.0494
 IR Inten    --     19.7645                 4.4435                40.8385

                     46                     47                     48
                      A                      A                      A
 Frequencies --   1061.2150              1071.1610              1081.1156
 Red. masses --      2.0731                 2.1591                 1.4217
 Frc consts  --      1.3756                 1.4596                 0.9791
 IR Inten    --      6.1326                68.5270                 2.2470

                     49                     50                     51
                      A                      A                      A
 Frequencies --   1106.8553              1115.2956              1121.0757
 Red. masses --      2.0753                 1.9496                 1.6371
 Frc consts  --      1.4980                 1.4288                 1.2123
 IR Inten    --      6.2206                 5.4684                 8.1159

                     52                     53                     54
                      A                      A                      A
 Frequencies --   1130.7448              1152.2925              1160.5611
 Red. masses --      1.5973                 1.5182                 1.3170
 Frc consts  --      1.2033                 1.1877                 1.0451
 IR Inten    --      3.3029                46.2858                19.7138

                     55                     56                     57
                      A                      A                      A
 Frequencies --   1177.0745              1215.1421              1235.1187
 Red. masses --      2.1418                 2.2201                 2.9746
 Frc consts  --      1.7484                 1.9314                 2.6736
 IR Inten    --     78.3325                10.6759                 5.1191

                     58                     59                     60
                      A                      A                      A
 Frequencies --   1260.4088              1288.2848              1302.9433
 Red. masses --      3.4293                 1.6848                 1.5755
 Frc consts  --      3.2098                 1.6475                 1.5759
 IR Inten    --     22.2393                63.3411                56.6676

                     61                     62                     63
                      A                      A                      A
 Frequencies --   1312.9247              1316.6512              1323.0429
 Red. masses --      1.5020                 1.5487                 2.1226
 Frc consts  --      1.5255                 1.5818                 2.1891
 IR Inten    --      5.7496                15.0071                 3.0080

                     64                     65                     66
                      A                      A                      A
 Frequencies --   1327.1938              1385.1015              1393.9724
 Red. masses --      1.8026                 2.0276                 1.4700
 Frc consts  --      1.8708                 2.2919                 1.6829
 IR Inten    --      0.8497                11.2966                30.5315

                     67                     68                     69
                      A                      A                      A
 Frequencies --   1395.5588              1405.9160              1412.8801
 Red. masses --      1.3981                 1.9506                 1.3992
 Frc consts  --      1.6043                 2.2717                 1.6457
 IR Inten    --     16.3678                71.6777                 4.8532

                     70                     71                     72
                      A                      A                      A
 Frequencies --   1429.8365              1442.1767              1444.7648
 Red. masses --      1.6920                 1.2844                 1.3374
 Frc consts  --      2.0381                 1.5740                 1.6447
 IR Inten    --     15.6694                10.4417                33.6047

                     73                     74                     75
                      A                      A                      A
 Frequencies --   1446.5702              1461.9791              1472.5646
 Red. masses --      1.2646                 1.4640                 1.3904
 Frc consts  --      1.5592                 1.8436                 1.7763
 IR Inten    --     12.2025               302.4094                92.2993

                     76                     77                     78
                      A                      A                      A
 Frequencies --   1503.0302              1507.3703              1509.6039
 Red. masses --      1.2760                 1.0699                 1.2118
 Frc consts  --      1.6984                 1.4323                 1.6271
 IR Inten    --    164.8058                10.4792                13.4226

                     79                     80                     81
                      A                      A                      A
 Frequencies --   1512.7922              1515.4092              1519.9715
 Red. masses --      1.0834                 1.0812                 1.1801
 Frc consts  --      1.4609                 1.4629                 1.6063
 IR Inten    --      1.9397                 4.9990                40.8438

                     82                     83                     84
                      A                      A                      A
 Frequencies --   1522.3411              1524.7309              1527.6526
 Red. masses --      1.1066                 1.0994                 1.0804
 Frc consts  --      1.5111                 1.5059                 1.4856
 IR Inten    --     12.1264                 3.5506                10.5352

                     85                     86                     87
                      A                      A                      A
 Frequencies --   1532.0235              1534.3682              1537.7270
 Red. masses --      1.1507                 1.1409                 1.1051
 Frc consts  --      1.5913                 1.5825                 1.5395
 IR Inten    --     43.6855                13.1765                15.2287

                     88                     89                     90
                      A                      A                      A
 Frequencies --   1538.3661              1541.4755              1556.2328
 Red. masses --      1.0703                 1.1077                 1.1588
 Frc consts  --      1.4923                 1.5507                 1.6535
 IR Inten    --     19.4106                12.8389                35.0364

                     91                     92                     93
                      A                      A                      A
 Frequencies --   1571.1287              1594.9512              1652.7066
 Red. masses --      2.1719                 3.9913                 6.1824
 Frc consts  --      3.1588                 5.9822                 9.9495
 IR Inten    --    238.9970               347.9279               522.4418

                     94                     95                     96
                      A                      A                      A
 Frequencies --   2992.9292              3017.9930              3029.4158
 Red. masses --      1.0741                 1.0530                 1.0633
 Frc consts  --      5.6687                 5.6508                 5.7492
 IR Inten    --     59.8758                47.7964                19.4648

                     97                     98                     99
                      A                      A                      A
 Frequencies --   3029.6336              3038.8218              3042.3264
 Red. masses --      1.0406                 1.0419                 1.0591
 Frc consts  --      5.6275                 5.6686                 5.7755
 IR Inten    --     28.1475                71.5001               128.4305

                    100                    101                    102
                      A                      A                      A
 Frequencies --   3043.6568              3049.9252              3053.7305
 Red. masses --      1.0679                 1.0363                 1.0359
 Frc consts  --      5.8287                 5.6795                 5.6917
 IR Inten    --     75.4902                21.4910                15.9659

                    103                    104                    105
                      A                      A                      A
 Frequencies --   3063.8292              3070.1141              3074.8926
 Red. masses --      1.1024                 1.1012                 1.1038
 Frc consts  --      6.0970                 6.1156                 6.1492
 IR Inten    --     32.4926                18.3819                30.3446

                    106                    107                    108
                      A                      A                      A
 Frequencies --   3089.7629              3101.7064              3114.2536
 Red. masses --      1.0986                 1.0841                 1.1015
 Frc consts  --      6.1794                 6.1452                 6.2942
 IR Inten    --     27.5726                42.8435                15.5202

                    109                    110                    111
                      A                      A                      A
 Frequencies --   3114.8772              3117.0580              3123.5464
 Red. masses --      1.1020                 1.1021                 1.1023
 Frc consts  --      6.2998                 6.3090                 6.3363
 IR Inten    --     45.9521                55.6240                45.8634

                    112                    113                    114
                      A                      A                      A
 Frequencies --   3128.9276              3141.9640              3157.9520
 Red. masses --      1.1025                 1.0902                 1.0887
 Frc consts  --      6.3596                 6.3413                 6.3971
 IR Inten    --     26.5388                48.6226                 9.2695

                    115                    116                    117
                      A                      A                      A
 Frequencies --   3159.8252              3161.3778              3171.4033
 Red. masses --      1.0998                 1.0935                 1.0957
 Frc consts  --      6.4697                 6.4391                 6.4930
 IR Inten    --     16.3992                 3.2557                14.8871

 - Thermochemistry -
 -------------------
 Temperature   298.150 Kelvin.  Pressure   1.00000 Atm.
 Atom     1 has atomic number  6 and mass  12.00000

 Molecular mass:   236.20010 amu.
 Principal axes and moments of inertia in atomic units:
                           1         2         3
     Eigenvalues --  2545.364606455.853687508.44863
           X            0.99997   0.00707  -0.00237
           Y           -0.00705   0.99995   0.00729
           Z            0.00242  -0.00728   0.99997
 This molecule is an asymmetric top.
 Rotational symmetry number  1.
 Warning -- assumption of classical behavior for rotation
           may cause significant error
 Rotational temperatures (Kelvin)      0.03403     0.01342     0.01154
 Rotational constants (GHZ):           0.70903     0.27955     0.24036
 Zero-point vibrational energy     965009.6 (Joules/Mol)
                                  230.64282 (Kcal/Mol)
 Warning -- explicit consideration of  30 degrees of freedom as
           vibrations may cause significant error
 Vibrational temperatures:     23.20    51.35    62.61    84.82   120.02
          (Kelvin)            141.20   159.70   161.22   189.84   215.31
                              240.46   258.08   285.34   333.38   357.31
                              370.22   408.50   423.74   444.05   447.88
                              491.20   525.76   557.38   614.05   655.81
                              682.10   707.04   799.69   858.14   877.13
                             1031.36  1045.26  1085.42  1140.28  1146.96
                             1165.23  1232.70  1256.23  1281.54  1312.30
                             1337.74  1394.09  1417.50  1469.96  1487.59
                             1526.85  1541.16  1555.48  1592.52  1604.66
                             1612.98  1626.89  1657.89  1669.79  1693.55
                             1748.32  1777.06  1813.45  1853.55  1874.64
                             1889.01  1894.37  1903.56  1909.54  1992.85
                             2005.62  2007.90  2022.80  2032.82  2057.22
                             2074.97  2078.69  2081.29  2103.46  2118.69
                             2162.53  2168.77  2171.98  2176.57  2180.34
                             2186.90  2190.31  2193.75  2197.95  2204.24
                             2207.61  2212.45  2213.37  2217.84  2239.07
                             2260.50  2294.78  2377.88  4306.16  4342.22
                             4358.65  4358.97  4372.19  4377.23  4379.14
                             4388.16  4393.64  4408.17  4417.21  4424.08
                             4445.48  4462.66  4480.72  4481.61  4484.75
                             4494.09  4501.83  4520.59  4543.59  4546.28
                             4548.52  4562.94

 Zero-point correction=                           0.367553 (Hartree/Particle)
 Thermal correction to Energy=                    0.387017
 Thermal correction to Enthalpy=                  0.387962
 Thermal correction to Gibbs Free Energy=         0.318394
 Sum of electronic and zero-point Energies=           -728.569876
 Sum of electronic and thermal Energies=              -728.550411
 Sum of electronic and thermal Enthalpies=            -728.549467
 Sum of electronic and thermal Free Energies=         -728.619035

                     E (Thermal)             CV                S
                      KCal/Mol        Cal/Mol-Kelvin    Cal/Mol-Kelvin
 Total                  242.857             70.885            146.417
 Electronic               0.000              0.000              0.000
 Translational            0.889              2.981             42.280
 Rotational               0.889              2.981             33.178
 Vibrational            241.080             64.923             70.959
 Vibration     1          0.593              1.986              7.062
 Vibration     2          0.594              1.982              5.485
 Vibration     3          0.595              1.980              5.092
 Vibration     4          0.596              1.974              4.492
 Vibration     5          0.600              1.961              3.809
 Vibration     6          0.604              1.950              3.491
 Vibration     7          0.607              1.940              3.251
 Vibration     8          0.607              1.939              3.233
 Vibration     9          0.612              1.921              2.917
 Vibration    10          0.618              1.903              2.677
 Vibration    11          0.624              1.883              2.468
 Vibration    12          0.629              1.868              2.335
 Vibration    13          0.637              1.842              2.149
 Vibration    14          0.653              1.792              1.866
 Vibration    15          0.662              1.766              1.742
 Vibration    16          0.667              1.750              1.680
 Vibration    17          0.682              1.703              1.510
 Vibration    18          0.689              1.684              1.448
 Vibration    19          0.698              1.657              1.370
 Vibration    20          0.700              1.652              1.355
 Vibration    21          0.721              1.593              1.206
 Vibration    22          0.739              1.543              1.099
 Vibration    23          0.756              1.497              1.010
 Vibration    24          0.788              1.412              0.869
 Vibration    25          0.814              1.348              0.778
 Vibration    26          0.831              1.308              0.726
 Vibration    27          0.847              1.269              0.680
 Vibration    28          0.911              1.127              0.532
 Vibration    29          0.954              1.039              0.456
 Vibration    30          0.969              1.011              0.433

 Optimization completed.
    -- Stationary point found.
 Normal termination of Gaussian 16 at Fri Dec 11 14:58:13 2020.

 ----------------------------------------------------------------------
 # B3LYP/6-311++G(d,p) empiricaldispersion=gd3bj scf=xqc pop=npa geom=c
 heck
 ----------------------------------------------------------------------

 ---------------------------------------
 CID_133349097_JID_7986_Energie_neutraal
 ---------------------------------------
 Structure from the checkpoint file:  "JID_7986.chk"
 Charge =  0 Multiplicity = 1

 SCF Done:  E(RB3LYP) =  -729.130837746     A.U. after   14 cycles
 Normal termination of Gaussian 16 at Fri Dec 11 15:07:03 2020.

 ----------------------------------------------------------------------
 # B3LYP/6-311++G(d,p) empiricaldispersion=gd3bj scf=xqc pop=npa geom=c
 heck
 ----------------------------------------------------------------------

 -------------------------------------
 CID_133349097_JID_7986_Energie_kation
 -------------------------------------
 Structure from the checkpoint file:  "JID_7986.chk"
 Charge =  1 Multiplicity = 2

 SCF Done:  E(UB3LYP) =  -728.875945296     A.U. after   21 cycles
 Normal termination of Gaussian 16 at Fri Dec 11 15:26:08 2020.
 Gaussian 16:  ES64L-G16RevA.03 25-Dec-2016

 ----------------------------------------------------------------------
 # B3LYP/6-311++G(d,p) empiricaldispersion=gd3bj scf=xqc pop=npa geom=c
 heck
 ----------------------------------------------------------------------

 ------------------------------------
 CID_133349097_JID_7986_Energie_anion
 ------------------------------------
 Structure from the checkpoint file:  "JID_7986.chk"
 Charge = -1 Multiplicity = 2

                         Standard orientation:
 ---------------------------------------------------------------------
 Center     Atomic      Atomic             Coordinates (Angstroms)
 Number     Number       Type             X           Y           Z
 ---------------------------------------------------------------------
      1          6           0        3.349882   -1.674784    1.818688
      2          6           0        3.515315   -2.029876    0.340081
      3          6           0        2.366665   -1.504219   -0.529224
      4          7           0        2.252485   -0.049426   -0.461158
      5          6           0        3.386002    0.684634   -1.006897
      6          6           0        1.004844    0.542754   -0.362201
      7          7           0       -0.051404   -0.235891   -0.634395
      8          6           0       -1.279863    0.303590   -0.555129
      9          7           0       -1.552717    1.583408   -0.227789
     10          6           0       -0.486203    2.320121    0.087115
     11          6           0        0.836851    1.888986    0.064773
     12          6           0        1.928232    2.764444    0.627819
     13          7           0       -2.333249   -0.521249   -0.858566
     14          6           0       -2.086723   -1.924692   -1.136001
     15          6           0       -3.709049   -0.112518   -0.600059
     16          6           0       -4.280200   -0.675568    0.710703
     17          6           0       -3.465980   -0.278344    1.943963
     18          1           0        2.417615   -2.090739    2.219075
     19          1           0        3.309558   -0.589086    1.956777
     20          1           0        4.179233   -2.065271    2.418275
     21          1           0        4.475817   -1.647250   -0.030068
     22          1           0        3.555689   -3.119815    0.215088
     23          1           0        2.509332   -1.824040   -1.574362
     24          1           0        1.417163   -1.921725   -0.194507
     25          1           0        3.832149    0.100849   -1.822910
     26          1           0        3.057726    1.634715   -1.427157
     27          1           0        4.169170    0.880470   -0.263999
     28          1           0       -0.700887    3.338525    0.414589
     29          1           0        2.616261    2.182723    1.252155
     30          1           0        2.534288    3.274149   -0.131389
     31          1           0        1.487857    3.543285    1.259481
     32          1           0       -2.973060   -2.341803   -1.623337
     33          1           0       -1.225039   -2.028624   -1.796843
     34          1           0       -1.883149   -2.506481   -0.224943
     35          1           0       -3.723181    0.977092   -0.578485
     36          1           0       -4.326427   -0.446218   -1.444761
     37          1           0       -5.313046   -0.314496    0.807640
     38          1           0       -4.344005   -1.770504    0.645709
     39          1           0       -3.377815    0.810037    2.023198
     40          1           0       -3.930165   -0.657290    2.861315
     41          1           0       -2.449533   -0.683555    1.891028
 ---------------------------------------------------------------------

 SCF Done:  E(UB3LYP) =  -729.118177804     A.U. after   32 cycles

 The electronic state is 2-A.
 Alpha  occ. eigenvalues --  -14.23545 -14.23203 -14.19238 -14.19227 -10.16445
 Alpha  occ. eigenvalues --  -10.14854 -10.10797 -10.10461 -10.09868 -10.09862
 Alpha  occ. eigenvalues --  -10.09377 -10.07937 -10.07549 -10.07479 -10.06836
 Alpha  occ. eigenvalues --  -10.06659 -10.05911  -0.90320  -0.85917  -0.81993
 Alpha  occ. eigenvalues --   -0.77051  -0.70506  -0.68695  -0.67624  -0.62754
 Alpha  occ. eigenvalues --   -0.61743  -0.60170  -0.58666  -0.56230  -0.52804
 Alpha  occ. eigenvalues --   -0.51733  -0.48794  -0.46933  -0.43635  -0.42859
 Alpha  occ. eigenvalues --   -0.39254  -0.38743  -0.37965  -0.35954  -0.35407
 Alpha  occ. eigenvalues --   -0.34298  -0.33978  -0.33220  -0.32992  -0.32709
 Alpha  occ. eigenvalues --   -0.32144  -0.31547  -0.30587  -0.30026  -0.29615
 Alpha  occ. eigenvalues --   -0.29065  -0.28694  -0.27520  -0.26466  -0.25920
 Alpha  occ. eigenvalues --   -0.25586  -0.24934  -0.24600  -0.23950  -0.22049
 Alpha  occ. eigenvalues --   -0.20631  -0.19509  -0.14479  -0.12878  -0.10462
 Alpha  occ. eigenvalues --    0.04117
 Alpha virt. eigenvalues --    0.05632   0.06748   0.07167   0.07368   0.07668
 Alpha virt. eigenvalues --    0.07862   0.08340   0.09184   0.09464   0.09899
 Alpha virt. eigenvalues --    0.10267   0.10293   0.10707   0.10784   0.11590

  Beta  occ. eigenvalues --  -14.23546 -14.23207 -14.19217 -14.19208 -10.16448
  Beta  occ. eigenvalues --  -10.14827 -10.10773 -10.10454 -10.09846 -10.09810
  Beta  occ. eigenvalues --  -10.09364 -10.07924 -10.07555 -10.07456 -10.06813
  Beta  occ. eigenvalues --  -10.06648 -10.05886  -0.90296  -0.85899  -0.81973
  Beta  occ. eigenvalues --   -0.77010  -0.70482  -0.68674  -0.67590  -0.62711
  Beta  occ. eigenvalues --   -0.61708  -0.60122  -0.58622  -0.56184  -0.52747
  Beta  occ. eigenvalues --   -0.51701  -0.48744  -0.46885  -0.43607  -0.42831
  Beta  occ. eigenvalues --   -0.39232  -0.38710  -0.37927  -0.35927  -0.35375
  Beta  occ. eigenvalues --   -0.34270  -0.33940  -0.33192  -0.32959  -0.32680
  Beta  occ. eigenvalues --   -0.32107  -0.31523  -0.30542  -0.29980  -0.29593
  Beta  occ. eigenvalues --   -0.29034  -0.28676  -0.27483  -0.26444  -0.25895
  Beta  occ. eigenvalues --   -0.25542  -0.24915  -0.24563  -0.23914  -0.21943
  Beta  occ. eigenvalues --   -0.20596  -0.19442  -0.14454  -0.12843  -0.10424
  Beta virt. eigenvalues --    0.05889   0.06474   0.07136   0.07585   0.07648
  Beta virt. eigenvalues --    0.08145   0.08227   0.08568   0.09327   0.09784
  Beta virt. eigenvalues --    0.10132   0.10453   0.10701   0.10975   0.11018

 Mulliken charges and spin densities:
               1          2
     1  C    0.554069  -1.023898
     2  C   -0.226419  -0.055797
     3  C   -0.213748  -0.035285
     4  N    0.290403   0.112670
     5  C    1.174494  -1.511818
     6  C   -1.089763   0.667005
     7  N   -0.334124   0.079944
     8  C   -0.528148  -0.073348
     9  N   -0.121597   0.044064
    10  C    0.372386  -0.521788
    11  C   -0.141238   0.788882
    12  C    0.513603  -1.300495
    13  N    0.035569   0.089228
    14  C    0.361761  -0.696803
    15  C   -0.104099  -0.108414
    16  C   -0.097248  -0.111365
    17  C   -0.171104  -0.360642
    18  H   -0.037037   0.161556
    19  H   -0.056287   0.200428
    20  H   -0.178473   0.327096
    21  H   -0.124586   0.261375
    22  H   -0.356591   0.507842
    23  H   -0.081824   0.244428
    24  H    0.356187  -0.198555
    25  H   -0.507991   0.679170
    26  H   -0.021014   0.168068
    27  H   -0.256671   0.450354
    28  H    0.025131   0.122708
    29  H    0.017064   0.153273
    30  H   -0.087871   0.241886
    31  H   -0.038548   0.175823
    32  H   -0.228766   0.358999
    33  H    0.100432   0.096809
    34  H   -0.073914   0.253827
    35  H    0.175389   0.035978
    36  H    0.035284   0.123177
    37  H   -0.077597   0.213820
    38  H    0.011739   0.124143
    39  H    0.155470  -0.010948
    40  H   -0.110671   0.254180
    41  H    0.086350   0.072420
 Sum of Mulliken charges =  -1.00000   1.00000

 Dipole moment (field-independent basis, Debye):
    X=             -5.0809    Y=              2.0033    Z=              0.1320  Tot=              5.4632
 Quadrupole moment (field-independent basis, Debye-Ang):
   XX=           -197.7754   YY=           -152.8136   ZZ=           -144.9628
   XY=              0.1112   XZ=              3.3494   YZ=              2.1707

 Summary of Natural Population Analysis:

                                       Natural Population
                Natural  -----------------------------------------------
    Atom  No    Charge         Core      Valence    Rydberg      Total
 -----------------------------------------------------------------------
      C    1   -0.28560      0.99966     2.28138    0.00456     3.28560
      C    2   -0.19488      0.99964     2.18771    0.00753     3.19488
      C    3   -0.08247      0.99960     2.07094    0.01193     3.08247
      N    4   -0.25695      0.99965     2.74522    0.01208     3.75695
      C    5   -0.17556      0.99963     2.16727    0.00866     3.17556
      C    6    0.24075      0.99947     1.74580    0.01399     2.75925
      N    7   -0.29549      0.99963     2.78698    0.00889     3.79549
      C    8    0.31188      0.99957     1.67087    0.01768     2.68812
      N    9   -0.28988      0.99967     2.77986    0.01035     3.78988
      C   10    0.05750      0.99954     1.92944    0.01352     2.94250
      C   11   -0.09788      0.99947     2.08951    0.00890     3.09788
      C   12   -0.29184      0.99965     2.28618    0.00602     3.29184
      N   13   -0.24943      0.99964     2.73859    0.01120     3.74943
      C   14   -0.17721      0.99964     2.16909    0.00848     3.17721
      C   15   -0.08298      0.99960     2.07222    0.01116     3.08298
      C   16   -0.19639      0.99964     2.18943    0.00732     3.19639
      C   17   -0.28885      0.99967     2.28442    0.00476     3.28885
      H   18    0.09596      0.00000     0.40278    0.00126     0.40404
      H   19    0.09902      0.00000     0.39950    0.00148     0.40098
      H   20    0.09747      0.00000     0.40148    0.00105     0.40253
      H   21    0.09541      0.00000     0.40301    0.00158     0.40459
      H   22    0.09716      0.00000     0.40162    0.00122     0.40284
      H   23    0.08978      0.00000     0.40889    0.00133     0.41022
      H   24    0.11133      0.00000     0.38677    0.00190     0.38867
      H   25    0.09766      0.00000     0.40076    0.00158     0.40234
      H   26    0.10171      0.00000     0.39709    0.00119     0.39829
      H   27    0.09463      0.00000     0.40370    0.00168     0.40537
      H   28    0.08487      0.00000     0.41397    0.00117     0.41513
      H   29    0.10545      0.00000     0.39304    0.00152     0.39455
      H   30    0.10084      0.00000     0.39799    0.00118     0.39916
      H   31    0.10069      0.00000     0.39835    0.00096     0.39931
      H   32    0.09260      0.00000     0.40645    0.00096     0.40740
      H   33    0.10929      0.00000     0.38951    0.00120     0.39071
      H   34    0.09205      0.00000     0.40664    0.00131     0.40795
      H   35    0.11370      0.00000     0.38458    0.00172     0.38630
      H   36    0.09047      0.00000     0.40863    0.00090     0.40953
      H   37    0.09366      0.00000     0.40523    0.00112     0.40634
      H   38    0.09348      0.00000     0.40533    0.00119     0.40652
      H   39    0.10114      0.00000     0.39770    0.00116     0.39886
      H   40    0.09593      0.00000     0.40320    0.00087     0.40407
      H   41    0.10099      0.00000     0.39782    0.00118     0.39901
 =======================================================================
   * Total *    0.00000     16.99336    47.80893    0.19771    65.00000

 Normal termination of Gaussian 16 at Fri Dec 11 15:55:07 2020.
