 Gaussian 16, Revision A.03,

 -----------------------------------------------------------
 # opt freq B3LYP/6-31G(d) empiricaldispersion=gd3bj scf=xqc
 -----------------------------------------------------------

 ------------------------------
 CID_14338037_JID_4257_neutraal
 ------------------------------
 Symbolic Z-matrix:
 Charge =  0 Multiplicity = 1

 SCF Done:  E(RB3LYP) =  -905.696571085     A.U. after   15 cycles
 SCF Done:  E(RB3LYP) =  -905.699899438     A.U. after   12 cycles
 SCF Done:  E(RB3LYP) =  -905.700293240     A.U. after   12 cycles
 SCF Done:  E(RB3LYP) =  -905.700343390     A.U. after   11 cycles
 SCF Done:  E(RB3LYP) =  -905.700365844     A.U. after    9 cycles
 SCF Done:  E(RB3LYP) =  -905.700371131     A.U. after    9 cycles
 SCF Done:  E(RB3LYP) =  -905.700376430     A.U. after   10 cycles
 SCF Done:  E(RB3LYP) =  -905.700379571     A.U. after   10 cycles
 SCF Done:  E(RB3LYP) =  -905.700382359     A.U. after   10 cycles
 SCF Done:  E(RB3LYP) =  -905.700383792     A.U. after    9 cycles
 SCF Done:  E(RB3LYP) =  -905.700383862     A.U. after    7 cycles
 SCF Done:  E(RB3LYP) =  -905.700383863     A.U. after    6 cycles
 Optimization completed.
    -- Stationary point found.
 Normal termination of Gaussian 16 at Thu Dec 10 09:22:09 2020.

 --------------------------------------------------------------------
 #N Geom=AllCheck Guess=TCheck SCRF=Check GenChk RB3LYP/6-31G(d) Freq
 --------------------------------------------------------------------

 Structure from the checkpoint file:  "JID_4257.chk"
 ------------------------------
 CID_14338037_JID_4257_neutraal
 ------------------------------
 Charge =  0 Multiplicity = 1

 SCF Done:  E(RB3LYP) =  -905.700383863     A.U. after    1 cycles

  Exact polarizability: 187.312   2.737 141.654  -4.885  10.757 115.702
 Approx polarizability: 245.961   3.827 229.806 -11.311  31.681 181.001

                      1                      2                      3
                      A                      A                      A
 Frequencies --     18.0402                47.4928                70.1368
 Red. masses --      3.6090                 3.4696                 2.9766
 Frc consts  --      0.0007                 0.0046                 0.0086
 IR Inten    --      0.0425                 0.1353                 0.0857

                      4                      5                      6
                      A                      A                      A
 Frequencies --    107.0180               140.0822               147.4182
 Red. masses --      2.6826                 2.6486                 3.6084
 Frc consts  --      0.0181                 0.0306                 0.0462
 IR Inten    --      0.2638                 0.1261                 0.0216

                      7                      8                      9
                      A                      A                      A
 Frequencies --    180.8077               215.8106               227.9406
 Red. masses --      2.1667                 1.5264                 1.4577
 Frc consts  --      0.0417                 0.0419                 0.0446
 IR Inten    --      0.5898                 0.5192                 0.5939

                     10                     11                     12
                      A                      A                      A
 Frequencies --    265.5310               275.4335               307.3895
 Red. masses --      1.8282                 1.8244                 2.6283
 Frc consts  --      0.0759                 0.0815                 0.1463
 IR Inten    --      0.4191                 1.0773                 0.8835

                     13                     14                     15
                      A                      A                      A
 Frequencies --    336.2967               363.5237               374.5536
 Red. masses --      2.3754                 2.3130                 2.3974
 Frc consts  --      0.1583                 0.1801                 0.1982
 IR Inten    --      0.0323                 0.4224                 0.2168

                     16                     17                     18
                      A                      A                      A
 Frequencies --    400.0592               430.6386               466.0119
 Red. masses --      2.5614                 2.5577                 2.9731
 Frc consts  --      0.2415                 0.2795                 0.3804
 IR Inten    --      0.1528                 0.6274                 0.5533

                     19                     20                     21
                      A                      A                      A
 Frequencies --    492.6844               552.8407               597.8740
 Red. masses --      4.9307                 4.2351                 2.8689
 Frc consts  --      0.7052                 0.7626                 0.6042
 IR Inten    --      1.2264                 2.3437                 2.2144

                     22                     23                     24
                      A                      A                      A
 Frequencies --    620.5288               640.1305               693.7028
 Red. masses --      3.5964                 3.5874                 4.3447
 Frc consts  --      0.8159                 0.8661                 1.2318
 IR Inten    --      1.6333                 0.5155                 3.6359

                     25                     26                     27
                      A                      A                      A
 Frequencies --    748.9196               760.3276               800.2222
 Red. masses --      1.8299                 1.6213                 2.5295
 Frc consts  --      0.6047                 0.5522                 0.9543
 IR Inten    --      1.6553                 7.2735                 0.8487

                     28                     29                     30
                      A                      A                      A
 Frequencies --    814.6066               847.5806               871.2199
 Red. masses --      2.2173                 1.4766                 1.8967
 Frc consts  --      0.8669                 0.6250                 0.8482
 IR Inten    --      3.2367                 7.2766                 2.9732

                     31                     32                     33
                      A                      A                      A
 Frequencies --    887.7863               907.6193               934.8825
 Red. masses --      1.5784                 2.1919                 1.7922
 Frc consts  --      0.7330                 1.0639                 0.9229
 IR Inten    --      0.8554                 0.9995                 1.2158

                     34                     35                     36
                      A                      A                      A
 Frequencies --    957.4725               973.3774               986.7924
 Red. masses --      2.0300                 1.6147                 1.7596
 Frc consts  --      1.0965                 0.9014                 1.0095
 IR Inten    --      1.3091                 2.4580                 1.4155

                     37                     38                     39
                      A                      A                      A
 Frequencies --   1003.5896              1017.0632              1074.4037
 Red. masses --      2.1649                 1.9678                 1.6687
 Frc consts  --      1.2847                 1.1993                 1.1349
 IR Inten    --      3.3002                 0.7394                 0.4797

                     40                     41                     42
                      A                      A                      A
 Frequencies --   1080.7895              1088.9340              1131.2091
 Red. masses --      1.9910                 2.0574                 1.8246
 Frc consts  --      1.3703                 1.4374                 1.3757
 IR Inten    --      1.6909                 3.1174                 1.7506

                     43                     44                     45
                      A                      A                      A
 Frequencies --   1134.1437              1138.0153              1148.4182
 Red. masses --      1.7803                 1.4431                 2.2366
 Frc consts  --      1.3492                 1.1011                 1.7379
 IR Inten    --      1.1912                 2.8782                 6.9812

                     46                     47                     48
                      A                      A                      A
 Frequencies --   1180.9992              1195.2715              1207.4989
 Red. masses --      1.7808                 1.5914                 1.3746
 Frc consts  --      1.4634                 1.3396                 1.1809
 IR Inten    --      0.6327                 3.8409                 0.9613

                     49                     50                     51
                      A                      A                      A
 Frequencies --   1237.7669              1257.6382              1275.5628
 Red. masses --      1.4862                 1.4668                 1.3088
 Frc consts  --      1.3416                 1.3669                 1.2547
 IR Inten    --      3.2978                 3.6712                 0.7264

                     52                     53                     54
                      A                      A                      A
 Frequencies --   1281.0368              1331.3572              1339.3146
 Red. masses --      1.2770                 1.3238                 1.4810
 Frc consts  --      1.2347                 1.3825                 1.5652
 IR Inten    --      3.8795                 2.3773                 2.4303

                     55                     56                     57
                      A                      A                      A
 Frequencies --   1349.9677              1375.3266              1386.5657
 Red. masses --      1.3915                 1.4444                 1.5259
 Frc consts  --      1.4941                 1.6097                 1.7284
 IR Inten    --      9.2668                 5.7504                 2.7399

                     58                     59                     60
                      A                      A                      A
 Frequencies --   1396.6525              1397.8129              1401.9961
 Red. masses --      1.4730                 1.3854                 1.3593
 Frc consts  --      1.6929                 1.5949                 1.5742
 IR Inten    --      4.4447                14.8526                 2.6480

                     61                     62                     63
                      A                      A                      A
 Frequencies --   1408.4505              1438.8498              1443.0914
 Red. masses --      1.4491                 2.8637                 1.3236
 Frc consts  --      1.6937                 3.4931                 1.6240
 IR Inten    --      5.4806                 3.1120                 9.2562

                     64                     65                     66
                      A                      A                      A
 Frequencies --   1443.7729              1507.1094              1508.6875
 Red. masses --      1.2972                 1.1462                 1.0838
 Frc consts  --      1.5932                 1.5340                 1.4535
 IR Inten    --      9.2364                 3.7138                 1.8619

                     67                     68                     69
                      A                      A                      A
 Frequencies --   1513.0337              1519.1334              1520.7707
 Red. masses --      1.0790                 1.0942                 1.0812
 Frc consts  --      1.4554                 1.4878                 1.4733
 IR Inten    --      2.7941                 3.4851                 2.1988

                     70                     71                     72
                      A                      A                      A
 Frequencies --   1521.1323              1531.5573              1532.3598
 Red. masses --      1.0612                 1.1161                 1.0651
 Frc consts  --      1.4468                 1.5425                 1.4735
 IR Inten    --      3.9148                 4.2921                 5.6281

                     73                     74                     75
                      A                      A                      A
 Frequencies --   1539.8114              1540.5322              1551.9410
 Red. masses --      1.0587                 1.0785                 4.3426
 Frc consts  --      1.4790                 1.5080                 6.1624
 IR Inten    --      3.0498                 1.5146                 2.8809

                     76                     77                     78
                      A                      A                      A
 Frequencies --   1635.0985              3017.5108              3022.0874
 Red. masses --      5.9810                 1.0672                 1.0673
 Frc consts  --      9.4213                 5.7253                 5.7434
 IR Inten    --      2.5706                20.1424                29.3855

                     79                     80                     81
                      A                      A                      A
 Frequencies --   3027.1920              3032.9454              3042.2240
 Red. masses --      1.0624                 1.0709                 1.0614
 Frc consts  --      5.7363                 5.8039                 5.7876
 IR Inten    --     31.2234                10.5399                25.6718

                     82                     83                     84
                      A                      A                      A
 Frequencies --   3044.0196              3044.0871              3049.5230
 Red. masses --      1.0429                 1.0618                 1.0502
 Frc consts  --      5.6936                 5.7972                 5.7540
 IR Inten    --     22.0050                70.8869                42.9379

                     85                     86                     87
                      A                      A                      A
 Frequencies --   3051.5772              3059.5645              3062.0824
 Red. masses --      1.0613                 1.0960                 1.0902
 Frc consts  --      5.8231                 6.0445                 6.0224
 IR Inten    --     32.6724                28.6376                45.3021

                     88                     89                     90
                      A                      A                      A
 Frequencies --   3068.2511              3079.6976              3081.8823
 Red. masses --      1.1002                 1.0996                 1.1039
 Frc consts  --      6.1026                 6.1447                 6.1775
 IR Inten    --     20.5225                25.1544                50.1118

                     91                     92                     93
                      A                      A                      A
 Frequencies --   3093.5082              3109.8583              3110.3822
 Red. masses --      1.1007                 1.1009                 1.1023
 Frc consts  --      6.2064                 6.2732                 6.2834
 IR Inten    --     45.9014                51.6867                32.0715

                     94                     95                     96
                      A                      A                      A
 Frequencies --   3118.6398              3123.0895              3194.4423
 Red. masses --      1.1015                 1.1012                 1.0922
 Frc consts  --      6.3118                 6.3284                 6.5669
 IR Inten    --     55.1506                39.9330                11.9765

 - Thermochemistry -
 -------------------
 Temperature   298.150 Kelvin.  Pressure   1.00000 Atm.
 Atom     1 has atomic number  6 and mass  12.00000

 Molecular mass:   208.12857 amu.
 Principal axes and moments of inertia in atomic units:
                           1         2         3
     Eigenvalues --  1451.889365485.042415854.22058
           X            1.00000  -0.00107  -0.00004
           Y            0.00107   0.99963  -0.02713
           Z            0.00007   0.02713   0.99963
 This molecule is an asymmetric top.
 Rotational symmetry number  1.
 Warning -- assumption of classical behavior for rotation
           may cause significant error
 Rotational temperatures (Kelvin)      0.05966     0.01579     0.01480
 Rotational constants (GHZ):           1.24303     0.32903     0.30828
 Zero-point vibrational energy     798399.6 (Joules/Mol)
                                  190.82207 (Kcal/Mol)
 Warning -- explicit consideration of  22 degrees of freedom as
           vibrations may cause significant error
 Vibrational temperatures:     25.96    68.33   100.91   153.98   201.55
          (Kelvin)            212.10   260.14   310.50   327.96   382.04
                              396.29   442.26   483.86   523.03   538.90
                              575.60   619.59   670.49   708.86   795.41
                              860.21   892.80   921.01   998.08  1077.53
                             1093.94  1151.34  1172.04  1219.48  1253.49
                             1277.33  1305.86  1345.09  1377.59  1400.47
                             1419.77  1443.94  1463.33  1545.83  1555.01
                             1566.73  1627.56  1631.78  1637.35  1652.32
                             1699.19  1719.73  1737.32  1780.87  1809.46
                             1835.25  1843.13  1915.53  1926.97  1942.30
                             1978.79  1994.96  2009.47  2011.14  2017.16
                             2026.45  2070.18  2076.29  2077.27  2168.39
                             2170.66  2176.92  2185.69  2188.05  2188.57
                             2203.57  2204.72  2215.45  2216.48  2232.90
                             2352.54  4341.52  4348.11  4355.45  4363.73
                             4377.08  4379.67  4379.76  4387.58  4390.54
                             4402.03  4405.65  4414.53  4431.00  4434.14
                             4450.87  4474.39  4475.15  4487.03  4493.43
                             4596.09

 Zero-point correction=                           0.304094 (Hartree/Particle)
 Thermal correction to Energy=                    0.318577
 Thermal correction to Enthalpy=                  0.319521
 Thermal correction to Gibbs Free Energy=         0.261785
 Sum of electronic and zero-point Energies=           -905.396290
 Sum of electronic and thermal Energies=              -905.381807
 Sum of electronic and thermal Enthalpies=            -905.380863
 Sum of electronic and thermal Free Energies=         -905.438599

                     E (Thermal)             CV                S
                      KCal/Mol        Cal/Mol-Kelvin    Cal/Mol-Kelvin
 Total                  199.910             55.903            121.514
 Electronic               0.000              0.000              0.000
 Translational            0.889              2.981             41.903
 Rotational               0.889              2.981             32.211
 Vibrational            198.132             49.941             47.400
 Vibration     1          0.593              1.986              6.839
 Vibration     2          0.595              1.979              4.919
 Vibration     3          0.598              1.968              4.150
 Vibration     4          0.606              1.944              3.322
 Vibration     5          0.615              1.913              2.803
 Vibration     6          0.617              1.905              2.705
 Vibration     7          0.630              1.866              2.320
 Vibration     8          0.645              1.817              1.994
 Vibration     9          0.651              1.798              1.895
 Vibration    10          0.671              1.736              1.625
 Vibration    11          0.677              1.719              1.562
 Vibration    12          0.697              1.660              1.376
 Vibration    13          0.717              1.603              1.230
 Vibration    14          0.737              1.547              1.107
 Vibration    15          0.746              1.524              1.061
 Vibration    16          0.766              1.470              0.962
 Vibration    17          0.792              1.404              0.857
 Vibration    18          0.823              1.325              0.749
 Vibration    19          0.848              1.266              0.677
 Vibration    20          0.908              1.133              0.538
 Vibration    21          0.956              1.036              0.453
 Vibration    22          0.981              0.989              0.416

 Optimization completed.
    -- Stationary point found.
 Normal termination of Gaussian 16 at Thu Dec 10 09:32:07 2020.

 ----------------------------------------------------------------------
 # B3LYP/6-311++G(d,p) empiricaldispersion=gd3bj scf=xqc pop=npa geom=c
 heck
 ----------------------------------------------------------------------

 --------------------------------------
 CID_14338037_JID_4257_Energie_neutraal
 --------------------------------------
 Structure from the checkpoint file:  "JID_4257.chk"
 Charge =  0 Multiplicity = 1

 SCF Done:  E(RB3LYP) =  -905.859178734     A.U. after   15 cycles
 Normal termination of Gaussian 16 at Thu Dec 10 09:37:30 2020.

 ----------------------------------------------------------------------
 # B3LYP/6-311++G(d,p) empiricaldispersion=gd3bj scf=xqc pop=npa geom=c
 heck
 ----------------------------------------------------------------------

 ------------------------------------
 CID_14338037_JID_4257_Energie_kation
 ------------------------------------
 Structure from the checkpoint file:  "JID_4257.chk"
 Charge =  1 Multiplicity = 2

 SCF Done:  E(UB3LYP) =  -905.581095638     A.U. after   22 cycles
 Normal termination of Gaussian 16 at Thu Dec 10 09:49:35 2020.
 Gaussian 16:  ES64L-G16RevA.03 25-Dec-2016

 ----------------------------------------------------------------------
 # B3LYP/6-311++G(d,p) empiricaldispersion=gd3bj scf=xqc pop=npa geom=c
 heck
 ----------------------------------------------------------------------

 -----------------------------------
 CID_14338037_JID_4257_Energie_anion
 -----------------------------------
 Structure from the checkpoint file:  "JID_4257.chk"
 Charge = -1 Multiplicity = 2

                         Standard orientation:
 ---------------------------------------------------------------------
 Center     Atomic      Atomic             Coordinates (Angstroms)
 Number     Number       Type             X           Y           Z
 ---------------------------------------------------------------------
      1          6           0        4.031583   -1.577847    0.304591
      2          6           0        3.385227   -0.547137    1.234478
      3          6           0        3.443162    0.891748    0.706354
      4          6           0        2.694297    1.126464   -0.623656
      5          6           0        1.225860    0.816555   -0.545625
      6          6           0        0.227954    1.568987    0.010409
      7          6           0       -1.064967    0.951543   -0.034368
      8          6           0       -1.038566   -0.283970   -0.628139
      9         16           0        0.578110   -0.698894   -1.140901
     10          6           0       -2.228271   -1.175019   -0.847281
     11          6           0       -3.392067   -0.752057    0.076316
     12          6           0       -3.574753    0.776540    0.006926
     13          6           0       -2.339774    1.539817    0.514337
     14          6           0       -3.174936   -1.245440    1.512547
     15          1           0        3.494248   -1.660017   -0.646458
     16          1           0        4.034198   -2.573157    0.762295
     17          1           0        5.071463   -1.309837    0.078624
     18          1           0        2.339226   -0.823010    1.416398
     19          1           0        3.886927   -0.576967    2.210518
     20          1           0        3.022511    1.567456    1.461946
     21          1           0        4.492632    1.187754    0.566993
     22          1           0        2.815090    2.178482   -0.910837
     23          1           0        3.160584    0.538407   -1.421981
     24          1           0        0.406002    2.549621    0.443034
     25          1           0       -1.968208   -2.225737   -0.665064
     26          1           0       -2.553172   -1.116360   -1.896310
     27          1           0       -4.308250   -1.219265   -0.308290
     28          1           0       -3.765806    1.059267   -1.036791
     29          1           0       -4.458257    1.074393    0.584455
     30          1           0       -2.418086    2.599615    0.239877
     31          1           0       -2.311061    1.517429    1.613478
     32          1           0       -3.975824   -0.896048    2.174761
     33          1           0       -3.161312   -2.340654    1.549713
     34          1           0       -2.221162   -0.890174    1.916721
 ---------------------------------------------------------------------

 SCF Done:  E(UB3LYP) =  -905.844511630     A.U. after   31 cycles

 The electronic state is 2-A.
 Alpha  occ. eigenvalues --  -88.76510 -10.09749 -10.09086 -10.08259 -10.07732
 Alpha  occ. eigenvalues --  -10.07669 -10.07323 -10.07254 -10.07201 -10.07062
 Alpha  occ. eigenvalues --  -10.06754 -10.06619 -10.06598 -10.05807  -7.85159
 Alpha  occ. eigenvalues --   -5.81444  -5.81090  -5.80749  -0.78343  -0.73007
 Alpha  occ. eigenvalues --   -0.70476  -0.66562  -0.65573  -0.61801  -0.60935
 Alpha  occ. eigenvalues --   -0.57841  -0.55413  -0.51892  -0.48256  -0.47071
 Alpha  occ. eigenvalues --   -0.43353  -0.40326  -0.38572  -0.37095  -0.37032
 Alpha  occ. eigenvalues --   -0.35473  -0.34855  -0.33975  -0.31308  -0.30937
 Alpha  occ. eigenvalues --   -0.30422  -0.30398  -0.29204  -0.28657  -0.27763
 Alpha  occ. eigenvalues --   -0.27432  -0.25794  -0.24924  -0.24497  -0.23673
 Alpha  occ. eigenvalues --   -0.22960  -0.22844  -0.22750  -0.21596  -0.21179
 Alpha  occ. eigenvalues --   -0.14323  -0.11659   0.04278
 Alpha virt. eigenvalues --    0.05674   0.06934   0.07339   0.08093   0.08242
 Alpha virt. eigenvalues --    0.08342   0.08867   0.09661   0.09974   0.10001
 Alpha virt. eigenvalues --    0.10376   0.10881   0.11275   0.11565   0.12233

  Beta  occ. eigenvalues --  -88.76504 -10.09725 -10.09061 -10.08250 -10.07717
  Beta  occ. eigenvalues --  -10.07656 -10.07309 -10.07233 -10.07204 -10.07052
  Beta  occ. eigenvalues --  -10.06740 -10.06598 -10.06584 -10.05780  -7.85153
  Beta  occ. eigenvalues --   -5.81438  -5.81086  -5.80735  -0.78309  -0.72969
  Beta  occ. eigenvalues --   -0.70447  -0.66531  -0.65535  -0.61759  -0.60898
  Beta  occ. eigenvalues --   -0.57793  -0.55371  -0.51845  -0.48202  -0.47020
  Beta  occ. eigenvalues --   -0.43304  -0.40277  -0.38529  -0.37060  -0.36998
  Beta  occ. eigenvalues --   -0.35435  -0.34821  -0.33938  -0.31279  -0.30907
  Beta  occ. eigenvalues --   -0.30386  -0.30363  -0.29164  -0.28627  -0.27731
  Beta  occ. eigenvalues --   -0.27386  -0.25765  -0.24889  -0.24460  -0.23647
  Beta  occ. eigenvalues --   -0.22922  -0.22807  -0.22716  -0.21553  -0.21144
  Beta  occ. eigenvalues --   -0.14260  -0.11541
  Beta virt. eigenvalues --    0.06231   0.06659   0.07295   0.07735   0.08540
  Beta virt. eigenvalues --    0.08696   0.08737   0.09228   0.10094   0.10117
  Beta virt. eigenvalues --    0.10310   0.10758   0.11176   0.11494   0.11775

 Mulliken charges and spin densities:
               1          2
     1  C    0.170907  -0.739348
     2  C   -0.746616   0.442212
     3  C    0.852470  -0.960614
     4  C    0.513107  -0.369423
     5  C    0.048602   0.520218
     6  C    0.180878  -0.336962
     7  C    0.022222  -0.164502
     8  C   -0.427890   0.677587
     9  S   -0.218130  -0.493179
    10  C    0.074660  -0.720930
    11  C   -0.579595   1.233927
    12  C    0.315325  -1.016400
    13  C   -0.030823  -0.570408
    14  C    0.990719  -1.756787
    15  H    0.120280   0.010203
    16  H    0.009191   0.115119
    17  H   -0.091833   0.224628
    18  H    0.149057  -0.005699
    19  H   -0.172412   0.319071
    20  H   -0.034685   0.168533
    21  H   -0.291112   0.446036
    22  H   -0.189824   0.371252
    23  H   -0.006713   0.164153
    24  H   -0.214284   0.365324
    25  H   -0.046429   0.187126
    26  H   -0.178715   0.362384
    27  H   -0.657951   0.879503
    28  H    0.126724   0.012248
    29  H   -0.482522   0.666203
    30  H   -0.107092   0.275885
    31  H    0.108008   0.062656
    32  H   -0.161766   0.306085
    33  H   -0.045580   0.177203
    34  H    0.001822   0.146696
 Sum of Mulliken charges =  -1.00000   1.00000

 Dipole moment (field-independent basis, Debye):
    X=              2.4187    Y=             -0.7701    Z=             -0.5821  Tot=              2.6042
 Quadrupole moment (field-independent basis, Debye-Ang):
   XX=           -198.9125   YY=           -134.6679   ZZ=           -129.3485
   XY=             -8.6247   XZ=             -1.5535   YZ=              0.5454

 Summary of Natural Population Analysis:

                                       Natural Population
                Natural  -----------------------------------------------
    Atom  No    Charge         Core      Valence    Rydberg      Total
 -----------------------------------------------------------------------
      C    1   -0.28643      0.99967     2.28242    0.00435     3.28643
      C    2   -0.19569      0.99964     2.18761    0.00844     3.19569
      C    3   -0.18179      0.99962     2.17319    0.00897     3.18179
      C    4   -0.20882      0.99957     2.19799    0.01126     3.20882
      C    5   -0.08796      0.99950     2.07551    0.01295     3.08796
      C    6   -0.12387      0.99941     2.11403    0.01043     3.12387
      C    7   -0.04442      0.99942     2.03465    0.01035     3.04442
      C    8   -0.09427      0.99940     2.08249    0.01239     3.09427
      S    9    0.19971      4.99937     2.78255    0.01837     7.80029
      C   10   -0.20150      0.99956     2.19078    0.01116     3.20150
      C   11   -0.10705      0.99961     2.09631    0.01113     3.10705
      C   12   -0.18448      0.99962     2.17573    0.00913     3.18448
      C   13   -0.19525      0.99959     2.18694    0.00872     3.19525
      C   14   -0.28816      0.99965     2.28177    0.00674     3.28816
      H   15    0.09656      0.00000     0.40233    0.00111     0.40344
      H   16    0.09754      0.00000     0.40159    0.00087     0.40246
      H   17    0.09444      0.00000     0.40439    0.00117     0.40556
      H   18    0.09975      0.00000     0.39894    0.00132     0.40025
      H   19    0.09495      0.00000     0.40404    0.00101     0.40505
      H   20    0.09726      0.00000     0.40137    0.00137     0.40274
      H   21    0.09508      0.00000     0.40324    0.00168     0.40492
      H   22    0.10860      0.00000     0.39005    0.00135     0.39140
      H   23    0.10135      0.00000     0.39748    0.00118     0.39865
      H   24    0.10475      0.00000     0.39422    0.00103     0.39525
      H   25    0.10313      0.00000     0.39581    0.00106     0.39687
      H   26    0.10643      0.00000     0.39211    0.00146     0.39357
      H   27    0.09928      0.00000     0.39799    0.00273     0.40072
      H   28    0.09756      0.00000     0.40098    0.00147     0.40244
      H   29    0.10041      0.00000     0.39826    0.00133     0.39959
      H   30    0.10388      0.00000     0.39501    0.00111     0.39612
      H   31    0.10084      0.00000     0.39790    0.00126     0.39916
      H   32    0.09984      0.00000     0.39914    0.00102     0.40016
      H   33    0.09876      0.00000     0.40037    0.00087     0.40124
      H   34    0.09959      0.00000     0.39922    0.00119     0.40041
 =======================================================================
   * Total *    0.00000     17.99362    38.83641    0.16998    57.00000

 Normal termination of Gaussian 16 at Thu Dec 10 10:05:38 2020.
