 Gaussian 16, Revision A.03,

 -----------------------------------------------------------
 # opt freq B3LYP/6-31G(d) empiricaldispersion=gd3bj scf=xqc
 -----------------------------------------------------------

 -------------------------------
 CID_103339437_JID_4845_neutraal
 -------------------------------
 Symbolic Z-matrix:
 Charge =  0 Multiplicity = 1

 SCF Done:  E(RB3LYP) =  -618.330431091     A.U. after   13 cycles
 SCF Done:  E(RB3LYP) =  -618.334721617     A.U. after   11 cycles
 SCF Done:  E(RB3LYP) =  -618.335204940     A.U. after   12 cycles
 SCF Done:  E(RB3LYP) =  -618.336332301     A.U. after   11 cycles
 SCF Done:  E(RB3LYP) =  -618.336952240     A.U. after   11 cycles
 SCF Done:  E(RB3LYP) =  -618.338087972     A.U. after   13 cycles
 SCF Done:  E(RB3LYP) =  -618.339579732     A.U. after   11 cycles
 SCF Done:  E(RB3LYP) =  -618.342001806     A.U. after   12 cycles
 SCF Done:  E(RB3LYP) =  -618.342958490     A.U. after   11 cycles
 SCF Done:  E(RB3LYP) =  -618.342156644     A.U. after   12 cycles
 SCF Done:  E(RB3LYP) =  -618.343903478     A.U. after    9 cycles
 SCF Done:  E(RB3LYP) =  -618.343905391     A.U. after    9 cycles
 SCF Done:  E(RB3LYP) =  -618.343905955     A.U. after    9 cycles
 SCF Done:  E(RB3LYP) =  -618.343906085     A.U. after    7 cycles
 SCF Done:  E(RB3LYP) =  -618.343906110     A.U. after    6 cycles
 Optimization completed.
    -- Stationary point found.
 Normal termination of Gaussian 16 at Thu Dec 10 10:15:50 2020.

 --------------------------------------------------------------------
 #N Geom=AllCheck Guess=TCheck SCRF=Check GenChk RB3LYP/6-31G(d) Freq
 --------------------------------------------------------------------

 Structure from the checkpoint file:  "JID_4845.chk"
 -------------------------------
 CID_103339437_JID_4845_neutraal
 -------------------------------
 Charge =  0 Multiplicity = 1

 SCF Done:  E(RB3LYP) =  -618.343906110     A.U. after    1 cycles

  Exact polarizability: 154.169  -9.927 137.735   4.376  -6.894 109.563
 Approx polarizability: 187.294 -17.874 192.272   5.816  -6.668 165.259

                      1                      2                      3
                      A                      A                      A
 Frequencies --     20.6830                35.2589                46.1772
 Red. masses --      3.5920                 3.3640                 2.7424
 Frc consts  --      0.0009                 0.0025                 0.0034
 IR Inten    --      0.3298                 0.2784                 0.9032

                      4                      5                      6
                      A                      A                      A
 Frequencies --     49.7061                66.6761                82.1908
 Red. masses --      3.1287                 2.8852                 3.0832
 Frc consts  --      0.0046                 0.0076                 0.0123
 IR Inten    --      0.2152                 0.8293                 0.4173

                      7                      8                      9
                      A                      A                      A
 Frequencies --     92.3627               111.1352               121.1584
 Red. masses --      2.5942                 1.8376                 2.4987
 Frc consts  --      0.0130                 0.0134                 0.0216
 IR Inten    --      0.4504                 1.3119                 1.9986

                     10                     11                     12
                      A                      A                      A
 Frequencies --    160.3579               182.2223               197.5030
 Red. masses --      1.9311                 1.9326                 1.9943
 Frc consts  --      0.0293                 0.0378                 0.0458
 IR Inten    --      2.2025                 2.2382                 0.9721

                     13                     14                     15
                      A                      A                      A
 Frequencies --    228.2100               249.6620               267.3186
 Red. masses --      1.8719                 1.1433                 2.2050
 Frc consts  --      0.0574                 0.0420                 0.0928
 IR Inten    --      1.7190                30.3064                 0.9016

                     16                     17                     18
                      A                      A                      A
 Frequencies --    281.0812               299.8239               317.9060
 Red. masses --      1.7706                 2.3316                 2.6960
 Frc consts  --      0.0824                 0.1235                 0.1605
 IR Inten    --     14.5050                 4.6704                 2.2562

                     19                     20                     21
                      A                      A                      A
 Frequencies --    328.2404               398.7869               418.1883
 Red. masses --      2.4508                 2.2524                 2.7358
 Frc consts  --      0.1556                 0.2110                 0.2819
 IR Inten    --      3.1297                 0.7071                10.7561

                     22                     23                     24
                      A                      A                      A
 Frequencies --    431.5924               466.5548               500.5680
 Red. masses --      2.2805                 2.1371                 2.0638
 Frc consts  --      0.2503                 0.2741                 0.3047
 IR Inten    --     17.5777                 3.0739                 0.0237

                     25                     26                     27
                      A                      A                      A
 Frequencies --    576.9514               591.4675               666.1051
 Red. masses --      2.5508                 2.7870                 1.8794
 Frc consts  --      0.5003                 0.5744                 0.4913
 IR Inten    --      8.8539                 2.8098                 6.8356

                     28                     29                     30
                      A                      A                      A
 Frequencies --    779.6698               791.7281               820.5447
 Red. masses --      1.5747                 1.2056                 1.6550
 Frc consts  --      0.5640                 0.4453                 0.6565
 IR Inten    --      8.0731                 0.9999                 4.2831

                     31                     32                     33
                      A                      A                      A
 Frequencies --    859.0769               871.9526               923.0932
 Red. masses --      1.6246                 2.1016                 1.6286
 Frc consts  --      0.7064                 0.9414                 0.8176
 IR Inten    --     60.3076                34.5363                11.3375

                     34                     35                     36
                      A                      A                      A
 Frequencies --    936.8088               941.4505               944.7679
 Red. masses --      1.5858                 2.0398                 1.3766
 Frc consts  --      0.8200                 1.0652                 0.7240
 IR Inten    --     18.2583                24.5299                34.3682

                     37                     38                     39
                      A                      A                      A
 Frequencies --    958.2115               967.3273               996.6875
 Red. masses --      3.4523                 2.0799                 1.8545
 Frc consts  --      1.8676                 1.1467                 1.0854
 IR Inten    --     24.1628                 6.9933                 4.9251

                     40                     41                     42
                      A                      A                      A
 Frequencies --   1027.6807              1031.9535              1037.8802
 Red. masses --      3.6442                 1.1944                 2.0932
 Frc consts  --      2.2676                 0.7494                 1.3285
 IR Inten    --      3.3160                15.4954                 5.7752

                     43                     44                     45
                      A                      A                      A
 Frequencies --   1070.7192              1084.5587              1100.7740
 Red. masses --      1.9435                 1.7507                 1.8197
 Frc consts  --      1.3127                 1.2133                 1.2991
 IR Inten    --      3.6520                11.7561                27.7249

                     46                     47                     48
                      A                      A                      A
 Frequencies --   1112.3794              1135.5130              1148.3928
 Red. masses --      2.1226                 1.9252                 2.7543
 Frc consts  --      1.5475                 1.4626                 2.1402
 IR Inten    --     45.3396                18.2478               104.3005

                     49                     50                     51
                      A                      A                      A
 Frequencies --   1167.6641              1190.0609              1213.8316
 Red. masses --      2.0392                 1.3011                 2.3398
 Frc consts  --      1.6382                 1.0857                 2.0311
 IR Inten    --     25.7501                 3.5153                76.6552

                     52                     53                     54
                      A                      A                      A
 Frequencies --   1217.2029              1233.4629              1250.2191
 Red. masses --      2.2181                 1.4671                 1.8585
 Frc consts  --      1.9363                 1.3151                 1.7115
 IR Inten    --      6.1999                13.5434                16.4316

                     55                     56                     57
                      A                      A                      A
 Frequencies --   1283.2660              1303.2165              1327.2493
 Red. masses --      1.2706                 1.2650                 1.2672
 Frc consts  --      1.2328                 1.2658                 1.3152
 IR Inten    --      1.9455                 8.4550                 8.3997

                     58                     59                     60
                      A                      A                      A
 Frequencies --   1332.6213              1341.0251              1351.1110
 Red. masses --      1.1658                 1.3105                 1.1893
 Frc consts  --      1.2198                 1.3885                 1.2792
 IR Inten    --      4.6244                16.9129                 2.5148

                     61                     62                     63
                      A                      A                      A
 Frequencies --   1362.0344              1375.8833              1383.5333
 Red. masses --      1.2309                 1.3182                 1.2874
 Frc consts  --      1.3454                 1.4703                 1.4519
 IR Inten    --      3.4057                12.5946                 7.2665

                     64                     65                     66
                      A                      A                      A
 Frequencies --   1395.6120              1404.7114              1413.5248
 Red. masses --      1.3011                 1.3998                 1.4259
 Frc consts  --      1.4931                 1.6274                 1.6786
 IR Inten    --      7.3690                 1.0195                 4.5125

                     67                     68                     69
                      A                      A                      A
 Frequencies --   1432.6124              1441.8142              1442.7452
 Red. masses --      1.4221                 1.2790                 1.2756
 Frc consts  --      1.7196                 1.5665                 1.5643
 IR Inten    --      3.1853                 2.1283                 3.3001

                     70                     71                     72
                      A                      A                      A
 Frequencies --   1448.6249              1472.7088              1499.6088
 Red. masses --      1.4102                 1.1813                 1.1070
 Frc consts  --      1.7436                 1.5095                 1.4668
 IR Inten    --      6.8453                 5.2797                 3.5526

                     73                     74                     75
                      A                      A                      A
 Frequencies --   1502.5225              1510.4343              1520.0955
 Red. masses --      1.0932                 1.0921                 1.0668
 Frc consts  --      1.4541                 1.4680                 1.4524
 IR Inten    --      2.5740                10.9124                 7.9751

                     76                     77                     78
                      A                      A                      A
 Frequencies --   1521.2096              1524.8234              1528.5549
 Red. masses --      1.0630                 1.0943                 1.0598
 Frc consts  --      1.4493                 1.4991                 1.4590
 IR Inten    --      0.0549                 2.5841                 1.2388

                     79                     80                     81
                      A                      A                      A
 Frequencies --   1532.2001              1538.4915              1542.0788
 Red. masses --      1.0756                 1.0855                 1.0662
 Frc consts  --      1.4878                 1.5138                 1.4938
 IR Inten    --      5.2716                 6.2582                12.9365

                     82                     83                     84
                      A                      A                      A
 Frequencies --   1542.2341              1698.0646              1725.7330
 Red. masses --      1.0658                 1.0880                 4.3585
 Frc consts  --      1.4936                 1.8484                 7.6478
 IR Inten    --     10.4275                30.3377                 2.3368

                     85                     86                     87
                      A                      A                      A
 Frequencies --   2973.8251              2983.6748              2988.1268
 Red. masses --      1.0733                 1.0703                 1.0482
 Frc consts  --      5.5922                 5.6139                 5.5145
 IR Inten    --     80.8777                27.7745                53.8893

                     88                     89                     90
                      A                      A                      A
 Frequencies --   2997.6635              3018.9062              3031.4397
 Red. masses --      1.0628                 1.0771                 1.0645
 Frc consts  --      5.6267                 5.7838                 5.7639
 IR Inten    --     71.1914                 9.4471                31.5164

                     91                     92                     93
                      A                      A                      A
 Frequencies --   3035.4632              3036.2766              3043.5708
 Red. masses --      1.0632                 1.0747                 1.0368
 Frc consts  --      5.7720                 5.8372                 5.6588
 IR Inten    --     32.5135                30.1174                40.7363

                     94                     95                     96
                      A                      A                      A
 Frequencies --   3047.4372              3065.0806              3069.0557
 Red. masses --      1.0803                 1.1021                 1.1030
 Frc consts  --      5.9110                 6.1006                 6.1209
 IR Inten    --     87.2427                15.0787                33.0320

                     97                     98                     99
                      A                      A                      A
 Frequencies --   3083.1544              3099.7978              3106.0717
 Red. masses --      1.0998                 1.0888                 1.0977
 Frc consts  --      6.1594                 6.1640                 6.2396
 IR Inten    --     10.0694                20.6372                34.2146

                    100                    101                    102
                      A                      A                      A
 Frequencies --   3107.2331              3110.5070              3111.7075
 Red. masses --      1.1003                 1.0928                 1.1015
 Frc consts  --      6.2593                 6.2293                 6.2838
 IR Inten    --     42.9985                44.1568                46.3164

                    103                    104                    105
                      A                      A                      A
 Frequencies --   3131.7947              3149.3232              3161.3576
 Red. masses --      1.0970                 1.0596                 1.0903
 Frc consts  --      6.3395                 6.1919                 6.4204
 IR Inten    --     42.1562                20.7331                10.9086

                    106                    107                    108
                      A                      A                      A
 Frequencies --   3232.3782              3474.0137              3557.6605
 Red. masses --      1.1152                 1.0499                 1.0923
 Frc consts  --      6.8651                 7.4657                 8.1455
 IR Inten    --     22.4685                 2.0820                 0.2193

 - Thermochemistry -
 -------------------
 Temperature   298.150 Kelvin.  Pressure   1.00000 Atm.
 Atom     1 has atomic number  6 and mass  12.00000

 Molecular mass:   200.18886 amu.
 Principal axes and moments of inertia in atomic units:
                           1         2         3
     Eigenvalues --  2105.639775216.907676457.66527
           X            0.99996   0.00340   0.00849
           Y           -0.00327   0.99987  -0.01566
           Z           -0.00854   0.01563   0.99984
 This molecule is an asymmetric top.
 Rotational symmetry number  1.
 Warning -- assumption of classical behavior for rotation
           may cause significant error
 Rotational temperatures (Kelvin)      0.04113     0.01660     0.01341
 Rotational constants (GHZ):           0.85710     0.34594     0.27947
 Zero-point vibrational energy     917029.5 (Joules/Mol)
                                  219.17532 (Kcal/Mol)
 Warning -- explicit consideration of  26 degrees of freedom as
           vibrations may cause significant error
 Vibrational temperatures:     29.76    50.73    66.44    71.52    95.93
          (Kelvin)            118.25   132.89   159.90   174.32   230.72
                              262.18   284.16   328.34   359.21   384.61
                              404.41   431.38   457.40   472.26   573.77
                              601.68   620.97   671.27   720.21   830.10
                              850.99   958.38  1121.77  1139.12  1180.58
                             1236.02  1254.55  1328.13  1347.86  1354.54
                             1359.31  1378.65  1391.77  1434.01  1478.60
                             1484.75  1493.28  1540.53  1560.44  1583.77
                             1600.47  1633.75  1652.28  1680.01  1712.23
                             1746.43  1751.28  1774.68  1798.79  1846.33
                             1875.04  1909.62  1917.34  1929.44  1943.95
                             1959.66  1979.59  1990.60  2007.97  2021.07
                             2033.75  2061.21  2074.45  2075.79  2084.25
                             2118.90  2157.60  2161.79  2173.18  2187.08
                             2188.68  2193.88  2199.25  2204.49  2213.55
                             2218.71  2218.93  2443.14  2482.94  4278.67
                             4292.84  4299.25  4312.97  4343.53  4361.57
                             4367.35  4368.52  4379.02  4384.58  4409.97
                             4415.69  4435.97  4459.92  4468.94  4470.62
                             4475.33  4477.05  4505.95  4531.17  4548.49
                             4650.67  4998.33  5118.68

 Zero-point correction=                           0.349278 (Hartree/Particle)
 Thermal correction to Energy=                    0.367200
 Thermal correction to Enthalpy=                  0.368144
 Thermal correction to Gibbs Free Energy=         0.301347
 Sum of electronic and zero-point Energies=           -617.994628
 Sum of electronic and thermal Energies=              -617.976706
 Sum of electronic and thermal Enthalpies=            -617.975762
 Sum of electronic and thermal Free Energies=         -618.042559

                     E (Thermal)             CV                S
                      KCal/Mol        Cal/Mol-Kelvin    Cal/Mol-Kelvin
 Total                  230.421             63.799            140.586
 Electronic               0.000              0.000              0.000
 Translational            0.889              2.981             41.787
 Rotational               0.889              2.981             32.628
 Vibrational            228.644             57.837             66.171
 Vibration     1          0.593              1.986              6.568
 Vibration     2          0.594              1.982              5.509
 Vibration     3          0.595              1.979              4.975
 Vibration     4          0.595              1.978              4.829
 Vibration     5          0.598              1.970              4.249
 Vibration     6          0.600              1.961              3.838
 Vibration     7          0.602              1.955              3.609
 Vibration     8          0.607              1.940              3.249
 Vibration     9          0.609              1.932              3.082
 Vibration    10          0.622              1.891              2.546
 Vibration    11          0.630              1.864              2.306
 Vibration    12          0.637              1.843              2.156
 Vibration    13          0.651              1.798              1.893
 Vibration    14          0.662              1.763              1.733
 Vibration    15          0.672              1.733              1.613
 Vibration    16          0.681              1.709              1.527
 Vibration    17          0.692              1.674              1.418
 Vibration    18          0.704              1.639              1.321
 Vibration    19          0.711              1.619              1.269
 Vibration    20          0.765              1.473              0.967
 Vibration    21          0.781              1.431              0.898
 Vibration    22          0.793              1.401              0.853
 Vibration    23          0.824              1.324              0.747
 Vibration    24          0.856              1.249              0.657
 Vibration    25          0.933              1.081              0.491
 Vibration    26          0.949              1.050              0.465

                           ! Non-Optimized Parameters !
 Normal termination of Gaussian 16 at Thu Dec 10 10:28:42 2020.

 ----------------------------------------------------------------------
 # B3LYP/6-311++G(d,p) empiricaldispersion=gd3bj scf=xqc pop=npa geom=c
 heck
 ----------------------------------------------------------------------

 ---------------------------------------
 CID_103339437_JID_4845_Energie_neutraal
 ---------------------------------------
 Structure from the checkpoint file:  "JID_4845.chk"
 Charge =  0 Multiplicity = 1

 SCF Done:  E(RB3LYP) =  -618.531543056     A.U. after   14 cycles
 Normal termination of Gaussian 16 at Thu Dec 10 10:35:43 2020.

 ----------------------------------------------------------------------
 # B3LYP/6-311++G(d,p) empiricaldispersion=gd3bj scf=xqc pop=npa geom=c
 heck
 ----------------------------------------------------------------------

 -------------------------------------
 CID_103339437_JID_4845_Energie_kation
 -------------------------------------
 Structure from the checkpoint file:  "JID_4845.chk"
 Charge =  1 Multiplicity = 2

 SCF Done:  E(UB3LYP) =  -618.261200279     A.U. after   26 cycles
 Normal termination of Gaussian 16 at Thu Dec 10 10:53:20 2020.
 Gaussian 16:  ES64L-G16RevA.03 25-Dec-2016

 ----------------------------------------------------------------------
 # B3LYP/6-311++G(d,p) empiricaldispersion=gd3bj scf=xqc pop=npa geom=c
 heck
 ----------------------------------------------------------------------

 ------------------------------------
 CID_103339437_JID_4845_Energie_anion
 ------------------------------------
 Structure from the checkpoint file:  "JID_4845.chk"
 Charge = -1 Multiplicity = 2

                         Standard orientation:
 ---------------------------------------------------------------------
 Center     Atomic      Atomic             Coordinates (Angstroms)
 Number     Number       Type             X           Y           Z
 ---------------------------------------------------------------------
      1          6           0       -4.419302   -0.003254   -0.736769
      2          6           0       -2.939431   -0.090591   -1.121355
      3          6           0       -1.969980   -0.050101    0.071505
      4          6           0       -2.210274   -1.173400    1.091728
      5          7           0       -2.115191   -2.496484    0.458349
      6          6           0       -0.519358   -0.090035   -0.438307
      7          7           0        0.461088    0.082924    0.630104
      8          6           0        1.709444   -0.643217    0.457436
      9          6           0        2.607578   -0.205576   -0.716434
     10          8           0        3.660136   -1.122752   -0.971862
     11          6           0        4.717962   -1.051708   -0.039127
     12          6           0        0.548692    1.429057    1.196152
     13          6           0        0.782546    2.549634    0.207995
     14          6           0       -0.117204    3.492668   -0.072611
     15          1           0       -4.739882   -0.866002   -0.141034
     16          1           0       -5.056473    0.035287   -1.627304
     17          1           0       -4.620638    0.896627   -0.142752
     18          1           0       -2.759490   -1.007322   -1.699293
     19          1           0       -2.694235    0.741334   -1.794701
     20          1           0       -2.136941    0.901320    0.597589
     21          1           0       -1.415658   -1.109077    1.841539
     22          1           0       -3.167350   -1.000904    1.612594
     23          1           0       -2.058390   -3.216132    1.175560
     24          1           0       -2.964820   -2.691470   -0.068320
     25          1           0       -0.352959   -1.077026   -0.879593
     26          1           0       -0.403139    0.659015   -1.238873
     27          1           0        2.269084   -0.577074    1.398932
     28          1           0        1.467412   -1.701724    0.302418
     29          1           0        2.015442   -0.168374   -1.636395
     30          1           0        3.021061    0.800987   -0.540629
     31          1           0        5.113675   -0.025951    0.044192
     32          1           0        4.424324   -1.390301    0.965444
     33          1           0        5.511871   -1.707079   -0.407371
     34          1           0       -0.378887    1.643226    1.743207
     35          1           0        1.354062    1.412976    1.941926
     36          1           0        1.736282    2.549078   -0.319263
     37          1           0        0.073277    4.276638   -0.800697
     38          1           0       -1.084039    3.518024    0.427271
 ---------------------------------------------------------------------

 SCF Done:  E(UB3LYP) =  -618.517855213     A.U. after   33 cycles
 SCF Done:  E(UB3LYP) =  -618.517855213     a.u. after    1 cycles

 The electronic state is 2-A.
 Alpha  occ. eigenvalues --  -19.03532 -14.20819 -14.19148 -10.12077 -10.12058
 Alpha  occ. eigenvalues --  -10.10591 -10.09731 -10.08657 -10.08622 -10.08350
 Alpha  occ. eigenvalues --  -10.07959 -10.06873 -10.06734 -10.06200  -0.94668
 Alpha  occ. eigenvalues --   -0.83003  -0.78185  -0.70047  -0.69493  -0.65572
 Alpha  occ. eigenvalues --   -0.62921  -0.60175  -0.58109  -0.54700  -0.52674
 Alpha  occ. eigenvalues --   -0.49106  -0.47248  -0.44776  -0.40983  -0.40475
 Alpha  occ. eigenvalues --   -0.39690  -0.38935  -0.38152  -0.36897  -0.35618
 Alpha  occ. eigenvalues --   -0.35147  -0.33877  -0.33746  -0.33239  -0.31288
 Alpha  occ. eigenvalues --   -0.29983  -0.29331  -0.28550  -0.27983  -0.27445
 Alpha  occ. eigenvalues --   -0.26775  -0.26166  -0.25133  -0.23484  -0.22744
 Alpha  occ. eigenvalues --   -0.22481  -0.21919  -0.18197  -0.17929  -0.14402
 Alpha  occ. eigenvalues --   -0.11177   0.04121
 Alpha virt. eigenvalues --    0.05499   0.06599   0.07151   0.07605   0.08198
 Alpha virt. eigenvalues --    0.08323   0.08559   0.09522   0.09761   0.10199
 Alpha virt. eigenvalues --    0.10674   0.10729   0.11725   0.12211   0.12491

  Beta  occ. eigenvalues --  -19.03525 -14.20818 -14.19113 -10.12051 -10.12042
  Beta  occ. eigenvalues --  -10.10579 -10.09719 -10.08652 -10.08617 -10.08333
  Beta  occ. eigenvalues --  -10.07943 -10.06869 -10.06722 -10.06163  -0.94655
  Beta  occ. eigenvalues --   -0.82995  -0.78127  -0.70019  -0.69473  -0.65549
  Beta  occ. eigenvalues --   -0.62885  -0.60137  -0.58060  -0.54647  -0.52616
  Beta  occ. eigenvalues --   -0.49069  -0.47205  -0.44741  -0.40957  -0.40445
  Beta  occ. eigenvalues --   -0.39663  -0.38907  -0.38131  -0.36868  -0.35583
  Beta  occ. eigenvalues --   -0.35115  -0.33844  -0.33713  -0.33200  -0.31253
  Beta  occ. eigenvalues --   -0.29955  -0.29302  -0.28510  -0.27958  -0.27418
  Beta  occ. eigenvalues --   -0.26752  -0.26143  -0.25108  -0.23453  -0.22716
  Beta  occ. eigenvalues --   -0.22456  -0.21898  -0.18182  -0.17911  -0.14364
  Beta  occ. eigenvalues --   -0.11170
  Beta virt. eigenvalues --    0.06116   0.06536   0.07112   0.07369   0.08105
  Beta virt. eigenvalues --    0.08362   0.08759   0.09011   0.09562   0.10075
  Beta virt. eigenvalues --    0.10654   0.10883   0.11099   0.11991   0.12386

 Mulliken charges and spin densities:
               1          2
     1  C    1.138815  -1.693146
     2  C   -1.693408   1.092325
     3  C    0.890007   0.161919
     4  C    0.964216  -1.740423
     5  N   -0.556990   0.250628
     6  C   -1.342758   0.184046
     7  N    0.338635   0.031331
     8  C   -0.291132   0.011163
     9  C   -0.578526   0.206628
    10  O   -0.141184   0.029581
    11  C    0.764829  -1.031732
    12  C    0.513979  -0.950759
    13  C   -0.506073   0.778083
    14  C    0.178831  -0.751261
    15  H   -0.271170   0.412832
    16  H   -0.237597   0.374468
    17  H   -0.317827   0.458236
    18  H    0.038266   0.097302
    19  H   -0.086056   0.206055
    20  H    0.754927  -0.606265
    21  H    0.061549   0.142550
    22  H   -0.255386   0.400689
    23  H   -0.071100   0.297899
    24  H    0.053081   0.173944
    25  H    0.233100  -0.018102
    26  H    0.246840  -0.092903
    27  H    0.059846   0.088538
    28  H    0.214670  -0.006419
    29  H    0.003603   0.176022
    30  H    0.643694  -0.516700
    31  H   -0.469920   0.583991
    32  H   -0.317690   0.444974
    33  H   -0.078940   0.226349
    34  H   -0.057326   0.226954
    35  H   -0.225472   0.368268
    36  H   -0.427448   0.571499
    37  H    0.037827   0.084395
    38  H   -0.210712   0.327040
 Sum of Mulliken charges =  -1.00000   1.00000

 Dipole moment (field-independent basis, Debye):
    X=              1.1365    Y=              1.6572    Z=             -1.3828  Tot=              2.4393
 Quadrupole moment (field-independent basis, Debye-Ang):
   XX=           -192.2780   YY=           -139.1046   ZZ=           -124.1550
   XY=             -3.1380   XZ=             -3.6804   YZ=              0.7580

 Summary of Natural Population Analysis:

                                       Natural Population
                Natural  -----------------------------------------------
    Atom  No    Charge         Core      Valence    Rydberg      Total
 -----------------------------------------------------------------------
      C    1   -0.28535      0.99967     2.28065    0.00503     3.28535
      C    2   -0.19199      0.99962     2.18285    0.00952     3.19199
      C    3   -0.11862      0.99958     2.10747    0.01157     3.11862
      C    4   -0.09226      0.99960     2.08033    0.01234     3.09226
      N    5   -0.42788      0.99977     2.91714    0.01097     3.92788
      C    6   -0.08674      0.99958     2.07650    0.01066     3.08674
      N    7   -0.27959      0.99972     2.76683    0.01303     3.77959
      C    8   -0.09278      0.99960     2.08169    0.01149     3.09278
      C    9   -0.01704      0.99958     2.00541    0.01206     3.01704
      O   10   -0.29831      0.99989     3.28848    0.00994     4.29831
      C   11   -0.09913      0.99962     2.08986    0.00965     3.09913
      C   12   -0.10189      0.99958     2.08957    0.01274     3.10189
      C   13   -0.09415      0.99955     2.08440    0.01019     3.09415
      C   14   -0.18870      0.99956     2.18233    0.00681     3.18870
      H   15    0.09683      0.00000     0.40174    0.00142     0.40317
      H   16    0.09814      0.00000     0.40096    0.00089     0.40186
      H   17    0.09666      0.00000     0.40209    0.00125     0.40334
      H   18    0.09562      0.00000     0.40316    0.00122     0.40438
      H   19    0.09666      0.00000     0.40211    0.00123     0.40334
      H   20    0.09413      0.00000     0.40320    0.00267     0.40587
      H   21    0.09936      0.00000     0.39907    0.00158     0.40064
      H   22    0.08123      0.00000     0.41720    0.00157     0.41877
      H   23    0.17683      0.00000     0.32140    0.00176     0.32317
      H   24    0.17311      0.00000     0.32502    0.00187     0.32689
      H   25    0.10617      0.00000     0.39206    0.00176     0.39383
      H   26    0.08656      0.00000     0.41186    0.00158     0.41344
      H   27    0.09228      0.00000     0.40608    0.00165     0.40772
      H   28    0.09947      0.00000     0.39917    0.00136     0.40053
      H   29    0.08915      0.00000     0.40941    0.00144     0.41085
      H   30    0.07419      0.00000     0.42386    0.00196     0.42581
      H   31    0.07861      0.00000     0.41952    0.00188     0.42139
      H   32    0.07987      0.00000     0.41860    0.00153     0.42013
      H   33    0.08886      0.00000     0.41012    0.00102     0.41114
      H   34    0.09380      0.00000     0.40480    0.00140     0.40620
      H   35    0.10120      0.00000     0.39747    0.00133     0.39880
      H   36    0.09135      0.00000     0.40720    0.00145     0.40865
      H   37    0.09330      0.00000     0.40569    0.00101     0.40670
      H   38    0.09104      0.00000     0.40758    0.00138     0.40896
 =======================================================================
   * Total *   -0.00000     13.99492    41.82287    0.18221    56.00000

 Normal termination of Gaussian 16 at Thu Dec 10 11:15:31 2020.
