 Gaussian 16, Revision A.03,

 -----------------------------------------------------------
 # opt freq B3LYP/6-31G(d) empiricaldispersion=gd3bj scf=xqc
 -----------------------------------------------------------

 ------------------------------
 CID_62324984_JID_2214_neutraal
 ------------------------------
 Symbolic Z-matrix:
 Charge =  0 Multiplicity = 1

 SCF Done:  E(RB3LYP) =  -553.321019643     A.U. after   15 cycles
 SCF Done:  E(RB3LYP) =  -553.349831733     A.U. after   15 cycles
 SCF Done:  E(RB3LYP) =  -553.368491025     A.U. after   13 cycles
 SCF Done:  E(RB3LYP) =  -553.379330419     A.U. after   13 cycles
 SCF Done:  E(RB3LYP) =  -553.382143212     A.U. after   13 cycles
 SCF Done:  E(RB3LYP) =  -553.384217844     A.U. after   13 cycles
 SCF Done:  E(RB3LYP) =  -553.384723168     A.U. after   12 cycles
 SCF Done:  E(RB3LYP) =  -553.384986572     A.U. after   11 cycles
 SCF Done:  E(RB3LYP) =  -553.385100305     A.U. after   12 cycles
 SCF Done:  E(RB3LYP) =  -553.385158501     A.U. after   12 cycles
 SCF Done:  E(RB3LYP) =  -553.388557501     A.U. after   11 cycles
 SCF Done:  E(RB3LYP) =  -553.388554481     A.U. after   11 cycles
 SCF Done:  E(RB3LYP) =  -553.388559201     A.U. after   11 cycles
 SCF Done:  E(RB3LYP) =  -553.388559675     A.U. after    8 cycles
 SCF Done:  E(RB3LYP) =  -553.388560075     A.U. after    9 cycles
 SCF Done:  E(RB3LYP) =  -553.388560109     A.U. after    7 cycles
 Optimization completed.
    -- Stationary point found.
 Normal termination of Gaussian 16 at Wed Dec  9 17:18:25 2020.

 --------------------------------------------------------------------
 #N Geom=AllCheck Guess=TCheck SCRF=Check GenChk RB3LYP/6-31G(d) Freq
 --------------------------------------------------------------------

 Structure from the checkpoint file:  "JID_2214.chk"
 ------------------------------
 CID_62324984_JID_2214_neutraal
 ------------------------------
 Charge =  0 Multiplicity = 1

 SCF Done:  E(RB3LYP) =  -553.388560109     A.U. after    1 cycles

  Exact polarizability: 119.691   6.818  98.363  -1.168  -2.189  89.995
 Approx polarizability: 153.138  16.927 138.986  -4.861  -7.195 141.392

                      1                      2                      3
                      A                      A                      A
 Frequencies --     24.9388                34.0992                70.0786
 Red. masses --      4.5947                 6.2467                 2.7107
 Frc consts  --      0.0017                 0.0043                 0.0078
 IR Inten    --      1.4682                 3.0052                 2.0694

                      4                      5                      6
                      A                      A                      A
 Frequencies --     86.1283                90.5603               116.9973
 Red. masses --      2.0735                 3.6974                 3.1749
 Frc consts  --      0.0091                 0.0179                 0.0256
 IR Inten    --      6.5693                 3.3851                 7.0002

                      7                      8                      9
                      A                      A                      A
 Frequencies --    156.1336               190.8317               217.1152
 Red. masses --      1.8385                 3.6040                 2.9071
 Frc consts  --      0.0264                 0.0773                 0.0807
 IR Inten    --      1.0747                 6.1928                 2.5180

                     10                     11                     12
                      A                      A                      A
 Frequencies --    238.3780               246.8998               280.8299
 Red. masses --      1.2602                 2.4255                 2.7769
 Frc consts  --      0.0422                 0.0871                 0.1290
 IR Inten    --      0.5615                 1.7744                 0.6456

                     13                     14                     15
                      A                      A                      A
 Frequencies --    303.6582               372.9101               396.4663
 Red. masses --      1.8770                 3.5548                 2.5072
 Frc consts  --      0.1020                 0.2913                 0.2322
 IR Inten    --      5.3581                 0.1440                 7.8622

                     16                     17                     18
                      A                      A                      A
 Frequencies --    426.6152               457.2767               478.8034
 Red. masses --      3.1836                 2.6019                 1.2645
 Frc consts  --      0.3414                 0.3206                 0.1708
 IR Inten    --     14.0085                 2.3954                40.0279

                     19                     20                     21
                      A                      A                      A
 Frequencies --    567.5388               588.3072               602.6314
 Red. masses --      4.4408                 3.4136                 2.9304
 Frc consts  --      0.8428                 0.6961                 0.6270
 IR Inten    --     16.0690                 0.2450                34.2173

                     22                     23                     24
                      A                      A                      A
 Frequencies --    623.4768               765.8571               775.7408
 Red. masses --      2.2847                 2.9678                 3.2665
 Frc consts  --      0.5233                 1.0256                 1.1582
 IR Inten    --     29.2777                 7.3084                 2.4711

                     25                     26                     27
                      A                      A                      A
 Frequencies --    866.2913               918.0018               986.4087
 Red. masses --      3.2485                 2.2456                 1.8749
 Frc consts  --      1.4364                 1.1150                 1.0748
 IR Inten    --      2.7192                 0.1092                 7.5701

                     28                     29                     30
                      A                      A                      A
 Frequencies --    991.9956              1032.6155              1050.4233
 Red. masses --      2.5442                 2.3755                 2.1185
 Frc consts  --      1.4751                 1.4924                 1.3772
 IR Inten    --     10.7625                 3.2612                26.3669

                     31                     32                     33
                      A                      A                      A
 Frequencies --   1062.7278              1084.4660              1096.0985
 Red. masses --      1.9298                 2.2492                 1.9286
 Frc consts  --      1.2841                 1.5585                 1.3652
 IR Inten    --     12.1668                32.0101                18.6008

                     34                     35                     36
                      A                      A                      A
 Frequencies --   1161.4254              1163.5621              1168.7659
 Red. masses --      1.2757                 1.6247                 1.6303
 Frc consts  --      1.0138                 1.2960                 1.3121
 IR Inten    --      5.0801                13.6252                 4.9188

                     37                     38                     39
                      A                      A                      A
 Frequencies --   1212.2826              1244.8984              1253.4522
 Red. masses --      2.2404                 1.4817                 1.1754
 Frc consts  --      1.9400                 1.3529                 1.0880
 IR Inten    --      3.4398                 9.8495                 4.0680

                     40                     41                     42
                      A                      A                      A
 Frequencies --   1282.2151              1311.4691              1331.6501
 Red. masses --      1.4475                 1.7707                 1.4779
 Frc consts  --      1.4021                 1.7944                 1.5441
 IR Inten    --      2.5476                78.6082                97.5341

                     43                     44                     45
                      A                      A                      A
 Frequencies --   1353.9086              1379.1312              1423.9672
 Red. masses --      1.4886                 1.3367                 1.5441
 Frc consts  --      1.6078                 1.4979                 1.8447
 IR Inten    --     24.7266                11.6652                23.9820

                     46                     47                     48
                      A                      A                      A
 Frequencies --   1429.6881              1442.9217              1479.1847
 Red. masses --      1.3708                 1.3879                 1.5118
 Frc consts  --      1.6508                 1.7025                 1.9488
 IR Inten    --     31.2068                22.7021                24.1995

                     49                     50                     51
                      A                      A                      A
 Frequencies --   1482.3270              1485.3928              1495.2431
 Red. masses --      1.1614                 1.1592                 1.1228
 Frc consts  --      1.5036                 1.5070                 1.4791
 IR Inten    --     13.0260                17.0839                17.0029

                     52                     53                     54
                      A                      A                      A
 Frequencies --   1504.1008              1519.4599              1521.3764
 Red. masses --      1.3729                 1.0472                 1.0529
 Frc consts  --      1.8300                 1.4246                 1.4358
 IR Inten    --     25.9554                 4.1786                11.4920

                     55                     56                     57
                      A                      A                      A
 Frequencies --   1527.4242              1532.0604              1542.8266
 Red. masses --      1.0983                 1.0738                 1.0910
 Frc consts  --      1.5096                 1.4850                 1.5301
 IR Inten    --     19.0088                 6.3561                 8.3697

                     58                     59                     60
                      A                      A                      A
 Frequencies --   1549.0207              1782.0358              2365.9201
 Red. masses --      1.0715                 7.8231                12.5934
 Frc consts  --      1.5148                14.6373                41.5330
 IR Inten    --     35.8491               358.4158                12.4055

                     61                     62                     63
                      A                      A                      A
 Frequencies --   2938.5204              2947.8319              2968.9556
 Red. masses --      1.0638                 1.0722                 1.0745
 Frc consts  --      5.4123                 5.4895                 5.5802
 IR Inten    --     44.6447                97.1836                95.6524

                     64                     65                     66
                      A                      A                      A
 Frequencies --   3037.7363              3044.0290              3065.4915
 Red. masses --      1.0408                 1.0668                 1.0658
 Frc consts  --      5.6590                 5.8243                 5.9012
 IR Inten    --     40.2298                20.4962                 9.8929

                     67                     68                     69
                      A                      A                      A
 Frequencies --   3079.5719              3082.8869              3093.6538
 Red. masses --      1.0745                 1.0805                 1.0993
 Frc consts  --      6.0041                 6.0506                 6.1988
 IR Inten    --     18.5949                42.2454                49.3407

                     70                     71                     72
                      A                      A                      A
 Frequencies --   3096.8776              3122.3731              3123.8816
 Red. masses --      1.0941                 1.1016                 1.1025
 Frc consts  --      6.1825                 6.3274                 6.3387
 IR Inten    --     12.5191                 9.4261                36.5411

                     73                     74                     75
                      A                      A                      A
 Frequencies --   3147.8243              3168.1536              3614.0626
 Red. masses --      1.1000                 1.0873                 1.0766
 Frc consts  --      6.4220                 6.4301                 8.2850
 IR Inten    --     19.5411                 3.0438                26.2563

 - Thermochemistry -
 -------------------
 Temperature   298.150 Kelvin.  Pressure   1.00000 Atm.
 Atom     1 has atomic number  6 and mass  12.00000

 Molecular mass:   169.12151 amu.
 Principal axes and moments of inertia in atomic units:
                           1         2         3
     Eigenvalues --  1366.824113206.372043968.91293
           X            0.99972  -0.01911   0.01373
           Y            0.01892   0.99972   0.01421
           Z           -0.01399  -0.01395   0.99980
 This molecule is an asymmetric top.
 Rotational symmetry number  1.
 Warning -- assumption of classical behavior for rotation
           may cause significant error
 Rotational temperatures (Kelvin)      0.06337     0.02701     0.02182
 Rotational constants (GHZ):           1.32039     0.56286     0.45472
 Zero-point vibrational energy     614156.0 (Joules/Mol)
                                  146.78680 (Kcal/Mol)
 Warning -- explicit consideration of  21 degrees of freedom as
           vibrations may cause significant error
 Vibrational temperatures:     35.88    49.06   100.83   123.92   130.30
          (Kelvin)            168.33   224.64   274.56   312.38   342.97
                              355.23   404.05   436.90   536.53   570.43
                              613.80   657.92   688.89   816.56   846.44
                              867.05   897.04  1101.90  1116.12  1246.40
                             1320.80  1419.22  1427.26  1485.70  1511.32
                             1529.03  1560.30  1577.04  1671.03  1674.11
                             1681.59  1744.20  1791.13  1803.44  1844.82
                             1886.91  1915.95  1947.97  1984.26  2048.77
                             2057.00  2076.04  2128.22  2132.74  2137.15
                             2151.32  2164.07  2186.16  2188.92  2197.62
                             2204.29  2219.78  2228.70  2563.95  3404.03
                             4227.88  4241.27  4271.66  4370.63  4379.68
                             4410.56  4430.82  4435.59  4451.08  4455.72
                             4492.40  4494.57  4529.02  4558.27  5199.83

 Zero-point correction=                           0.233920 (Hartree/Particle)
 Thermal correction to Energy=                    0.247930
 Thermal correction to Enthalpy=                  0.248874
 Thermal correction to Gibbs Free Energy=         0.191684
 Sum of electronic and zero-point Energies=           -553.154640
 Sum of electronic and thermal Energies=              -553.140630
 Sum of electronic and thermal Enthalpies=            -553.139686
 Sum of electronic and thermal Free Energies=         -553.196876

                     E (Thermal)             CV                S
                      KCal/Mol        Cal/Mol-Kelvin    Cal/Mol-Kelvin
 Total                  155.578             49.235            120.365
 Electronic               0.000              0.000              0.000
 Translational            0.889              2.981             41.284
 Rotational               0.889              2.981             31.231
 Vibrational            153.801             43.274             47.850
 Vibration     1          0.593              1.985              6.196
 Vibration     2          0.594              1.983              5.575
 Vibration     3          0.598              1.968              4.151
 Vibration     4          0.601              1.959              3.746
 Vibration     5          0.602              1.956              3.648
 Vibration     6          0.608              1.935              3.149
 Vibration     7          0.620              1.896              2.596
 Vibration     8          0.634              1.853              2.220
 Vibration     9          0.646              1.815              1.983
 Vibration    10          0.656              1.782              1.815
 Vibration    11          0.661              1.768              1.753
 Vibration    12          0.681              1.709              1.529
 Vibration    13          0.695              1.667              1.397
 Vibration    14          0.744              1.528              1.068
 Vibration    15          0.763              1.478              0.976
 Vibration    16          0.788              1.412              0.870
 Vibration    17          0.815              1.345              0.774
 Vibration    18          0.835              1.297              0.713
 Vibration    19          0.923              1.101              0.509
 Vibration    20          0.946              1.057              0.470
 Vibration    21          0.961              1.026              0.445

 Optimization completed.
    -- Stationary point found.
 Normal termination of Gaussian 16 at Wed Dec  9 17:25:01 2020.

 ----------------------------------------------------------------------
 # B3LYP/6-311++G(d,p) empiricaldispersion=gd3bj scf=xqc pop=npa geom=c
 heck
 ----------------------------------------------------------------------

 --------------------------------------
 CID_62324984_JID_2214_Energie_neutraal
 --------------------------------------
 Structure from the checkpoint file:  "JID_2214.chk"
 Charge =  0 Multiplicity = 1

 SCF Done:  E(RB3LYP) =  -553.552991675     A.U. after   14 cycles
 Normal termination of Gaussian 16 at Wed Dec  9 17:28:08 2020.

 ----------------------------------------------------------------------
 # B3LYP/6-311++G(d,p) empiricaldispersion=gd3bj scf=xqc pop=npa geom=c
 heck
 ----------------------------------------------------------------------

 ------------------------------------
 CID_62324984_JID_2214_Energie_kation
 ------------------------------------
 Structure from the checkpoint file:  "JID_2214.chk"
 Charge =  1 Multiplicity = 2

 SCF Done:  E(UB3LYP) =  -553.250005098     A.U. after   23 cycles
 Normal termination of Gaussian 16 at Wed Dec  9 17:35:25 2020.
 Gaussian 16:  ES64L-G16RevA.03 25-Dec-2016

 ----------------------------------------------------------------------
 # B3LYP/6-311++G(d,p) empiricaldispersion=gd3bj scf=xqc pop=npa geom=c
 heck
 ----------------------------------------------------------------------

 -----------------------------------
 CID_62324984_JID_2214_Energie_anion
 -----------------------------------
 Structure from the checkpoint file:  "JID_2214.chk"
 Charge = -1 Multiplicity = 2

                         Standard orientation:
 ---------------------------------------------------------------------
 Center     Atomic      Atomic             Coordinates (Angstroms)
 Number     Number       Type             X           Y           Z
 ---------------------------------------------------------------------
      1          6           0       -3.968790    0.078462    0.024704
      2          7           0       -2.851314    0.883744    0.484403
      3          6           0       -1.548508    0.801085    0.083369
      4          8           0       -0.699197    1.557073    0.545792
      5          6           0       -1.235696   -0.240575   -0.988882
      6          6           0        0.255766   -0.565473   -1.026545
      7          7           0        0.665108   -1.277359    0.187138
      8          6           0        0.402238   -2.704873    0.094041
      9          6           0        2.039288   -1.027226    0.603675
     10          6           0        2.289173    0.449601    0.995057
     11          6           0        2.787864    1.273420   -0.107485
     12          7           0        3.196098    1.903417   -0.993357
     13          1           0       -3.898243   -0.964776    0.359440
     14          1           0       -4.050993    0.087132   -1.067779
     15          1           0       -4.889761    0.501692    0.431612
     16          1           0       -3.018006    1.593839    1.184990
     17          1           0       -1.830613   -1.146022   -0.829192
     18          1           0       -1.551725    0.164916   -1.960698
     19          1           0        0.493888   -1.143945   -1.937002
     20          1           0        0.797821    0.376696   -1.096421
     21          1           0        1.017613   -3.211850   -0.674906
     22          1           0        0.598840   -3.183428    1.059538
     23          1           0       -0.649501   -2.877824   -0.154481
     24          1           0        2.215088   -1.639474    1.494842
     25          1           0        2.783567   -1.345318   -0.150923
     26          1           0        1.350515    0.883051    1.356357
     27          1           0        3.027836    0.493584    1.803400
 ---------------------------------------------------------------------

 SCF Done:  E(UB3LYP) =  -553.545178990     A.U. after   30 cycles

 The electronic state is 2-A.
 Alpha  occ. eigenvalues --  -18.98803 -14.23734 -14.21887 -14.21722 -10.17429
 Alpha  occ. eigenvalues --  -10.12026 -10.12020 -10.11850 -10.10259 -10.10110
 Alpha  occ. eigenvalues --  -10.09369 -10.08237  -0.93929  -0.84062  -0.82209
 Alpha  occ. eigenvalues --   -0.81586  -0.70425  -0.67501  -0.60952  -0.59489
 Alpha  occ. eigenvalues --   -0.57640  -0.50629  -0.46242  -0.42669  -0.41575
 Alpha  occ. eigenvalues --   -0.39813  -0.39383  -0.38678  -0.36389  -0.35130
 Alpha  occ. eigenvalues --   -0.33301  -0.32648  -0.31805  -0.30132  -0.29893
 Alpha  occ. eigenvalues --   -0.29427  -0.28710  -0.27598  -0.27307  -0.26478
 Alpha  occ. eigenvalues --   -0.25712  -0.23457  -0.22943  -0.16301  -0.15698
 Alpha  occ. eigenvalues --   -0.13086   0.03965
 Alpha virt. eigenvalues --    0.05723   0.06973   0.07980   0.08670   0.09264
 Alpha virt. eigenvalues --    0.09456   0.10496   0.10801   0.10956   0.11408
 Alpha virt. eigenvalues --    0.12046   0.12355   0.12540   0.13343   0.13791

  Beta  occ. eigenvalues --  -18.98801 -14.23719 -14.21880 -14.21712 -10.17430
  Beta  occ. eigenvalues --  -10.12025 -10.12003 -10.11843 -10.10186 -10.10103
  Beta  occ. eigenvalues --  -10.09331 -10.08209  -0.93922  -0.84042  -0.82179
  Beta  occ. eigenvalues --   -0.81574  -0.70402  -0.67468  -0.60851  -0.59428
  Beta  occ. eigenvalues --   -0.57589  -0.50578  -0.46192  -0.42651  -0.41540
  Beta  occ. eigenvalues --   -0.39776  -0.39304  -0.38628  -0.36354  -0.35092
  Beta  occ. eigenvalues --   -0.33273  -0.32612  -0.31776  -0.30065  -0.29861
  Beta  occ. eigenvalues --   -0.29389  -0.28673  -0.27567  -0.27293  -0.26449
  Beta  occ. eigenvalues --   -0.25685  -0.23441  -0.22918  -0.16289  -0.15672
  Beta  occ. eigenvalues --   -0.13036
  Beta virt. eigenvalues --    0.06201   0.06985   0.07675   0.08524   0.09294
  Beta virt. eigenvalues --    0.09716   0.10059   0.10836   0.10998   0.11298
  Beta virt. eigenvalues --    0.11697   0.12307   0.12598   0.12677   0.13715

 Mulliken charges and spin densities:
               1          2
     1  C    1.828201  -2.187020
     2  N   -0.488220   0.261113
     3  C   -0.609328   0.661119
     4  O   -0.368873   0.010759
     5  C    0.654433  -0.821643
     6  C   -0.402914  -0.219275
     7  N    0.086026   0.146647
     8  C    0.719650  -1.026506
     9  C    0.173122  -0.566267
    10  C   -0.214986   0.208797
    11  C    0.162713  -0.222858
    12  N   -0.350381   0.012512
    13  H   -0.477555   0.657983
    14  H   -0.502025   0.670825
    15  H   -0.981516   1.141792
    16  H    0.032406   0.273510
    17  H    0.447858  -0.267436
    18  H   -0.027900   0.192994
    19  H   -0.073490   0.207797
    20  H    0.142492   0.001525
    21  H   -0.044570   0.155988
    22  H   -0.296601   0.438838
    23  H   -0.500201   0.629825
    24  H   -0.222013   0.384357
    25  H    0.082136   0.036657
    26  H    0.225270   0.020194
    27  H    0.006264   0.197772
 Sum of Mulliken charges =  -1.00000   1.00000

 Dipole moment (field-independent basis, Debye):
    X=              6.4768    Y=              0.6483    Z=              0.2081  Tot=              6.5125
 Quadrupole moment (field-independent basis, Debye-Ang):
   XX=           -162.0177   YY=           -123.3357   ZZ=           -103.3921
   XY=             -7.9629   XZ=              6.0561   YZ=              6.3868

 Summary of Natural Population Analysis:

                                       Natural Population
                Natural  -----------------------------------------------
    Atom  No    Charge         Core      Valence    Rydberg      Total
 -----------------------------------------------------------------------
      C    1   -0.18218      0.99965     2.17427    0.00826     3.18218
      N    2   -0.31467      0.99968     2.80429    0.01070     3.81467
      C    3    0.35077      0.99967     1.62638    0.02318     2.64923
      O    4   -0.33719      0.99987     3.33146    0.00586     4.33719
      C    5   -0.23865      0.99958     2.23089    0.00818     3.23865
      C    6   -0.08634      0.99960     2.07546    0.01128     3.08634
      N    7   -0.28172      0.99971     2.76860    0.01341     3.78172
      C    8   -0.17599      0.99964     2.16773    0.00861     3.17599
      C    9   -0.07113      0.99960     2.06003    0.01151     3.07113
      C   10   -0.26288      0.99952     2.25653    0.00683     3.26288
      C   11    0.16108      0.99966     1.82148    0.01777     2.83892
      N   12   -0.19082      0.99979     2.68049    0.01054     3.69082
      H   13    0.09786      0.00000     0.39901    0.00314     0.40214
      H   14    0.09657      0.00000     0.40099    0.00244     0.40343
      H   15    0.10554      0.00000     0.39059    0.00387     0.39446
      H   16    0.19451      0.00000     0.30319    0.00231     0.30549
      H   17    0.10980      0.00000     0.38810    0.00210     0.39020
      H   18    0.11181      0.00000     0.38720    0.00099     0.38819
      H   19    0.08512      0.00000     0.41348    0.00140     0.41488
      H   20    0.10715      0.00000     0.39018    0.00267     0.39285
      H   21    0.07857      0.00000     0.41998    0.00145     0.42143
      H   22    0.09742      0.00000     0.40112    0.00147     0.40258
      H   23    0.09988      0.00000     0.39846    0.00166     0.40012
      H   24    0.10004      0.00000     0.39856    0.00140     0.39996
      H   25    0.08180      0.00000     0.41652    0.00168     0.41820
      H   26    0.14581      0.00000     0.35220    0.00198     0.35419
      H   27    0.11785      0.00000     0.38100    0.00115     0.38215
 =======================================================================
   * Total *    0.00000     11.99598    33.83820    0.16583    46.00000

 Normal termination of Gaussian 16 at Wed Dec  9 17:46:01 2020.
