 Gaussian 16, Revision A.03,

 -----------------------------------------------------------
 # opt freq B3LYP/6-31G(d) empiricaldispersion=gd3bj scf=xqc
 -----------------------------------------------------------

 -------------------------------
 CID_145879885_JID_3365_neutraal
 -------------------------------
 Symbolic Z-matrix:
 Charge =  0 Multiplicity = 1

 SCF Done:  E(RB3LYP) =  -915.662185259     A.U. after   14 cycles
 SCF Done:  E(RB3LYP) =  -915.661998187     A.U. after   12 cycles
 SCF Done:  E(RB3LYP) =  -915.666177019     A.U. after   11 cycles
 SCF Done:  E(RB3LYP) =  -915.666849498     A.U. after   12 cycles
 SCF Done:  E(RB3LYP) =  -915.666978744     A.U. after   13 cycles
 SCF Done:  E(RB3LYP) =  -915.667480761     A.U. after   11 cycles
 SCF Done:  E(RB3LYP) =  -915.667603230     A.U. after   11 cycles
 SCF Done:  E(RB3LYP) =  -915.667723179     A.U. after   11 cycles
 SCF Done:  E(RB3LYP) =  -915.667762143     A.U. after   10 cycles
 SCF Done:  E(RB3LYP) =  -915.667774419     A.U. after   10 cycles
 SCF Done:  E(RB3LYP) =  -915.667785377     A.U. after    9 cycles
 SCF Done:  E(RB3LYP) =  -915.667788373     A.U. after    9 cycles
 SCF Done:  E(RB3LYP) =  -915.667789244     A.U. after    8 cycles
 SCF Done:  E(RB3LYP) =  -915.667789427     A.U. after    7 cycles
 Optimization completed.
    -- Stationary point found.
 Normal termination of Gaussian 16 at Wed Dec  9 23:05:41 2020.

 --------------------------------------------------------------------
 #N Geom=AllCheck Guess=TCheck SCRF=Check GenChk RB3LYP/6-31G(d) Freq
 --------------------------------------------------------------------

 Structure from the checkpoint file:  "JID_3365.chk"
 -------------------------------
 CID_145879885_JID_3365_neutraal
 -------------------------------
 Charge =  0 Multiplicity = 1

 SCF Done:  E(RB3LYP) =  -915.667789427     A.U. after    1 cycles

  Exact polarizability: 143.270   0.938 126.303  -3.975   3.784 108.684
 Approx polarizability: 192.201   3.986 188.253 -10.031  17.605 177.529

                      1                      2                      3
                      A                      A                      A
 Frequencies --     36.3653                48.7604                61.2887
 Red. masses --      3.6505                 4.9057                 3.4935
 Frc consts  --      0.0028                 0.0069                 0.0077
 IR Inten    --      1.7952                 1.5513                 0.0839

                      4                      5                      6
                      A                      A                      A
 Frequencies --     85.9579               110.3036               127.2139
 Red. masses --      4.3734                 4.2884                 3.1493
 Frc consts  --      0.0190                 0.0307                 0.0300
 IR Inten    --      5.0888                 0.5567                 5.6733

                      7                      8                      9
                      A                      A                      A
 Frequencies --    155.2478               190.8033               241.2854
 Red. masses --      2.0515                 2.2456                 1.8737
 Frc consts  --      0.0291                 0.0482                 0.0643
 IR Inten    --      1.3153                 0.4610                 0.7171

                     10                     11                     12
                      A                      A                      A
 Frequencies --    256.0900               271.9820               282.7024
 Red. masses --      1.8438                 1.2363                 2.6686
 Frc consts  --      0.0712                 0.0539                 0.1257
 IR Inten    --      0.5206                 0.4053                 2.5793

                     13                     14                     15
                      A                      A                      A
 Frequencies --    319.5653               329.5090               357.7291
 Red. masses --      2.7085                 2.6290                 2.8177
 Frc consts  --      0.1630                 0.1682                 0.2124
 IR Inten    --      1.0634                 1.4711                 0.9278

                     16                     17                     18
                      A                      A                      A
 Frequencies --    436.2291               462.8910               481.2889
 Red. masses --      2.0453                 2.4677                 2.6398
 Frc consts  --      0.2293                 0.3115                 0.3603
 IR Inten    --      5.6953                 3.8572                14.1189

                     19                     20                     21
                      A                      A                      A
 Frequencies --    515.2339               626.3540               654.5909
 Red. masses --      1.4823                 3.5018                 3.2355
 Frc consts  --      0.2318                 0.8094                 0.8168
 IR Inten    --     71.7381                 2.6841                 9.7687

                     22                     23                     24
                      A                      A                      A
 Frequencies --    683.7661               687.3925               755.7076
 Red. masses --      3.1674                 4.2238                 2.4536
 Frc consts  --      0.8725                 1.1759                 0.8256
 IR Inten    --      1.5899                 2.3299                12.6652

                     25                     26                     27
                      A                      A                      A
 Frequencies --    767.9636               792.4747               801.3496
 Red. masses --      1.8824                 1.4561                 1.7632
 Frc consts  --      0.6541                 0.5388                 0.6671
 IR Inten    --      9.1699                15.6831                 8.8139

                     28                     29                     30
                      A                      A                      A
 Frequencies --    876.1150               902.2235               942.0828
 Red. masses --      1.3346                 2.2907                 5.9928
 Frc consts  --      0.6035                 1.0986                 3.1337
 IR Inten    --     14.0465                11.1628                 7.8285

                     31                     32                     33
                      A                      A                      A
 Frequencies --    948.0756               995.5637              1006.7138
 Red. masses --      1.8283                 1.9190                 2.1591
 Frc consts  --      0.9682                 1.1206                 1.2893
 IR Inten    --      1.4318                 4.0504                10.3869

                     34                     35                     36
                      A                      A                      A
 Frequencies --   1027.3304              1032.5012              1070.0989
 Red. masses --      3.7012                 2.4559                 1.9663
 Frc consts  --      2.3015                 1.5426                 1.3266
 IR Inten    --      8.2908                 7.3206                 8.6464

                     37                     38                     39
                      A                      A                      A
 Frequencies --   1075.2350              1088.8542              1121.4443
 Red. masses --      1.7182                 1.7063                 1.5537
 Frc consts  --      1.1704                 1.1919                 1.1513
 IR Inten    --      7.2744                15.9045                20.1462

                     40                     41                     42
                      A                      A                      A
 Frequencies --   1144.8277              1157.2399              1167.1325
 Red. masses --      1.9839                 2.2363                 1.3486
 Frc consts  --      1.5320                 1.7645                 1.0824
 IR Inten    --     36.0018                26.0585                 1.3554

                     43                     44                     45
                      A                      A                      A
 Frequencies --   1204.8741              1228.1270              1267.5918
 Red. masses --      1.2681                 1.7000                 2.2280
 Frc consts  --      1.0846                 1.5107                 2.1093
 IR Inten    --      5.4368                10.4344                 7.0581

                     46                     47                     48
                      A                      A                      A
 Frequencies --   1291.4334              1297.0407              1313.0522
 Red. masses --      1.2878                 1.4292                 1.2312
 Frc consts  --      1.2655                 1.4166                 1.2506
 IR Inten    --      3.2719                 5.3667                 9.3124

                     49                     50                     51
                      A                      A                      A
 Frequencies --   1329.3888              1340.4526              1357.1258
 Red. masses --      1.4476                 1.2909                 1.7171
 Frc consts  --      1.5073                 1.3666                 1.8633
 IR Inten    --     20.0280                11.2272                 5.4120

                     52                     53                     54
                      A                      A                      A
 Frequencies --   1390.6158              1406.8992              1429.1810
 Red. masses --      1.2915                 2.0971                 1.4080
 Frc consts  --      1.4715                 2.4456                 1.6944
 IR Inten    --     12.4279                20.9399                12.2930

                     55                     56                     57
                      A                      A                      A
 Frequencies --   1439.1650              1446.2113              1480.9368
 Red. masses --      1.2284                 2.8455                 1.1586
 Frc consts  --      1.4991                 3.5064                 1.4971
 IR Inten    --      3.6994                15.8131                 2.6490

                     58                     59                     60
                      A                      A                      A
 Frequencies --   1489.4674              1498.1472              1506.7662
 Red. masses --      1.0981                 1.2306                 2.7217
 Frc consts  --      1.4353                 1.6273                 3.6407
 IR Inten    --     12.3313                 7.6507                13.5293

                     61                     62                     63
                      A                      A                      A
 Frequencies --   1515.8886              1520.9815              1524.2047
 Red. masses --      1.0507                 1.0776                 1.0500
 Frc consts  --      1.4226                 1.4687                 1.4372
 IR Inten    --     13.4601                 2.2782                 6.6530

                     64                     65                     66
                      A                      A                      A
 Frequencies --   1533.2550              1534.0447              1547.3822
 Red. masses --      1.0520                 1.0824                 1.0570
 Frc consts  --      1.4572                 1.5007                 1.4911
 IR Inten    --      2.6887                 2.1089                 8.9624

                     67                     68                     69
                      A                      A                      A
 Frequencies --   1608.4110              2973.7671              2997.2838
 Red. masses --      3.9746                 1.0553                 1.0699
 Frc consts  --      6.0581                 5.4982                 5.6630
 IR Inten    --      9.7185                56.2163                34.9004

                     70                     71                     72
                      A                      A                      A
 Frequencies --   3043.5196              3050.7796              3068.6810
 Red. masses --      1.0734                 1.0367                 1.0871
 Frc consts  --      5.8580                 5.6850                 6.0317
 IR Inten    --     30.2923                22.8562                14.0208

                     73                     74                     75
                      A                      A                      A
 Frequencies --   3069.6098              3075.3460              3089.2533
 Red. masses --      1.0789                 1.0619                 1.0664
 Frc consts  --      5.9896                 5.9170                 5.9961
 IR Inten    --     53.4996                 7.4489                23.7479

                     76                     77                     78
                      A                      A                      A
 Frequencies --   3110.6646              3115.1847              3116.5636
 Red. masses --      1.0991                 1.1015                 1.1033
 Frc consts  --      6.2662                 6.2977                 6.3138
 IR Inten    --     27.1804                39.5144                 6.7920

                     79                     80                     81
                      A                      A                      A
 Frequencies --   3133.0306              3138.8284              3144.2088
 Red. masses --      1.1029                 1.1025                 1.0900
 Frc consts  --      6.3785                 6.3997                 6.3490
 IR Inten    --      4.3856                40.9987                 8.6807

                     82                     83                     84
                      A                      A                      A
 Frequencies --   3262.4211              3266.0532              3643.3019
 Red. masses --      1.0949                 1.0992                 1.0807
 Frc consts  --      6.8662                 6.9084                 8.4514
 IR Inten    --      2.7399                 2.1416                33.6680

 - Thermochemistry -
 -------------------
 Temperature   298.150 Kelvin.  Pressure   1.00000 Atm.
 Atom     1 has atomic number  6 and mass  12.00000

 Molecular mass:   199.11432 amu.
 Principal axes and moments of inertia in atomic units:
                           1         2         3
     Eigenvalues --  1949.175763842.578604684.71653
           X            0.99944  -0.02987   0.01523
           Y            0.03041   0.99886  -0.03672
           Z           -0.01411   0.03716   0.99921
 This molecule is an asymmetric top.
 Rotational symmetry number  1.
 Warning -- assumption of classical behavior for rotation
           may cause significant error
 Rotational temperatures (Kelvin)      0.04444     0.02254     0.01849
 Rotational constants (GHZ):           0.92590     0.46967     0.38524
 Zero-point vibrational energy     687222.5 (Joules/Mol)
                                  164.25011 (Kcal/Mol)
 Warning -- explicit consideration of  19 degrees of freedom as
           vibrations may cause significant error
 Vibrational temperatures:     52.32    70.16    88.18   123.67   158.70
          (Kelvin)            183.03   223.37   274.52   347.16   368.46
                              391.32   406.75   459.78   474.09   514.69
                              627.64   666.00   692.47   741.31   901.18
                              941.81   983.79   989.00  1087.29  1104.93
                             1140.19  1152.96  1260.53  1298.10  1355.45
                             1364.07  1432.39  1448.44  1478.10  1485.54
                             1539.63  1547.02  1566.62  1613.51  1647.15
                             1665.01  1679.24  1733.55  1767.00  1823.78
                             1858.08  1866.15  1889.19  1912.69  1928.61
                             1952.60  2000.79  2024.21  2056.27  2070.64
                             2080.78  2130.74  2143.01  2155.50  2167.90
                             2181.03  2188.35  2192.99  2206.01  2207.15
                             2226.34  2314.14  4278.59  4312.42  4378.95
                             4389.39  4415.15  4416.48  4424.74  4444.75
                             4475.55  4482.06  4484.04  4507.73  4516.07
                             4523.82  4693.90  4699.12  5241.90

 Zero-point correction=                           0.261749 (Hartree/Particle)
 Thermal correction to Energy=                    0.276005
 Thermal correction to Enthalpy=                  0.276949
 Thermal correction to Gibbs Free Energy=         0.219678
 Sum of electronic and zero-point Energies=           -915.406040
 Sum of electronic and thermal Energies=              -915.391785
 Sum of electronic and thermal Enthalpies=            -915.390840
 Sum of electronic and thermal Free Energies=         -915.448112

                     E (Thermal)             CV                S
                      KCal/Mol        Cal/Mol-Kelvin    Cal/Mol-Kelvin
 Total                  173.196             52.688            120.538
 Electronic               0.000              0.000              0.000
 Translational            0.889              2.981             41.771
 Rotational               0.889              2.981             31.929
 Vibrational            171.418             46.726             46.838
 Vibration     1          0.594              1.982              5.448
 Vibration     2          0.595              1.978              4.867
 Vibration     3          0.597              1.973              4.415
 Vibration     4          0.601              1.959              3.750
 Vibration     5          0.606              1.941              3.264
 Vibration     6          0.611              1.926              2.988
 Vibration     7          0.620              1.897              2.607
 Vibration     8          0.634              1.853              2.220
 Vibration     9          0.658              1.777              1.793
 Vibration    10          0.666              1.752              1.688
 Vibration    11          0.675              1.725              1.584
 Vibration    12          0.682              1.706              1.517
 Vibration    13          0.705              1.636              1.312
 Vibration    14          0.712              1.617              1.262
 Vibration    15          0.733              1.559              1.132
 Vibration    16          0.797              1.391              0.839
 Vibration    17          0.821              1.332              0.758
 Vibration    18          0.838              1.292              0.707
 Vibration    19          0.870              1.216              0.621

 Optimization completed.
    -- Stationary point found.
 Normal termination of Gaussian 16 at Wed Dec  9 23:14:37 2020.

 ----------------------------------------------------------------------
 # B3LYP/6-311++G(d,p) empiricaldispersion=gd3bj scf=xqc pop=npa geom=c
 heck
 ----------------------------------------------------------------------

 ---------------------------------------
 CID_145879885_JID_3365_Energie_neutraal
 ---------------------------------------
 Structure from the checkpoint file:  "JID_3365.chk"
 Charge =  0 Multiplicity = 1

 SCF Done:  E(RB3LYP) =  -915.840958906     A.U. after   15 cycles
 Normal termination of Gaussian 16 at Wed Dec  9 23:19:04 2020.

 ----------------------------------------------------------------------
 # B3LYP/6-311++G(d,p) empiricaldispersion=gd3bj scf=xqc pop=npa geom=c
 heck
 ----------------------------------------------------------------------

 -------------------------------------
 CID_145879885_JID_3365_Energie_kation
 -------------------------------------
 Structure from the checkpoint file:  "JID_3365.chk"
 Charge =  1 Multiplicity = 2

 SCF Done:  E(UB3LYP) =  -915.555135795     A.U. after   30 cycles
 Normal termination of Gaussian 16 at Wed Dec  9 23:31:35 2020.
 Gaussian 16:  ES64L-G16RevA.03 25-Dec-2016

 ----------------------------------------------------------------------
 # B3LYP/6-311++G(d,p) empiricaldispersion=gd3bj scf=xqc pop=npa geom=c
 heck
 ----------------------------------------------------------------------

 ------------------------------------
 CID_145879885_JID_3365_Energie_anion
 ------------------------------------
 Structure from the checkpoint file:  "JID_3365.chk"
 Charge = -1 Multiplicity = 2

                         Standard orientation:
 ---------------------------------------------------------------------
 Center     Atomic      Atomic             Coordinates (Angstroms)
 Number     Number       Type             X           Y           Z
 ---------------------------------------------------------------------
      1          6           0        2.989950   -1.082627    1.660581
      2          6           0        2.217062   -1.502622    0.414196
      3         16           0        2.457013   -0.419766   -1.051898
      4          6           0        1.942668    1.263832   -0.511752
      5          6           0        0.487935    1.694659   -0.802947
      6          7           0       -0.315312    1.868054    0.409169
      7          6           0       -1.528379    2.628653    0.138103
      8          6           0       -0.606094    0.610705    1.109252
      9          6           0       -1.497270   -0.364511    0.390212
     10          6           0       -1.296447   -1.247272   -0.651458
     11          7           0       -2.470904   -1.880552   -1.002112
     12          6           0       -3.384786   -1.391845   -0.191403
     13          7           0       -2.852948   -0.468931    0.665414
     14          1           0        4.058956   -0.991863    1.445663
     15          1           0        2.855174   -1.826135    2.455539
     16          1           0        2.641959   -0.120425    2.051612
     17          1           0        2.578559   -2.472351    0.055307
     18          1           0        1.151231   -1.628256    0.625064
     19          1           0        2.173384    1.408930    0.547004
     20          1           0        2.625102    1.917065   -1.062642
     21          1           0        0.515541    2.675806   -1.290254
     22          1           0        0.021767    1.001065   -1.522087
     23          1           0       -2.206605    2.144245   -0.586655
     24          1           0       -2.079776    2.777851    1.074347
     25          1           0       -1.258660    3.614726   -0.254037
     26          1           0        0.347394    0.134269    1.343763
     27          1           0       -1.061486    0.872554    2.073560
     28          1           0       -0.370906   -1.449441   -1.173131
     29          1           0       -4.431272   -1.665307   -0.173729
     30          1           0       -3.346251    0.039685    1.385046
 ---------------------------------------------------------------------

 SCF Done:  E(UB3LYP) =  -915.832980882     A.U. after   29 cycles

 The electronic state is 2-A.
 Alpha  occ. eigenvalues --  -88.74745 -14.25924 -14.21203 -14.19172 -10.12008
 Alpha  occ. eigenvalues --  -10.11172 -10.10799 -10.10489 -10.10127 -10.09954
 Alpha  occ. eigenvalues --  -10.08462 -10.08151 -10.07791  -7.83352  -5.79756
 Alpha  occ. eigenvalues --   -5.79368  -5.78723  -0.91032  -0.83098  -0.76687
 Alpha  occ. eigenvalues --   -0.72103  -0.67644  -0.65985  -0.60572  -0.60097
 Alpha  occ. eigenvalues --   -0.55686  -0.51122  -0.50617  -0.48698  -0.47855
 Alpha  occ. eigenvalues --   -0.42970  -0.40013  -0.38784  -0.37385  -0.35711
 Alpha  occ. eigenvalues --   -0.35207  -0.34082  -0.32684  -0.31779  -0.31432
 Alpha  occ. eigenvalues --   -0.30941  -0.30434  -0.29534  -0.28387  -0.27632
 Alpha  occ. eigenvalues --   -0.26891  -0.26515  -0.24437  -0.21346  -0.18170
 Alpha  occ. eigenvalues --   -0.17400  -0.13884  -0.13125  -0.12205   0.04166
 Alpha virt. eigenvalues --    0.06170   0.06813   0.07961   0.08330   0.09080
 Alpha virt. eigenvalues --    0.09286   0.10072   0.10806   0.11157   0.11429
 Alpha virt. eigenvalues --    0.11709   0.12168   0.12708   0.12953   0.13381

  Beta  occ. eigenvalues --  -88.74745 -14.25858 -14.21202 -14.19174 -10.11995
  Beta  occ. eigenvalues --  -10.11165 -10.10789 -10.10459 -10.10115 -10.09956
  Beta  occ. eigenvalues --  -10.08423 -10.08125 -10.07784  -7.83351  -5.79756
  Beta  occ. eigenvalues --   -5.79367  -5.78723  -0.90986  -0.83081  -0.76625
  Beta  occ. eigenvalues --   -0.72087  -0.67616  -0.65953  -0.60537  -0.60047
  Beta  occ. eigenvalues --   -0.55635  -0.51052  -0.50520  -0.48669  -0.47814
  Beta  occ. eigenvalues --   -0.42900  -0.39990  -0.38748  -0.37364  -0.35677
  Beta  occ. eigenvalues --   -0.35172  -0.34036  -0.32654  -0.31747  -0.31403
  Beta  occ. eigenvalues --   -0.30920  -0.30388  -0.29506  -0.28357  -0.27595
  Beta  occ. eigenvalues --   -0.26861  -0.26474  -0.24418  -0.21334  -0.18138
  Beta  occ. eigenvalues --   -0.17391  -0.13878  -0.13113  -0.12195
  Beta virt. eigenvalues --    0.06276   0.07151   0.07751   0.08259   0.08785
  Beta virt. eigenvalues --    0.09579   0.09865   0.10228   0.11096   0.11404
  Beta virt. eigenvalues --    0.11714   0.11809   0.12476   0.13035   0.13158

 Mulliken charges and spin densities:
               1          2
     1  C    0.149492  -0.761154
     2  C   -0.611235   0.287308
     3  S    0.278067  -0.124454
     4  C   -0.099388  -0.242243
     5  C   -0.507898   0.037848
     6  N    0.057850   0.239897
     7  C    0.523866  -0.852047
     8  C    0.798236  -2.018364
     9  C    0.247884   0.061130
    10  C   -0.409031   0.066986
    11  N   -0.133426   0.009911
    12  C    0.141394   0.021096
    13  N   -0.049590  -0.032725
    14  H    0.017173   0.115973
    15  H   -0.208270   0.354851
    16  H   -0.093695   0.255063
    17  H    0.092750   0.122694
    18  H    0.203609  -0.017791
    19  H    0.146776  -0.000454
    20  H    0.084621   0.153419
    21  H    0.012388   0.136699
    22  H    0.128814   0.010567
    23  H    0.055220   0.107180
    24  H   -0.427427   0.591327
    25  H   -0.276603   0.405028
    26  H    0.240232  -0.207980
    27  H   -0.615899   0.846886
    28  H    0.168514   0.000609
    29  H   -0.468965   0.644747
    30  H   -0.445458   0.787994
 Sum of Mulliken charges =  -1.00000   1.00000

 Dipole moment (field-independent basis, Debye):
    X=              6.7612    Y=             -0.9229    Z=             -3.7885  Tot=              7.8050
 Quadrupole moment (field-independent basis, Debye-Ang):
   XX=           -158.2180   YY=           -130.2953   ZZ=           -132.1785
   XY=              3.4846   XZ=              9.4716   YZ=             -7.9520

 Summary of Natural Population Analysis:

                                       Natural Population
                Natural  -----------------------------------------------
    Atom  No    Charge         Core      Valence    Rydberg      Total
 -----------------------------------------------------------------------
      C    1   -0.29278      0.99965     2.28711    0.00601     3.29278
      C    2   -0.25607      0.99960     2.24643    0.01005     3.25607
      S    3    0.08009      4.99962     2.90348    0.01681     7.91991
      C    4   -0.26247      0.99957     2.25244    0.01046     3.26247
      C    5   -0.09343      0.99959     2.08175    0.01209     3.09343
      N    6   -0.27318      0.99973     2.75960    0.01384     3.77318
      C    7   -0.17921      0.99964     2.17073    0.00885     3.17921
      C    8   -0.10707      0.99956     2.09158    0.01593     3.10707
      C    9    0.03900      0.99952     1.94745    0.01403     2.96100
      C   10   -0.04038      0.99950     2.02731    0.01357     3.04038
      N   11   -0.25924      0.99973     2.74991    0.00960     3.75924
      C   12    0.09994      0.99965     1.88188    0.01852     2.90006
      N   13   -0.26871      0.99966     2.75709    0.01197     3.76871
      H   14    0.09992      0.00000     0.39869    0.00139     0.40008
      H   15    0.10260      0.00000     0.39627    0.00114     0.39740
      H   16    0.09924      0.00000     0.39958    0.00118     0.40076
      H   17    0.10427      0.00000     0.39469    0.00103     0.39573
      H   18    0.10449      0.00000     0.39364    0.00187     0.39551
      H   19    0.11004      0.00000     0.38807    0.00188     0.38996
      H   20    0.10695      0.00000     0.39210    0.00096     0.39305
      H   21    0.09616      0.00000     0.40247    0.00137     0.40384
      H   22    0.09131      0.00000     0.40697    0.00172     0.40869
      H   23    0.08478      0.00000     0.41373    0.00149     0.41522
      H   24    0.10095      0.00000     0.39705    0.00200     0.39905
      H   25    0.09388      0.00000     0.40483    0.00129     0.40612
      H   26    0.10073      0.00000     0.39652    0.00275     0.39927
      H   27    0.10769      0.00000     0.38973    0.00258     0.39231
      H   28    0.10141      0.00000     0.39665    0.00193     0.39859
      H   29    0.09316      0.00000     0.40551    0.00133     0.40684
      H   30    0.21596      0.00000     0.25827    0.02577     0.28404
 =======================================================================
   * Total *    0.00000     16.99503    36.79155    0.21342    54.00000

 Normal termination of Gaussian 16 at Wed Dec  9 23:43:42 2020.
