 Gaussian 16, Revision A.03,

 -----------------------------------------------------------
 # opt freq B3LYP/6-31G(d) empiricaldispersion=gd3bj scf=xqc
 -----------------------------------------------------------

 ------------------------------
 CID_65190925_JID_4741_neutraal
 ------------------------------
 Symbolic Z-matrix:
 Charge =  0 Multiplicity = 1

 SCF Done:  E(RB3LYP) =  -618.433046261     A.U. after   14 cycles
 SCF Done:  E(RB3LYP) =  -618.435983121     A.U. after   12 cycles
 SCF Done:  E(RB3LYP) =  -618.435829049     A.U. after   12 cycles
 SCF Done:  E(RB3LYP) =  -618.436717161     A.U. after   11 cycles
 SCF Done:  E(RB3LYP) =  -618.436932608     A.U. after   11 cycles
 SCF Done:  E(RB3LYP) =  -618.437053177     A.U. after   11 cycles
 SCF Done:  E(RB3LYP) =  -618.437106640     A.U. after   10 cycles
 SCF Done:  E(RB3LYP) =  -618.437138284     A.U. after   10 cycles
 SCF Done:  E(RB3LYP) =  -618.437155127     A.U. after    9 cycles
 SCF Done:  E(RB3LYP) =  -618.437171870     A.U. after   11 cycles
 SCF Done:  E(RB3LYP) =  -618.437194235     A.U. after   10 cycles
 SCF Done:  E(RB3LYP) =  -618.437195605     A.U. after    8 cycles
 SCF Done:  E(RB3LYP) =  -618.437195949     A.U. after    7 cycles
 SCF Done:  E(RB3LYP) =  -618.437195997     A.U. after    7 cycles
 SCF Done:  E(RB3LYP) =  -618.437196041     A.U. after    7 cycles
 SCF Done:  E(RB3LYP) =  -618.437196035     A.U. after    6 cycles
 Optimization completed.
    -- Stationary point found.
 Normal termination of Gaussian 16 at Thu Dec 10 10:46:02 2020.

 --------------------------------------------------------------------
 #N Geom=AllCheck Guess=TCheck SCRF=Check GenChk RB3LYP/6-31G(d) Freq
 --------------------------------------------------------------------

 Structure from the checkpoint file:  "JID_4741.chk"
 ------------------------------
 CID_65190925_JID_4741_neutraal
 ------------------------------
 Charge =  0 Multiplicity = 1

 SCF Done:  E(RB3LYP) =  -618.437196035     A.U. after    1 cycles

  Exact polarizability: 155.342  -2.812 132.060   1.397   1.109 110.914
 Approx polarizability: 195.314 -10.344 185.835   0.952   5.324 166.936

                      1                      2                      3
                      A                      A                      A
 Frequencies --     22.6028                40.0511                46.5674
 Red. masses --      3.1274                 3.6627                 3.5108
 Frc consts  --      0.0009                 0.0035                 0.0045
 IR Inten    --      0.6292                 0.3802                 0.6560

                      4                      5                      6
                      A                      A                      A
 Frequencies --     60.7846                77.2091               108.0276
 Red. masses --      3.9021                 3.2406                 2.2999
 Frc consts  --      0.0085                 0.0114                 0.0158
 IR Inten    --      0.2299                 2.3994                 0.1246

                      7                      8                      9
                      A                      A                      A
 Frequencies --    118.8332               182.9350               201.5762
 Red. masses --      3.0181                 3.7383                 1.8133
 Frc consts  --      0.0251                 0.0737                 0.0434
 IR Inten    --      1.0231                 3.0572                 1.4795

                     10                     11                     12
                      A                      A                      A
 Frequencies --    225.0989               237.0505               245.5882
 Red. masses --      1.3608                 1.4463                 2.2300
 Frc consts  --      0.0406                 0.0479                 0.0792
 IR Inten    --      0.9577                 0.0379                 1.2538

                     13                     14                     15
                      A                      A                      A
 Frequencies --    259.9577               279.7539               293.0948
 Red. masses --      1.1240                 1.2661                 1.9380
 Frc consts  --      0.0448                 0.0584                 0.0981
 IR Inten    --     33.4328                 0.3569                 7.8346

                     16                     17                     18
                      A                      A                      A
 Frequencies --    299.1983               312.0607               330.4146
 Red. masses --      1.4365                 1.3876                 2.3452
 Frc consts  --      0.0758                 0.0796                 0.1509
 IR Inten    --      0.9265                 0.2267                 2.0352

                     19                     20                     21
                      A                      A                      A
 Frequencies --    349.2657               395.4386               408.0966
 Red. masses --      2.3794                 2.4026                 2.3310
 Frc consts  --      0.1710                 0.2214                 0.2287
 IR Inten    --      1.0682                 0.2706                 0.1386

                     22                     23                     24
                      A                      A                      A
 Frequencies --    432.8400               437.5274               451.5408
 Red. masses --      2.4947                 2.4537                 2.6348
 Frc consts  --      0.2754                 0.2767                 0.3165
 IR Inten    --      5.5706                 0.4338                 3.2259

                     25                     26                     27
                      A                      A                      A
 Frequencies --    497.0714               596.2771               611.8725
 Red. masses --      2.2893                 3.2319                 2.4613
 Frc consts  --      0.3333                 0.6770                 0.5429
 IR Inten    --     10.9440                21.8875                 8.8565

                     28                     29                     30
                      A                      A                      A
 Frequencies --    676.7699               715.3567               758.9736
 Red. masses --      2.8133                 1.4994                 1.3882
 Frc consts  --      0.7592                 0.4521                 0.4712
 IR Inten    --     12.2857                88.5959                 5.1902

                     31                     32                     33
                      A                      A                      A
 Frequencies --    786.3909               841.6468               852.6644
 Red. masses --      3.3628                 1.5872                 2.0241
 Frc consts  --      1.2253                 0.6624                 0.8670
 IR Inten    --      3.1485                36.4032                10.4729

                     34                     35                     36
                      A                      A                      A
 Frequencies --    872.7986               898.8608               918.8399
 Red. masses --      2.0542                 2.5931                 1.8655
 Frc consts  --      0.9220                 1.2344                 0.9280
 IR Inten    --     62.3109                 0.8803                 3.6239

                     37                     38                     39
                      A                      A                      A
 Frequencies --    933.7243               938.0383               954.4957
 Red. masses --      2.1093                 1.6029                 1.6596
 Frc consts  --      1.0835                 0.8310                 0.8908
 IR Inten    --      4.3386                 6.2377                 0.6071

                     40                     41                     42
                      A                      A                      A
 Frequencies --    958.1549               973.3699               981.1665
 Red. masses --      1.4644                 1.9455                 1.2224
 Frc consts  --      0.7921                 1.0860                 0.6934
 IR Inten    --      1.1614                26.6842                 0.6873

                     43                     44                     45
                      A                      A                      A
 Frequencies --   1016.1369              1060.3047              1066.5864
 Red. masses --      1.4952                 1.7972                 1.4595
 Frc consts  --      0.9096                 1.1904                 0.9782
 IR Inten    --      8.3567                 1.4984                 1.0477

                     46                     47                     48
                      A                      A                      A
 Frequencies --   1079.3959              1092.0368              1100.3070
 Red. masses --      1.4804                 2.3458                 1.5244
 Frc consts  --      1.0162                 1.6482                 1.0874
 IR Inten    --      8.6279                 1.1038                 5.2882

                     49                     50                     51
                      A                      A                      A
 Frequencies --   1140.1724              1178.5542              1187.4052
 Red. masses --      1.8566                 1.3410                 2.9130
 Frc consts  --      1.4220                 1.0975                 2.4198
 IR Inten    --      3.0803                16.6788                 1.5991

                     52                     53                     54
                      A                      A                      A
 Frequencies --   1220.1688              1243.0304              1276.0513
 Red. masses --      1.6239                 2.0878                 1.3882
 Frc consts  --      1.4245                 1.9006                 1.3318
 IR Inten    --     13.2996                 8.2525                 8.7888

                     55                     56                     57
                      A                      A                      A
 Frequencies --   1277.0512              1302.4348              1315.5676
 Red. masses --      2.4869                 1.2542                 2.1255
 Frc consts  --      2.3896                 1.2536                 2.1674
 IR Inten    --     22.1344                15.7997                40.7675

                     58                     59                     60
                      A                      A                      A
 Frequencies --   1328.6221              1343.6860              1362.6478
 Red. masses --      1.2969                 1.5576                 1.2358
 Frc consts  --      1.3488                 1.6569                 1.3520
 IR Inten    --     17.4114                17.3633                 0.6231

                     61                     62                     63
                      A                      A                      A
 Frequencies --   1365.1686              1396.2386              1408.5782
 Red. masses --      1.3101                 1.4789                 1.4562
 Frc consts  --      1.4386                 1.6987                 1.7023
 IR Inten    --      8.6084                34.3738                44.0516

                     64                     65                     66
                      A                      A                      A
 Frequencies --   1415.9562              1428.3190              1434.1518
 Red. masses --      2.0999                 1.2378                 1.2552
 Frc consts  --      2.4806                 1.4878                 1.5211
 IR Inten    --     83.1931                 4.4430                 7.6202

                     67                     68                     69
                      A                      A                      A
 Frequencies --   1436.2323              1445.1153              1461.0795
 Red. masses --      1.3721                 1.2748                 1.2298
 Frc consts  --      1.6676                 1.5686                 1.5467
 IR Inten    --      3.5756                 4.2662                 2.9784

                     70                     71                     72
                      A                      A                      A
 Frequencies --   1500.1592              1511.1216              1512.0646
 Red. masses --      1.4599                 1.0543                 1.0770
 Frc consts  --      1.9357                 1.4184                 1.4508
 IR Inten    --     35.6739                 6.5730                 3.6007

                     73                     74                     75
                      A                      A                      A
 Frequencies --   1516.1305              1517.0106              1522.5096
 Red. masses --      1.0851                 1.0518                 1.1392
 Frc consts  --      1.4696                 1.4261                 1.5559
 IR Inten    --      4.0973                 0.4189                27.4750

                     76                     77                     78
                      A                      A                      A
 Frequencies --   1524.1008              1531.8138              1534.5886
 Red. masses --      1.0981                 1.0716                 1.0596
 Frc consts  --      1.5029                 1.4815                 1.4702
 IR Inten    --      7.0296                 6.4610                 8.2099

                     79                     80                     81
                      A                      A                      A
 Frequencies --   1536.4175              1541.0605              1541.3342
 Red. masses --      1.0776                 1.0696                 1.0758
 Frc consts  --      1.4987                 1.4966                 1.5058
 IR Inten    --      8.6877                12.4976                10.9323

                     82                     83                     84
                      A                      A                      A
 Frequencies --   1547.5286              1699.4035              1763.2114
 Red. masses --      1.0585                 1.0885                 7.6555
 Frc consts  --      1.4935                 1.8521                14.0227
 IR Inten    --     22.1645                33.3477               394.4434

                     85                     86                     87
                      A                      A                      A
 Frequencies --   2989.7164              3032.9958              3035.3763
 Red. masses --      1.0716                 1.0638                 1.0350
 Frc consts  --      5.6436                 5.7660                 5.6184
 IR Inten    --     71.3759                34.6582                25.8298

                     88                     89                     90
                      A                      A                      A
 Frequencies --   3041.0895              3045.7048              3049.1548
 Red. masses --      1.0366                 1.0366                 1.0403
 Frc consts  --      5.6485                 5.6655                 5.6986
 IR Inten    --     36.6737                25.0997                25.0812

                     91                     92                     93
                      A                      A                      A
 Frequencies --   3051.0924              3066.7104              3068.0852
 Red. masses --      1.0663                 1.0957                 1.0594
 Frc consts  --      5.8486                 6.0715                 5.8754
 IR Inten    --      9.5619                27.7997                14.1092

                     94                     95                     96
                      A                      A                      A
 Frequencies --   3095.6719              3096.7718              3099.9353
 Red. masses --      1.0919                 1.0982                 1.1016
 Frc consts  --      6.1653                 6.2050                 6.2373
 IR Inten    --     28.4106                18.7506                 1.0380

                     97                     98                     99
                      A                      A                      A
 Frequencies --   3103.5563              3105.5054              3109.7009
 Red. masses --      1.1018                 1.1024                 1.1018
 Frc consts  --      6.2525                 6.2638                 6.2777
 IR Inten    --     27.5214                 2.2317               113.0580

                    100                    101                    102
                      A                      A                      A
 Frequencies --   3111.0060              3112.8858              3116.5278
 Red. masses --      1.1018                 1.1012                 1.1015
 Frc consts  --      6.2829                 6.2872                 6.3033
 IR Inten    --      8.3338                74.7194                55.2417

                    103                    104                    105
                      A                      A                      A
 Frequencies --   3123.4503              3138.7894              3151.6404
 Red. masses --      1.1012                 1.0844                 1.0987
 Frc consts  --      6.3296                 6.2943                 6.4301
 IR Inten    --     23.3340                28.1017                14.5379

                    106                    107                    108
                      A                      A                      A
 Frequencies --   3489.4282              3560.1759              3573.7673
 Red. masses --      1.0502                 1.0744                 1.0928
 Frc consts  --      7.5344                 8.0237                 8.2233
 IR Inten    --      0.3190                38.4850                 0.3222

 - Thermochemistry -
 -------------------
 Temperature   298.150 Kelvin.  Pressure   1.00000 Atm.
 Atom     1 has atomic number  6 and mass  12.00000

 Molecular mass:   200.18886 amu.
 Principal axes and moments of inertia in atomic units:
                           1         2         3
     Eigenvalues --  2024.613234420.373155646.74302
           X            0.99996   0.00856   0.00041
           Y           -0.00856   0.99995  -0.00448
           Z           -0.00044   0.00448   0.99999
 This molecule is an asymmetric top.
 Rotational symmetry number  1.
 Warning -- assumption of classical behavior for rotation
           may cause significant error
 Rotational temperatures (Kelvin)      0.04278     0.01959     0.01534
 Rotational constants (GHZ):           0.89140     0.40828     0.31961
 Zero-point vibrational energy     918912.5 (Joules/Mol)
                                  219.62537 (Kcal/Mol)
 Warning -- explicit consideration of  27 degrees of freedom as
           vibrations may cause significant error
 Vibrational temperatures:     32.52    57.62    67.00    87.46   111.09
          (Kelvin)            155.43   170.97   263.20   290.02   323.87
                              341.06   353.35   374.02   402.50   421.70
                              430.48   448.99   475.39   502.52   568.95
                              587.16   622.76   629.50   649.67   715.17
                              857.91   880.35   973.72  1029.24  1091.99
                             1131.44  1210.94  1226.79  1255.76  1293.26
                             1322.01  1343.42  1349.63  1373.31  1378.57
                             1400.46  1411.68  1461.99  1525.54  1534.58
                             1553.01  1571.20  1583.10  1640.45  1695.68
                             1708.41  1755.55  1788.44  1835.95  1837.39
                             1873.91  1892.81  1911.59  1933.26  1960.55
                             1964.17  2008.88  2026.63  2037.25  2055.03
                             2063.42  2066.42  2079.20  2102.17  2158.39
                             2174.17  2175.52  2181.37  2182.64  2190.55
                             2192.84  2203.94  2207.93  2210.56  2217.24
                             2217.64  2226.55  2445.06  2536.87  4301.54
                             4363.80  4367.23  4375.45  4382.09  4387.05
                             4389.84  4412.31  4414.29  4453.98  4455.56
                             4460.12  4465.33  4468.13  4474.17  4476.04
                             4478.75  4483.99  4493.95  4516.02  4534.51
                             5020.51  5122.30  5141.85

 Zero-point correction=                           0.349995 (Hartree/Particle)
 Thermal correction to Energy=                    0.367403
 Thermal correction to Enthalpy=                  0.368347
 Thermal correction to Gibbs Free Energy=         0.304272
 Sum of electronic and zero-point Energies=           -618.087201
 Sum of electronic and thermal Energies=              -618.069793
 Sum of electronic and thermal Enthalpies=            -618.068849
 Sum of electronic and thermal Free Energies=         -618.132924

                     E (Thermal)             CV                S
                      KCal/Mol        Cal/Mol-Kelvin    Cal/Mol-Kelvin
 Total                  230.549             64.860            134.856
 Electronic               0.000              0.000              0.000
 Translational            0.889              2.981             41.787
 Rotational               0.889              2.981             32.291
 Vibrational            228.771             58.899             60.778
 Vibration     1          0.593              1.985              6.391
 Vibration     2          0.594              1.981              5.257
 Vibration     3          0.595              1.979              4.958
 Vibration     4          0.597              1.973              4.432
 Vibration     5          0.599              1.964              3.961
 Vibration     6          0.606              1.943              3.304
 Vibration     7          0.609              1.934              3.119
 Vibration     8          0.630              1.863              2.298
 Vibration     9          0.638              1.838              2.119
 Vibration    10          0.650              1.803              1.918
 Vibration    11          0.656              1.784              1.825
 Vibration    12          0.660              1.770              1.762
 Vibration    13          0.668              1.746              1.662
 Vibration    14          0.680              1.711              1.535
 Vibration    15          0.688              1.687              1.456
 Vibration    16          0.692              1.675              1.421
 Vibration    17          0.700              1.651              1.351
 Vibration    18          0.713              1.615              1.258
 Vibration    19          0.727              1.577              1.170
 Vibration    20          0.762              1.480              0.980
 Vibration    21          0.773              1.453              0.933
 Vibration    22          0.794              1.399              0.849
 Vibration    23          0.798              1.388              0.834
 Vibration    24          0.810              1.357              0.791
 Vibration    25          0.853              1.257              0.665
 Vibration    26          0.954              1.040              0.456
 Vibration    27          0.971              1.007              0.430

 Optimization completed.
    -- Stationary point found.
 Normal termination of Gaussian 16 at Thu Dec 10 10:59:51 2020.

 ----------------------------------------------------------------------
 # B3LYP/6-311++G(d,p) empiricaldispersion=gd3bj scf=xqc pop=npa geom=c
 heck
 ----------------------------------------------------------------------

 --------------------------------------
 CID_65190925_JID_4741_Energie_neutraal
 --------------------------------------
 Structure from the checkpoint file:  "JID_4741.chk"
 Charge =  0 Multiplicity = 1

 SCF Done:  E(RB3LYP) =  -618.626484364     A.U. after   15 cycles
 Normal termination of Gaussian 16 at Thu Dec 10 11:07:15 2020.

 ----------------------------------------------------------------------
 # B3LYP/6-311++G(d,p) empiricaldispersion=gd3bj scf=xqc pop=npa geom=c
 heck
 ----------------------------------------------------------------------

 ------------------------------------
 CID_65190925_JID_4741_Energie_kation
 ------------------------------------
 Structure from the checkpoint file:  "JID_4741.chk"
 Charge =  1 Multiplicity = 2

 SCF Done:  E(UB3LYP) =  -618.315439924     A.U. after   26 cycles
 Normal termination of Gaussian 16 at Thu Dec 10 11:24:52 2020.
 Gaussian 16:  ES64L-G16RevA.03 25-Dec-2016

 ----------------------------------------------------------------------
 # B3LYP/6-311++G(d,p) empiricaldispersion=gd3bj scf=xqc pop=npa geom=c
 heck
 ----------------------------------------------------------------------

 -----------------------------------
 CID_65190925_JID_4741_Energie_anion
 -----------------------------------
 Structure from the checkpoint file:  "JID_4741.chk"
 Charge = -1 Multiplicity = 2

                         Standard orientation:
 ---------------------------------------------------------------------
 Center     Atomic      Atomic             Coordinates (Angstroms)
 Number     Number       Type             X           Y           Z
 ---------------------------------------------------------------------
      1          6           0       -2.458791    2.665874    0.363734
      2          6           0       -3.009540    1.591502   -0.579788
      3          6           0       -1.974882    0.532063   -0.984969
      4          6           0       -1.358774   -0.265234    0.180298
      5          6           0       -2.414063   -1.010391    1.017711
      6          7           0       -3.126498   -1.980502    0.177148
      7          7           0       -0.396064   -1.226327   -0.341548
      8          6           0        0.914828   -1.453192   -0.015150
      9          8           0        1.500311   -2.437541   -0.461813
     10          6           0        1.647516   -0.451106    0.868086
     11          6           0        2.553436    0.546138    0.090900
     12          6           0        1.718835    1.368526   -0.904464
     13          6           0        3.191127    1.494831    1.119844
     14          6           0        3.661747   -0.206805   -0.662653
     15          1           0       -2.178726    2.249347    1.338053
     16          1           0       -3.200205    3.451477    0.545005
     17          1           0       -1.566044    3.139906   -0.062446
     18          1           0       -3.883824    1.112961   -0.117154
     19          1           0       -3.381530    2.072223   -1.493384
     20          1           0       -2.428679   -0.179212   -1.687111
     21          1           0       -1.154981    1.014535   -1.528430
     22          1           0       -0.831218    0.425748    0.839158
     23          1           0       -1.888794   -1.564652    1.802261
     24          1           0       -3.072402   -0.282171    1.519319
     25          1           0       -3.570578   -2.689439    0.754894
     26          1           0       -3.873699   -1.519423   -0.337448
     27          1           0       -0.819970   -2.000245   -0.844633
     28          1           0        0.962478    0.119462    1.503480
     29          1           0        2.280229   -1.050078    1.530994
     30          1           0        0.919111    1.919359   -0.393527
     31          1           0        2.349974    2.101519   -1.420247
     32          1           0        1.258180    0.728029   -1.663451
     33          1           0        3.781566    0.937874    1.856962
     34          1           0        3.859744    2.209485    0.625443
     35          1           0        2.427658    2.067807    1.660758
     36          1           0        4.290989   -0.772801    0.033762
     37          1           0        3.244836   -0.919315   -1.377939
     38          1           0        4.302699    0.502494   -1.200324
 ---------------------------------------------------------------------

 SCF Done:  E(UB3LYP) =  -618.618153195     A.U. after   32 cycles

 The electronic state is 2-A.
 Alpha  occ. eigenvalues --  -18.98339 -14.23025 -14.19830 -10.17228 -10.11396
 Alpha  occ. eigenvalues --  -10.10209 -10.09594 -10.08172 -10.07286 -10.07098
 Alpha  occ. eigenvalues --  -10.07063 -10.06896 -10.06477 -10.06179  -0.93509
 Alpha  occ. eigenvalues --   -0.82860  -0.78132  -0.73940  -0.70035  -0.64032
 Alpha  occ. eigenvalues --   -0.62271  -0.60086  -0.59678  -0.58161  -0.52723
 Alpha  occ. eigenvalues --   -0.49227  -0.47173  -0.44714  -0.41395  -0.40480
 Alpha  occ. eigenvalues --   -0.37760  -0.37653  -0.36175  -0.35299  -0.35096
 Alpha  occ. eigenvalues --   -0.34033  -0.33756  -0.32737  -0.31253  -0.30996
 Alpha  occ. eigenvalues --   -0.30168  -0.29287  -0.28569  -0.28092  -0.27696
 Alpha  occ. eigenvalues --   -0.27548  -0.25905  -0.24735  -0.24421  -0.24048
 Alpha  occ. eigenvalues --   -0.23546  -0.23133  -0.22856  -0.16208  -0.15397
 Alpha  occ. eigenvalues --   -0.14596   0.03962
 Alpha virt. eigenvalues --    0.05888   0.06891   0.07208   0.08312   0.08736
 Alpha virt. eigenvalues --    0.08768   0.09784   0.09886   0.09965   0.10804
 Alpha virt. eigenvalues --    0.10971   0.11725   0.11784   0.12050   0.13332

  Beta  occ. eigenvalues --  -18.98334 -14.23024 -14.19780 -10.17223 -10.11392
  Beta  occ. eigenvalues --  -10.10209 -10.09562 -10.08160 -10.07266 -10.07087
  Beta  occ. eigenvalues --  -10.07034 -10.06881 -10.06469 -10.06142  -0.93499
  Beta  occ. eigenvalues --   -0.82844  -0.78057  -0.73930  -0.69996  -0.63981
  Beta  occ. eigenvalues --   -0.62242  -0.60051  -0.59657  -0.58087  -0.52640
  Beta  occ. eigenvalues --   -0.49201  -0.47101  -0.44683  -0.41352  -0.40446
  Beta  occ. eigenvalues --   -0.37732  -0.37626  -0.36151  -0.35259  -0.35022
  Beta  occ. eigenvalues --   -0.33985  -0.33727  -0.32708  -0.31237  -0.30974
  Beta  occ. eigenvalues --   -0.30140  -0.29262  -0.28537  -0.28054  -0.27680
  Beta  occ. eigenvalues --   -0.27522  -0.25868  -0.24698  -0.24399  -0.24028
  Beta  occ. eigenvalues --   -0.23503  -0.23105  -0.22829  -0.16177  -0.15381
  Beta  occ. eigenvalues --   -0.14567
  Beta virt. eigenvalues --    0.05965   0.06861   0.07582   0.07750   0.08641
  Beta virt. eigenvalues --    0.08857   0.09145   0.09996   0.10170   0.10467
  Beta virt. eigenvalues --    0.11167   0.11208   0.11923   0.11970   0.12203

 Mulliken charges and spin densities:
               1          2
     1  C    0.716313  -1.262423
     2  C   -0.223091  -0.137536
     3  C   -0.719884   0.708275
     4  C   -1.526085   1.138079
     5  C    2.384230  -3.117065
     6  N   -0.772538   0.445603
     7  N    0.060436   0.065296
     8  C   -0.345497   0.125543
     9  O   -0.322287   0.002487
    10  C    0.510047  -0.597220
    11  C    0.052109   0.560400
    12  C   -0.410334  -0.283675
    13  C    0.130224  -0.637098
    14  C   -0.435769  -0.161911
    15  H   -0.450737   0.598602
    16  H   -0.479056   0.637256
    17  H    0.046092   0.085783
    18  H   -0.198125   0.342158
    19  H   -0.351951   0.518422
    20  H    0.154573   0.008143
    21  H    0.045770   0.094925
    22  H    1.341518  -1.229820
    23  H   -0.188388   0.379121
    24  H   -0.290108   0.451462
    25  H   -0.142228   0.394882
    26  H   -0.145601   0.380609
    27  H    0.292416   0.055000
    28  H   -0.305698   0.466382
    29  H    0.154176   0.065340
    30  H    0.223268  -0.087535
    31  H   -0.079662   0.245213
    32  H    0.093223   0.079595
    33  H   -0.001573   0.138499
    34  H    0.037055   0.098005
    35  H   -0.177503   0.313658
    36  H    0.075803   0.061686
    37  H    0.157272   0.027034
    38  H    0.091590   0.026826
 Sum of Mulliken charges =  -1.00000   1.00000

 Dipole moment (field-independent basis, Debye):
    X=              6.4032    Y=              0.6517    Z=             -1.9958  Tot=              6.7386
 Quadrupole moment (field-independent basis, Debye-Ang):
   XX=           -171.0390   YY=           -149.4753   ZZ=           -124.0722
   XY=              4.5866   XZ=              7.4425   YZ=             -2.7587

 Summary of Natural Population Analysis:

                                       Natural Population
                Natural  -----------------------------------------------
    Atom  No    Charge         Core      Valence    Rydberg      Total
 -----------------------------------------------------------------------
      C    1   -0.28669      0.99967     2.28168    0.00535     3.28669
      C    2   -0.19241      0.99964     2.18450    0.00827     3.19241
      C    3   -0.19300      0.99960     2.18432    0.00908     3.19300
      C    4   -0.01752      0.99957     2.00504    0.01292     3.01752
      C    5   -0.09220      0.99960     2.08075    0.01184     3.09220
      N    6   -0.43227      0.99977     2.92149    0.01101     3.93227
      N    7   -0.31821      0.99965     2.80828    0.01028     3.81821
      C    8    0.34622      0.99966     1.63173    0.02239     2.65378
      O    9   -0.33258      0.99988     3.32726    0.00545     4.33258
      C   10   -0.23112      0.99955     2.22151    0.01007     3.23112
      C   11   -0.04313      0.99959     2.03442    0.00913     3.04313
      C   12   -0.28855      0.99962     2.28140    0.00753     3.28855
      C   13   -0.28326      0.99963     2.27631    0.00732     3.28326
      C   14   -0.28614      0.99962     2.28044    0.00608     3.28614
      H   15    0.09636      0.00000     0.40233    0.00132     0.40364
      H   16    0.10148      0.00000     0.39734    0.00117     0.39852
      H   17    0.09471      0.00000     0.40398    0.00132     0.40529
      H   18    0.09664      0.00000     0.40136    0.00200     0.40336
      H   19    0.09671      0.00000     0.40227    0.00102     0.40329
      H   20    0.09989      0.00000     0.39867    0.00144     0.40011
      H   21    0.09999      0.00000     0.39862    0.00139     0.40001
      H   22    0.10108      0.00000     0.39607    0.00285     0.39892
      H   23    0.09422      0.00000     0.40437    0.00140     0.40578
      H   24    0.08912      0.00000     0.40830    0.00257     0.41088
      H   25    0.18235      0.00000     0.31497    0.00269     0.31765
      H   26    0.17769      0.00000     0.31993    0.00238     0.32231
      H   27    0.20173      0.00000     0.29571    0.00256     0.29827
      H   28    0.10278      0.00000     0.39579    0.00142     0.39722
      H   29    0.11120      0.00000     0.38781    0.00098     0.38880
      H   30    0.10061      0.00000     0.39820    0.00119     0.39939
      H   31    0.09884      0.00000     0.40042    0.00074     0.40116
      H   32    0.10341      0.00000     0.39563    0.00096     0.39659
      H   33    0.09845      0.00000     0.40075    0.00080     0.40155
      H   34    0.09853      0.00000     0.40072    0.00075     0.40147
      H   35    0.10106      0.00000     0.39803    0.00091     0.39894
      H   36    0.09856      0.00000     0.40071    0.00073     0.40144
      H   37    0.11137      0.00000     0.38776    0.00087     0.38863
      H   38    0.09410      0.00000     0.40512    0.00079     0.40590
 =======================================================================
   * Total *    0.00000     13.99505    41.83397    0.17098    56.00000

 Normal termination of Gaussian 16 at Thu Dec 10 11:46:24 2020.
