 Gaussian 16, Revision A.03,

 -----------------------------------------------------------
 # opt freq B3LYP/6-31G(d) empiricaldispersion=gd3bj scf=xqc
 -----------------------------------------------------------

 -----------------------------
 CID_13433581_JID_746_neutraal
 -----------------------------
 Symbolic Z-matrix:
 Charge =  0 Multiplicity = 1

 SCF Done:  E(RB3LYP) =  -478.617998528     A.U. after   15 cycles
 SCF Done:  E(RB3LYP) =  -478.620688249     A.U. after   12 cycles
 SCF Done:  E(RB3LYP) =  -478.620916971     A.U. after   11 cycles
 SCF Done:  E(RB3LYP) =  -478.620880292     A.U. after   11 cycles
 SCF Done:  E(RB3LYP) =  -478.620982169     A.U. after   10 cycles
 SCF Done:  E(RB3LYP) =  -478.620994751     A.U. after    8 cycles
 SCF Done:  E(RB3LYP) =  -478.621007265     A.U. after   10 cycles
 SCF Done:  E(RB3LYP) =  -478.621014641     A.U. after   10 cycles
 SCF Done:  E(RB3LYP) =  -478.621035886     A.U. after   10 cycles
 SCF Done:  E(RB3LYP) =  -478.621129770     A.U. after   12 cycles
 SCF Done:  E(RB3LYP) =  -478.621499401     A.U. after   10 cycles
 SCF Done:  E(RB3LYP) =  -478.621505589     A.U. after    9 cycles
 SCF Done:  E(RB3LYP) =  -478.621506565     A.U. after    8 cycles
 SCF Done:  E(RB3LYP) =  -478.621506691     A.U. after    7 cycles
 SCF Done:  E(RB3LYP) =  -478.621506712     A.U. after    7 cycles
 Optimization completed.
    -- Stationary point found.
 Normal termination of Gaussian 16 at Tue Dec  8 13:11:35 2020.

 --------------------------------------------------------------------
 #N Geom=AllCheck Guess=TCheck SCRF=Check GenChk RB3LYP/6-31G(d) Freq
 --------------------------------------------------------------------

 Structure from the checkpoint file:  "JID_746.chk"
 -----------------------------
 CID_13433581_JID_746_neutraal
 -----------------------------
 Charge =  0 Multiplicity = 1

 SCF Done:  E(RB3LYP) =  -478.621506712     A.U. after    1 cycles

  Exact polarizability: 105.841  -7.815  86.896   0.514  -0.131  58.764
 Approx polarizability: 158.377 -31.129 138.008   0.066   0.838  81.576

                      1                      2                      3
                      A                      A                      A
 Frequencies --     73.0688                95.5010               134.9875
 Red. masses --      1.0325                 3.1296                 5.1159
 Frc consts  --      0.0032                 0.0168                 0.0549
 IR Inten    --      0.7173                 0.2517                 1.0355

                      4                      5                      6
                      A                      A                      A
 Frequencies --    197.4530               223.2915               235.0443
 Red. masses --      2.4144                 1.1552                 2.4275
 Frc consts  --      0.0555                 0.0339                 0.0790
 IR Inten    --      1.8725                 0.2101                 2.5229

                      7                      8                      9
                      A                      A                      A
 Frequencies --    252.3844               283.8296               304.7585
 Red. masses --      1.2006                 2.2231                 2.3422
 Frc consts  --      0.0451                 0.1055                 0.1282
 IR Inten    --      0.0736                 1.6846                 6.0815

                     10                     11                     12
                      A                      A                      A
 Frequencies --    319.0225               363.8581               400.6448
 Red. masses --      2.6506                 3.2810                 1.4214
 Frc consts  --      0.1589                 0.2559                 0.1344
 IR Inten    --      1.1583                 3.5007                37.3752

                     13                     14                     15
                      A                      A                      A
 Frequencies --    456.5308               513.1970               558.4053
 Red. masses --      2.8111                 1.5866                 3.2178
 Frc consts  --      0.3452                 0.2462                 0.5912
 IR Inten    --     33.9913               229.9633                38.2808

                     16                     17                     18
                      A                      A                      A
 Frequencies --    619.2340               632.4036               677.9292
 Red. masses --      3.4753                 4.6293                 6.3498
 Frc consts  --      0.7852                 1.0908                 1.7194
 IR Inten    --      3.5971                 3.5896                 4.7499

                     19                     20                     21
                      A                      A                      A
 Frequencies --    689.0187               752.2723               845.1760
 Red. masses --      6.3362                 8.3813                 2.7670
 Frc consts  --      1.7723                 2.7945                 1.1645
 IR Inten    --      4.1451                16.8697                 1.6251

                     22                     23                     24
                      A                      A                      A
 Frequencies --    927.6294               949.7105              1004.9898
 Red. masses --      2.4773                 1.4844                 2.4104
 Frc consts  --      1.2560                 0.7888                 1.4344
 IR Inten    --      6.1508                 0.0164                29.3883

                     25                     26                     27
                      A                      A                      A
 Frequencies --   1015.4199              1032.3369              1073.4496
 Red. masses --      1.6827                 1.3071                 1.4286
 Frc consts  --      1.0222                 0.8208                 0.9699
 IR Inten    --     11.3912                 0.3397                 0.2118

                     28                     29                     30
                      A                      A                      A
 Frequencies --   1074.3946              1211.1293              1221.5499
 Red. masses --      3.8221                 1.8849                 3.5802
 Frc consts  --      2.5994                 1.6290                 3.1476
 IR Inten    --    151.2030                31.9290                16.6675

                     31                     32                     33
                      A                      A                      A
 Frequencies --   1222.7744              1267.2209              1328.8011
 Red. masses --      2.7113                 3.2829                 4.7157
 Frc consts  --      2.3885                 3.1061                 4.9059
 IR Inten    --     23.3951                 3.1355                85.8796

                     34                     35                     36
                      A                      A                      A
 Frequencies --   1411.8499              1425.2671              1441.3238
 Red. masses --      2.0987                 1.2533                 1.2694
 Frc consts  --      2.4647                 1.5000                 1.5537
 IR Inten    --     45.0606                 8.1058                 7.5555

                     37                     38                     39
                      A                      A                      A
 Frequencies --   1456.7228              1504.5578              1513.8323
 Red. masses --      1.7146                 1.0478                 1.0482
 Frc consts  --      2.1437                 1.3975                 1.4152
 IR Inten    --     22.3325                 0.8861                 1.3633

                     40                     41                     42
                      A                      A                      A
 Frequencies --   1516.8021              1525.4337              1527.1386
 Red. masses --      1.0582                 1.0840                 1.0501
 Frc consts  --      1.4345                 1.4862                 1.4429
 IR Inten    --     11.2255                 2.3647                 6.4642

                     43                     44                     45
                      A                      A                      A
 Frequencies --   1534.4499              1679.6356              1745.7794
 Red. masses --      1.0624                 1.2275                 6.2576
 Frc consts  --      1.4739                 2.0404                11.2367
 IR Inten    --      9.8078                33.1884               306.0997

                     46                     47                     48
                      A                      A                      A
 Frequencies --   1859.7863              3029.4204              3054.3574
 Red. masses --     12.6400                 1.0402                 1.0379
 Frc consts  --     25.7587                 5.6244                 5.7048
 IR Inten    --    419.6782                38.8269                16.2672

                     49                     50                     51
                      A                      A                      A
 Frequencies --   3064.5778              3075.4326              3124.6331
 Red. masses --      1.0352                 1.1010                 1.0981
 Frc consts  --      5.7280                 6.1353                 6.3168
 IR Inten    --     19.4318                27.4593                12.2064

                     52                     53                     54
                      A                      A                      A
 Frequencies --   3136.2551              3136.9785              3148.4792
 Red. masses --      1.1021                 1.0969                 1.1043
 Frc consts  --      6.3872                 6.3596                 6.4497
 IR Inten    --     23.1233                 3.8889                10.7132

                     55                     56                     57
                      A                      A                      A
 Frequencies --   3150.7620              3564.4436              3666.8587
 Red. masses --      1.1039                 1.0465                 1.1004
 Frc consts  --      6.4570                 7.8340                 8.7172
 IR Inten    --     22.1295                23.0202                18.3850

 - Thermochemistry -
 -------------------
 Temperature   298.150 Kelvin.  Pressure   1.00000 Atm.
 Atom     1 has atomic number  6 and mass  12.00000

 Molecular mass:   141.07898 amu.
 Principal axes and moments of inertia in atomic units:
                           1         2         3
     Eigenvalues --   991.646721394.786091981.24391
           X            0.99436   0.10600   0.00165
           Y           -0.10599   0.99434  -0.00684
           Z           -0.00236   0.00663   0.99998
 This molecule is an asymmetric top.
 Rotational symmetry number  1.
 Warning -- assumption of classical behavior for rotation
           may cause significant error
 Rotational temperatures (Kelvin)      0.08734     0.06210     0.04372
 Rotational constants (GHZ):           1.81994     1.29392     0.91091
 Zero-point vibrational energy     462070.7 (Joules/Mol)
                                  110.43756 (Kcal/Mol)
 Warning -- explicit consideration of  16 degrees of freedom as
           vibrations may cause significant error
 Vibrational temperatures:    105.13   137.40   194.22   284.09   321.27
          (Kelvin)            338.18   363.12   408.37   438.48   459.00
                              523.51   576.44   656.85   738.38   803.42
                              890.94   909.89   975.39   991.34  1082.35
                             1216.02  1334.65  1366.42  1445.96  1460.96
                             1485.30  1544.45  1545.81  1742.54  1757.54
                             1759.30  1823.25  1911.85  2031.34  2050.64
                             2073.74  2095.90  2164.72  2178.07  2182.34
                             2194.76  2197.21  2207.73  2416.62  2511.79
                             2675.82  4358.66  4394.54  4409.24  4424.86
                             4495.65  4512.37  4513.41  4529.96  4533.24
                             5128.44  5275.79

 Zero-point correction=                           0.175993 (Hartree/Particle)
 Thermal correction to Energy=                    0.186742
 Thermal correction to Enthalpy=                  0.187686
 Thermal correction to Gibbs Free Energy=         0.140496
 Sum of electronic and zero-point Energies=           -478.445513
 Sum of electronic and thermal Energies=              -478.434764
 Sum of electronic and thermal Enthalpies=            -478.433820
 Sum of electronic and thermal Free Energies=         -478.481011

                     E (Thermal)             CV                S
                      KCal/Mol        Cal/Mol-Kelvin    Cal/Mol-Kelvin
 Total                  117.183             40.041             99.321
 Electronic               0.000              0.000              0.000
 Translational            0.889              2.981             40.744
 Rotational               0.889              2.981             29.395
 Vibrational            115.405             34.079             29.182
 Vibration     1          0.599              1.967              4.069
 Vibration     2          0.603              1.952              3.544
 Vibration     3          0.613              1.918              2.874
 Vibration     4          0.637              1.843              2.157
 Vibration     5          0.649              1.806              1.932
 Vibration     6          0.655              1.787              1.840
 Vibration     7          0.664              1.759              1.714
 Vibration     8          0.682              1.704              1.510
 Vibration     9          0.696              1.665              1.391
 Vibration    10          0.705              1.637              1.315
 Vibration    11          0.737              1.547              1.106
 Vibration    12          0.766              1.469              0.960
 Vibration    13          0.815              1.346              0.776
 Vibration    14          0.868              1.221              0.626
 Vibration    15          0.914              1.121              0.527
 Vibration    16          0.979              0.991              0.418

 Optimization completed.
    -- Stationary point found.
 Normal termination of Gaussian 16 at Tue Dec  8 13:23:26 2020.

 ----------------------------------------------------------------------
 # B3LYP/6-311++G(d,p) empiricaldispersion=gd3bj scf=xqc pop=npa geom=c
 heck
 ----------------------------------------------------------------------

 -------------------------------------
 CID_13433581_JID_746_Energie_neutraal
 -------------------------------------
 Structure from the checkpoint file:  "JID_746.chk"
 Charge =  0 Multiplicity = 1

 SCF Done:  E(RB3LYP) =  -478.766850311     A.U. after   14 cycles
 Normal termination of Gaussian 16 at Tue Dec  8 13:26:53 2020.

 ----------------------------------------------------------------------
 # B3LYP/6-311++G(d,p) empiricaldispersion=gd3bj scf=xqc pop=npa geom=c
 heck
 ----------------------------------------------------------------------

 -----------------------------------
 CID_13433581_JID_746_Energie_kation
 -----------------------------------
 Structure from the checkpoint file:  "JID_746.chk"
 Charge =  1 Multiplicity = 2

 SCF Done:  E(UB3LYP) =  -478.455026016     A.U. after   23 cycles
 Normal termination of Gaussian 16 at Tue Dec  8 13:34:09 2020.
 Gaussian 16:  ES64L-G16RevA.03 25-Dec-2016

 ----------------------------------------------------------------------
 # B3LYP/6-311++G(d,p) empiricaldispersion=gd3bj scf=xqc pop=npa geom=c
 heck
 ----------------------------------------------------------------------

 ----------------------------------
 CID_13433581_JID_746_Energie_anion
 ----------------------------------
 Structure from the checkpoint file:  "JID_746.chk"
 Charge = -1 Multiplicity = 2

                         Standard orientation:
 ---------------------------------------------------------------------
 Center     Atomic      Atomic             Coordinates (Angstroms)
 Number     Number       Type             X           Y           Z
 ---------------------------------------------------------------------
      1          6           0        2.392075    1.239943    0.005243
      2          6           0        1.119426    0.454828    0.000171
      3          6           0       -0.160450    0.886790   -0.004088
      4          6           0       -1.107760   -0.298618    0.004252
      5          8           0       -0.224288   -1.435193   -0.006419
      6          6           0        1.095525   -1.009528   -0.003106
      7          8           0        2.014837   -1.794532   -0.014132
      8          6           0       -1.971485   -0.362972   -1.258692
      9          6           0       -1.945986   -0.352104    1.283788
     10          7           0       -0.640669    2.169171    0.053169
     11          1           0        2.377006    2.053600   -0.732651
     12          1           0        3.226434    0.575842   -0.237037
     13          1           0        2.597554    1.688361    0.986148
     14          1           0       -2.556281   -1.287173   -1.259630
     15          1           0       -2.670376    0.480713   -1.306551
     16          1           0       -1.338636   -0.348290   -2.150511
     17          1           0       -1.290787   -0.357093    2.158961
     18          1           0       -2.610507    0.515712    1.351630
     19          1           0       -2.553227   -1.262004    1.292777
     20          1           0        0.017304    2.908567   -0.157590
     21          1           0       -1.566262    2.335327   -0.318732
 ---------------------------------------------------------------------

 SCF Done:  E(UB3LYP) =  -478.763564678     A.U. after   33 cycles
 SCF Done:  E(UB3LYP) =  -478.763564678     a.u. after    1 cycles

 The electronic state is 2-A.
 Alpha  occ. eigenvalues --  -19.04279 -18.98593 -14.22315 -10.17622 -10.14454
 Alpha  occ. eigenvalues --  -10.11930 -10.06687 -10.06551 -10.06328 -10.06194
 Alpha  occ. eigenvalues --   -0.98415  -0.90786  -0.82371  -0.69524  -0.68752
 Alpha  occ. eigenvalues --   -0.60006  -0.59702  -0.52748  -0.47878  -0.46664
 Alpha  occ. eigenvalues --   -0.39822  -0.38358  -0.36931  -0.36096  -0.32629
 Alpha  occ. eigenvalues --   -0.32451  -0.31386  -0.30406  -0.29567  -0.28778
 Alpha  occ. eigenvalues --   -0.28597  -0.26306  -0.25793  -0.23680  -0.23567
 Alpha  occ. eigenvalues --   -0.18369  -0.16275  -0.11679   0.04258
 Alpha virt. eigenvalues --    0.07597   0.08709   0.08765   0.09485   0.10659
 Alpha virt. eigenvalues --    0.11045   0.11349   0.12626   0.13047   0.13903
 Alpha virt. eigenvalues --    0.14451   0.14859   0.15898   0.17224   0.17557

  Beta  occ. eigenvalues --  -19.04275 -18.98591 -14.22187 -10.17620 -10.14454
  Beta  occ. eigenvalues --  -10.11920 -10.06655 -10.06504 -10.06295 -10.06194
  Beta  occ. eigenvalues --   -0.98409  -0.90781  -0.82227  -0.69452  -0.68721
  Beta  occ. eigenvalues --   -0.59935  -0.59634  -0.52682  -0.47764  -0.46612
  Beta  occ. eigenvalues --   -0.39727  -0.38267  -0.36888  -0.36052  -0.32612
  Beta  occ. eigenvalues --   -0.32407  -0.31349  -0.30373  -0.29510  -0.28737
  Beta  occ. eigenvalues --   -0.28558  -0.26273  -0.25766  -0.23629  -0.23497
  Beta  occ. eigenvalues --   -0.18354  -0.16270  -0.11619
  Beta virt. eigenvalues --    0.07372   0.08344   0.08792   0.09649   0.10030
  Beta virt. eigenvalues --    0.11122   0.11511   0.11937   0.13041   0.13667
  Beta virt. eigenvalues --    0.13955   0.14731   0.15750   0.15895   0.17507

 Mulliken charges and spin densities:
               1          2
     1  C    1.431941  -1.954622
     2  C    2.744750  -2.025341
     3  C   -2.891289   2.464156
     4  C    0.055074  -0.063183
     5  O   -0.064864   0.030726
     6  C   -0.413096   0.352076
     7  O   -0.379194  -0.008019
     8  C    0.611393  -1.134639
     9  C    0.210907  -0.694116
    10  N   -0.335033   0.064155
    11  H   -0.164270   0.309009
    12  H    0.148693   0.025361
    13  H   -0.116858   0.269796
    14  H   -0.006763   0.165451
    15  H   -0.443560   0.598191
    16  H   -0.000372   0.164772
    17  H    0.073703   0.082618
    18  H   -0.282191   0.444347
    19  H    0.033109   0.122064
    20  H   -0.644596   0.933440
    21  H   -0.567485   0.853756
 Sum of Mulliken charges =  -1.00000   1.00000

 Dipole moment (field-independent basis, Debye):
    X=              1.5327    Y=             -5.2301    Z=              1.4447  Tot=              5.6383
 Quadrupole moment (field-independent basis, Debye-Ang):
   XX=           -103.4146   YY=           -118.3390   ZZ=            -82.1257
   XY=             15.2027   XZ=             -2.3242   YZ=              4.1789

 Summary of Natural Population Analysis:

                                       Natural Population
                Natural  -----------------------------------------------
    Atom  No    Charge         Core      Valence    Rydberg      Total
 -----------------------------------------------------------------------
      C    1   -0.29682      0.99964     2.29061    0.00656     3.29682
      C    2   -0.12250      0.99936     2.11271    0.01043     3.12250
      C    3    0.12285      0.99937     1.86241    0.01537     2.87715
      C    4    0.12066      0.99950     1.86398    0.01587     2.87934
      O    5   -0.29146      0.99986     3.28338    0.00822     4.29146
      C    6    0.39051      0.99959     1.58371    0.02619     2.60949
      O    7   -0.31586      0.99987     3.31019    0.00581     4.31586
      C    8   -0.28837      0.99961     2.28144    0.00732     3.28837
      C    9   -0.28732      0.99961     2.28056    0.00715     3.28732
      N   10   -0.38556      0.99969     2.87519    0.01068     3.88556
      H   11    0.10386      0.00000     0.39497    0.00117     0.39614
      H   12    0.11110      0.00000     0.38783    0.00107     0.38890
      H   13    0.10222      0.00000     0.39681    0.00098     0.39778
      H   14    0.10275      0.00000     0.39626    0.00098     0.39725
      H   15    0.10726      0.00000     0.39075    0.00199     0.39274
      H   16    0.10561      0.00000     0.39319    0.00120     0.39439
      H   17    0.10451      0.00000     0.39451    0.00098     0.39549
      H   18    0.10823      0.00000     0.39061    0.00116     0.39177
      H   19    0.10166      0.00000     0.39743    0.00092     0.39834
      H   20    0.20100      0.00000     0.28493    0.01407     0.29900
      H   21    0.20569      0.00000     0.26470    0.02962     0.29431
 =======================================================================
   * Total *    0.00000      9.99608    27.83617    0.16775    38.00000

 Normal termination of Gaussian 16 at Tue Dec  8 13:47:03 2020.
