 Gaussian 16, Revision A.03,

 -----------------------------------------------------------
 # opt freq B3LYP/6-31G(d) empiricaldispersion=gd3bj scf=xqc
 -----------------------------------------------------------

 -------------------------------
 CID_123161482_JID_1684_neutraal
 -------------------------------
 Symbolic Z-matrix:
 Charge =  0 Multiplicity = 1

 SCF Done:  E(RB3LYP) =  -431.204219141     A.U. after   13 cycles
 SCF Done:  E(RB3LYP) =  -431.211653119     A.U. after   11 cycles
 SCF Done:  E(RB3LYP) =  -431.210371893     A.U. after   11 cycles
 SCF Done:  E(RB3LYP) =  -431.212316069     A.U. after   11 cycles
 SCF Done:  E(RB3LYP) =  -431.213066258     A.U. after   11 cycles
 SCF Done:  E(RB3LYP) =  -431.213861409     A.U. after   12 cycles
 SCF Done:  E(RB3LYP) =  -431.214391853     A.U. after   11 cycles
 SCF Done:  E(RB3LYP) =  -431.214175051     A.U. after   11 cycles
 SCF Done:  E(RB3LYP) =  -431.215037131     A.U. after   11 cycles
 SCF Done:  E(RB3LYP) =  -431.215107954     A.U. after   10 cycles
 SCF Done:  E(RB3LYP) =  -431.215361802     A.U. after    9 cycles
 SCF Done:  E(RB3LYP) =  -431.215354014     A.U. after    9 cycles
 SCF Done:  E(RB3LYP) =  -431.215362365     A.U. after    9 cycles
 SCF Done:  E(RB3LYP) =  -431.215362021     A.U. after    8 cycles
 SCF Done:  E(RB3LYP) =  -431.215362702     A.U. after    7 cycles
 Optimization completed.
    -- Stationary point found.
 Normal termination of Gaussian 16 at Tue Dec  8 20:22:52 2020.

 --------------------------------------------------------------------
 #N Geom=AllCheck Guess=TCheck SCRF=Check GenChk RB3LYP/6-31G(d) Freq
 --------------------------------------------------------------------

 Structure from the checkpoint file:  "JID_1684.chk"
 -------------------------------
 CID_123161482_JID_1684_neutraal
 -------------------------------
 Charge =  0 Multiplicity = 1

 SCF Done:  E(RB3LYP) =  -431.215362702     A.U. after    1 cycles

  Exact polarizability: 124.154   7.075 118.704  -1.701  -4.308 101.755
 Approx polarizability: 166.769  15.497 172.367  -2.477 -10.474 140.124

                      1                      2                      3
                      A                      A                      A
 Frequencies --     36.7844                55.3631                93.0657
 Red. masses --      2.9093                 2.6915                 2.2723
 Frc consts  --      0.0023                 0.0049                 0.0116
 IR Inten    --      0.0033                 0.0249                 0.1341

                      4                      5                      6
                      A                      A                      A
 Frequencies --    119.8785               157.0442               167.1984
 Red. masses --      2.7769                 2.5375                 1.8566
 Frc consts  --      0.0235                 0.0369                 0.0306
 IR Inten    --      0.0330                 0.0749                 0.1043

                      7                      8                      9
                      A                      A                      A
 Frequencies --    185.7411               210.3840               228.3978
 Red. masses --      1.5419                 1.8384                 1.4225
 Frc consts  --      0.0313                 0.0479                 0.0437
 IR Inten    --      0.1242                 0.1803                 0.2489

                     10                     11                     12
                      A                      A                      A
 Frequencies --    241.1521               245.0141               260.8931
 Red. masses --      1.5851                 1.9918                 1.3233
 Frc consts  --      0.0543                 0.0705                 0.0531
 IR Inten    --      0.1237                 1.9076                 0.2225

                     13                     14                     15
                      A                      A                      A
 Frequencies --    288.3999               324.6570               386.9437
 Red. masses --      2.1390                 2.0385                 2.5744
 Frc consts  --      0.1048                 0.1266                 0.2271
 IR Inten    --      0.5860                 0.4264                 0.4197

                     16                     17                     18
                      A                      A                      A
 Frequencies --    427.7729               477.4127               553.4367
 Red. masses --      2.5663                 3.1230                 2.9033
 Frc consts  --      0.2767                 0.4194                 0.5239
 IR Inten    --      0.3720                 2.2211                 1.8946

                     19                     20                     21
                      A                      A                      A
 Frequencies --    584.4464               625.4260               774.1113
 Red. masses --      2.7651                 2.5079                 1.0344
 Frc consts  --      0.5565                 0.5780                 0.3652
 IR Inten    --      1.5382                 3.3607                 0.9971

                     22                     23                     24
                      A                      A                      A
 Frequencies --    794.4422               806.4931               841.0522
 Red. masses --      1.2591                 1.3150                 1.9960
 Frc consts  --      0.4682                 0.5039                 0.8319
 IR Inten    --      6.9746                 2.4959                 3.1719

                     25                     26                     27
                      A                      A                      A
 Frequencies --    867.9431               899.0964               911.9020
 Red. masses --      1.8334                 1.5697                 1.6390
 Frc consts  --      0.8137                 0.7476                 0.8030
 IR Inten    --      0.8107                 0.7509                 2.9885

                     28                     29                     30
                      A                      A                      A
 Frequencies --    917.2697               976.0424               999.0778
 Red. masses --      1.7428                 1.5111                 1.7634
 Frc consts  --      0.8640                 0.8481                 1.0370
 IR Inten    --      1.1618                 3.6362                 9.6464

                     31                     32                     33
                      A                      A                      A
 Frequencies --   1025.5015              1042.4088              1048.0253
 Red. masses --      1.7834                 2.4888                 1.6243
 Frc consts  --      1.1051                 1.5934                 1.0511
 IR Inten    --      3.4531                 2.7432                 1.5613

                     34                     35                     36
                      A                      A                      A
 Frequencies --   1054.2354              1078.4243              1089.7134
 Red. masses --      1.7456                 1.6489                 1.6930
 Frc consts  --      1.1431                 1.1298                 1.1845
 IR Inten    --      0.4089                 1.2268                 0.1046

                     37                     38                     39
                      A                      A                      A
 Frequencies --   1098.6059              1104.9933              1111.7779
 Red. masses --      1.8448                 1.4853                 2.2427
 Frc consts  --      1.3119                 1.0685                 1.6332
 IR Inten    --      4.0304                 1.3248                 1.0970

                     40                     41                     42
                      A                      A                      A
 Frequencies --   1133.7368              1173.1294              1176.4810
 Red. masses --      1.9878                 2.1927                 1.2620
 Frc consts  --      1.5054                 1.7779                 1.0291
 IR Inten    --      3.5587                 0.9997                 0.0092

                     43                     44                     45
                      A                      A                      A
 Frequencies --   1213.6387              1240.6129              1277.0171
 Red. masses --      2.3228                 2.7250                 1.2570
 Frc consts  --      2.0158                 2.4711                 1.2077
 IR Inten    --      2.2082                 6.1275                 0.5991

                     46                     47                     48
                      A                      A                      A
 Frequencies --   1306.0430              1312.8826              1342.3962
 Red. masses --      1.2654                 1.2306                 1.2403
 Frc consts  --      1.2718                 1.2497                 1.3169
 IR Inten    --      2.1827                 2.5210                 3.2178

                     49                     50                     51
                      A                      A                      A
 Frequencies --   1389.0995              1395.7082              1399.1109
 Red. masses --      1.3757                 1.4432                 1.4089
 Frc consts  --      1.5640                 1.6564                 1.6250
 IR Inten    --      4.3599                 0.8698                 4.1149

                     52                     53                     54
                      A                      A                      A
 Frequencies --   1410.7977              1434.2416              1437.9897
 Red. masses --      1.5051                 1.2262                 1.2665
 Frc consts  --      1.7650                 1.4862                 1.5430
 IR Inten    --      2.1898                 1.2281                 3.4912

                     55                     56                     57
                      A                      A                      A
 Frequencies --   1442.2110              1482.2975              1501.1461
 Red. masses --      1.2537                 1.0872                 1.1263
 Frc consts  --      1.5364                 1.4075                 1.4953
 IR Inten    --      6.5536                 0.0944                 0.0316

                     58                     59                     60
                      A                      A                      A
 Frequencies --   1507.9420              1519.8399              1522.7406
 Red. masses --      1.1540                 1.0578                 1.0676
 Frc consts  --      1.5461                 1.4396                 1.4586
 IR Inten    --      0.3579                 0.4170                 1.8618

                     61                     62                     63
                      A                      A                      A
 Frequencies --   1526.3517              1528.4835              1530.4353
 Red. masses --      1.0436                 1.0450                 1.0486
 Frc consts  --      1.4325                 1.4384                 1.4471
 IR Inten    --      2.8988                 9.2415                 2.1329

                     64                     65                     66
                      A                      A                      A
 Frequencies --   1533.9647              1536.5846              1540.9243
 Red. masses --      1.0557                 1.0705                 1.0627
 Frc consts  --      1.4636                 1.4891                 1.4867
 IR Inten    --      2.1581                 2.1326                 8.1569

                     67                     68                     69
                      A                      A                      A
 Frequencies --   1860.6431              3014.2327              3029.6079
 Red. masses --     10.4962                 1.0631                 1.0635
 Frc consts  --     21.4096                 5.6908                 5.7511
 IR Inten    --      4.2679                22.0377                17.4670

                     70                     71                     72
                      A                      A                      A
 Frequencies --   3038.5862              3043.0496              3046.0227
 Red. masses --      1.0829                 1.0764                 1.0389
 Frc consts  --      5.8908                 5.8730                 5.6791
 IR Inten    --     10.7902                11.6661                53.0983

                     73                     74                     75
                      A                      A                      A
 Frequencies --   3046.5235              3048.1969              3049.4128
 Red. masses --      1.0482                 1.0414                 1.0683
 Frc consts  --      5.7319                 5.7010                 5.8528
 IR Inten    --     36.0132                30.7253                41.0213

                     76                     77                     78
                      A                      A                      A
 Frequencies --   3065.0433              3089.0764              3109.2188
 Red. masses --      1.0987                 1.0958                 1.0962
 Frc consts  --      6.0812                 6.1610                 6.2437
 IR Inten    --     29.2895                12.7150                 7.7040

                     79                     80                     81
                      A                      A                      A
 Frequencies --   3110.1178              3111.6918              3111.8800
 Red. masses --      1.0961                 1.0610                 1.0905
 Frc consts  --      6.2470                 6.0527                 6.2217
 IR Inten    --     36.5197                62.1750                14.1991

                     82                     83                     84
                      A                      A                      A
 Frequencies --   3112.7300              3116.3632              3127.7408
 Red. masses --      1.0653                 1.1022                 1.1010
 Frc consts  --      6.0814                 6.3067                 6.3457
 IR Inten    --     52.4674                45.7213                69.9647

                     85                     86                     87
                      A                      A                      A
 Frequencies --   3130.2969              3176.5457              3189.7010
 Red. masses --      1.1003                 1.1173                 1.1149
 Frc consts  --      6.3521                 6.6427                 6.6835
 IR Inten    --     20.6413                 0.1191                26.1943

 - Thermochemistry -
 -------------------
 Temperature   298.150 Kelvin.  Pressure   1.00000 Atm.
 Atom     1 has atomic number  6 and mass  12.00000

 Molecular mass:   152.15650 amu.
 Principal axes and moments of inertia in atomic units:
                           1         2         3
     Eigenvalues --  1617.953362169.289502514.16804
           X            0.99978  -0.01884  -0.00871
           Y            0.01885   0.99982   0.00028
           Z            0.00870  -0.00044   0.99996
 This molecule is an asymmetric top.
 Rotational symmetry number  1.
 Warning -- assumption of classical behavior for rotation
           may cause significant error
 Rotational temperatures (Kelvin)      0.05353     0.03993     0.03445
 Rotational constants (GHZ):           1.11545     0.83195     0.71783
 Zero-point vibrational energy     750973.8 (Joules/Mol)
                                  179.48705 (Kcal/Mol)
 Warning -- explicit consideration of  19 degrees of freedom as
           vibrations may cause significant error
 Vibrational temperatures:     52.92    79.66   133.90   172.48   225.95
          (Kelvin)            240.56   267.24   302.70   328.61   346.96
                              352.52   375.37   414.94   467.11   556.73
                              615.47   686.89   796.27   840.89   899.85
                             1113.77  1143.03  1160.36  1210.09  1248.78
                             1293.60  1312.02  1319.75  1404.31  1437.45
                             1475.47  1499.79  1507.87  1516.81  1551.61
                             1567.85  1580.65  1589.84  1599.60  1631.19
                             1687.87  1692.69  1746.16  1784.97  1837.34
                             1879.10  1888.95  1931.41  1998.60  2008.11
                             2013.01  2029.82  2063.55  2068.95  2075.02
                             2132.70  2159.81  2169.59  2186.71  2190.88
                             2196.08  2199.15  2201.96  2207.03  2210.80
                             2217.05  2677.05  4336.81  4358.93  4371.85
                             4378.27  4382.55  4383.27  4385.68  4387.42
                             4409.91  4444.49  4473.47  4474.77  4477.03
                             4477.30  4478.52  4483.75  4500.12  4503.80
                             4570.34  4589.27

 Zero-point correction=                           0.286031 (Hartree/Particle)
 Thermal correction to Energy=                    0.299613
 Thermal correction to Enthalpy=                  0.300557
 Thermal correction to Gibbs Free Energy=         0.246251
 Sum of electronic and zero-point Energies=           -430.929332
 Sum of electronic and thermal Energies=              -430.915750
 Sum of electronic and thermal Enthalpies=            -430.914806
 Sum of electronic and thermal Free Energies=         -430.969112

                     E (Thermal)             CV                S
                      KCal/Mol        Cal/Mol-Kelvin    Cal/Mol-Kelvin
 Total                  188.010             50.321            114.297
 Electronic               0.000              0.000              0.000
 Translational            0.889              2.981             40.969
 Rotational               0.889              2.981             30.557
 Vibrational            186.232             44.359             42.771
 Vibration     1          0.594              1.982              5.425
 Vibration     2          0.596              1.975              4.616
 Vibration     3          0.602              1.954              3.595
 Vibration     4          0.609              1.933              3.102
 Vibration     5          0.621              1.895              2.585
 Vibration     6          0.624              1.883              2.467
 Vibration     7          0.632              1.859              2.270
 Vibration     8          0.643              1.825              2.040
 Vibration     9          0.651              1.798              1.892
 Vibration    10          0.658              1.777              1.794
 Vibration    11          0.660              1.771              1.766
 Vibration    12          0.669              1.744              1.656
 Vibration    13          0.685              1.695              1.483
 Vibration    14          0.709              1.626              1.287
 Vibration    15          0.755              1.498              1.012
 Vibration    16          0.789              1.410              0.866
 Vibration    17          0.834              1.300              0.717
 Vibration    18          0.909              1.132              0.537
 Vibration    19          0.941              1.065              0.477

 Optimization completed.
    -- Stationary point found.
 Normal termination of Gaussian 16 at Tue Dec  8 20:31:53 2020.

 ----------------------------------------------------------------------
 # B3LYP/6-311++G(d,p) empiricaldispersion=gd3bj scf=xqc pop=npa geom=c
 heck
 ----------------------------------------------------------------------

 ---------------------------------------
 CID_123161482_JID_1684_Energie_neutraal
 ---------------------------------------
 Structure from the checkpoint file:  "JID_1684.chk"
 Charge =  0 Multiplicity = 1

 SCF Done:  E(RB3LYP) =  -431.332617838     A.U. after   13 cycles
 Normal termination of Gaussian 16 at Tue Dec  8 20:35:31 2020.

 ----------------------------------------------------------------------
 # B3LYP/6-311++G(d,p) empiricaldispersion=gd3bj scf=xqc pop=npa geom=c
 heck
 ----------------------------------------------------------------------

 -------------------------------------
 CID_123161482_JID_1684_Energie_kation
 -------------------------------------
 Structure from the checkpoint file:  "JID_1684.chk"
 Charge =  1 Multiplicity = 2

 SCF Done:  E(UB3LYP) =  -431.026608597     A.U. after   18 cycles
 Normal termination of Gaussian 16 at Tue Dec  8 20:43:34 2020.
 Gaussian 16:  ES64L-G16RevA.03 25-Dec-2016

 ----------------------------------------------------------------------
 # B3LYP/6-311++G(d,p) empiricaldispersion=gd3bj scf=xqc pop=npa geom=c
 heck
 ----------------------------------------------------------------------

 ------------------------------------
 CID_123161482_JID_1684_Energie_anion
 ------------------------------------
 Structure from the checkpoint file:  "JID_1684.chk"
 Charge = -1 Multiplicity = 2

                         Standard orientation:
 ---------------------------------------------------------------------
 Center     Atomic      Atomic             Coordinates (Angstroms)
 Number     Number       Type             X           Y           Z
 ---------------------------------------------------------------------
      1          6           0       -2.090319    1.740496    0.879424
      2          6           0       -1.900489    1.524801   -0.623877
      3          6           0       -0.455081    1.186169   -1.011572
      4          6           0        0.083532   -0.138019   -0.501663
      5          6           0       -0.697852   -1.165240   -0.191355
      6          6           0       -2.034867   -1.756178   -0.057949
      7          6           0       -0.764071   -2.555061    0.281587
      8          6           0        1.593113   -0.280790   -0.376630
      9          6           0        2.308564    0.042487   -1.699150
     10          6           0        2.168611    0.570658    0.775980
     11          6           0        1.587027    0.222793    2.147182
     12          1           0       -1.837395    0.837157    1.442916
     13          1           0       -3.126481    2.007951    1.115571
     14          1           0       -1.444844    2.549720    1.243163
     15          1           0       -2.571289    0.731965   -0.972584
     16          1           0       -2.194695    2.436574   -1.159817
     17          1           0       -0.364111    1.200942   -2.107960
     18          1           0        0.199305    1.996090   -0.659672
     19          1           0       -2.676129   -1.444548    0.766180
     20          1           0       -2.584747   -2.035282   -0.956342
     21          1           0       -0.476142   -3.363031   -0.390467
     22          1           0       -0.567356   -2.767036    1.332045
     23          1           0        1.793497   -1.332247   -0.132577
     24          1           0        2.180933    1.094818   -1.978072
     25          1           0        3.384588   -0.147118   -1.611091
     26          1           0        1.920251   -0.572412   -2.518651
     27          1           0        3.257895    0.429660    0.791140
     28          1           0        2.006326    1.636446    0.564721
     29          1           0        1.741122   -0.838039    2.379652
     30          1           0        2.060604    0.812849    2.939772
     31          1           0        0.509654    0.412845    2.180207
 ---------------------------------------------------------------------

 SCF Done:  E(UB3LYP) =  -431.313685548     A.U. after   33 cycles
 SCF Done:  E(UB3LYP) =  -431.313685548     a.u. after    1 cycles

 The electronic state is 2-A.
 Alpha  occ. eigenvalues --  -10.07473 -10.07389 -10.07112 -10.06937 -10.06742
 Alpha  occ. eigenvalues --  -10.06211 -10.06035 -10.05838 -10.05408 -10.05221
 Alpha  occ. eigenvalues --  -10.04985  -0.76240  -0.71563  -0.67962  -0.63368
 Alpha  occ. eigenvalues --   -0.60718  -0.56173  -0.52491  -0.50638  -0.48626
 Alpha  occ. eigenvalues --   -0.46689  -0.41244  -0.37831  -0.37587  -0.35264
 Alpha  occ. eigenvalues --   -0.34537  -0.32559  -0.32128  -0.31612  -0.29724
 Alpha  occ. eigenvalues --   -0.29138  -0.27108  -0.26855  -0.25747  -0.24488
 Alpha  occ. eigenvalues --   -0.23948  -0.23648  -0.23259  -0.22521  -0.21516
 Alpha  occ. eigenvalues --   -0.19825  -0.18036  -0.13384   0.04790
 Alpha virt. eigenvalues --    0.06849   0.07265   0.07323   0.08964   0.09085
 Alpha virt. eigenvalues --    0.09340   0.09538   0.10074   0.11201   0.11750
 Alpha virt. eigenvalues --    0.12009   0.12360   0.12514   0.13317   0.13330

  Beta  occ. eigenvalues --  -10.07447 -10.07371 -10.07111 -10.06931 -10.06741
  Beta  occ. eigenvalues --  -10.06192 -10.06015 -10.05821 -10.05382 -10.05199
  Beta  occ. eigenvalues --  -10.04957  -0.76226  -0.71540  -0.67930  -0.63336
  Beta  occ. eigenvalues --   -0.60680  -0.56127  -0.52429  -0.50573  -0.48560
  Beta  occ. eigenvalues --   -0.46634  -0.41193  -0.37803  -0.37562  -0.35238
  Beta  occ. eigenvalues --   -0.34494  -0.32525  -0.32102  -0.31573  -0.29697
  Beta  occ. eigenvalues --   -0.29103  -0.27072  -0.26826  -0.25709  -0.24453
  Beta  occ. eigenvalues --   -0.23915  -0.23606  -0.23220  -0.22490  -0.21484
  Beta  occ. eigenvalues --   -0.19795  -0.18014  -0.13367
  Beta virt. eigenvalues --    0.06895   0.07766   0.07848   0.07896   0.09404
  Beta virt. eigenvalues --    0.09650   0.09714   0.10088   0.10433   0.11482
  Beta virt. eigenvalues --    0.12129   0.12531   0.12858   0.12893   0.13522

 Mulliken charges and spin densities:
               1          2
     1  C    0.901974  -1.495617
     2  C   -0.943548   0.710252
     3  C    1.253380  -1.850710
     4  C    1.296340  -0.234088
     5  C   -1.005552   0.872922
     6  C    0.024475  -0.398834
     7  C    1.662857  -1.914833
     8  C   -2.733766   2.430800
     9  C    0.701290  -1.315938
    10  C   -0.132193  -0.133249
    11  C    0.459188  -1.114932
    12  H   -0.017098   0.167949
    13  H   -0.410806   0.553205
    14  H   -0.013822   0.141806
    15  H   -0.062635   0.202091
    16  H   -0.582367   0.747946
    17  H   -0.073633   0.266775
    18  H    0.164200  -0.027091
    19  H   -0.152329   0.300643
    20  H   -0.114333   0.265333
    21  H   -0.054826   0.202015
    22  H    0.026975   0.113207
    23  H   -0.092521   0.288898
    24  H   -0.162817   0.320605
    25  H   -0.328629   0.472919
    26  H   -0.104065   0.241865
    27  H   -0.283847   0.428027
    28  H   -0.152256   0.285773
    29  H   -0.132037   0.260354
    30  H   -0.142017   0.279135
    31  H    0.204417  -0.067226
 Sum of Mulliken charges =  -1.00000   1.00000

 Dipole moment (field-independent basis, Debye):
    X=              0.0434    Y=             -1.9181    Z=              0.3899  Tot=              1.9578
 Quadrupole moment (field-independent basis, Debye-Ang):
   XX=           -134.4256   YY=           -117.4689   ZZ=           -112.7075
   XY=              3.8207   XZ=              1.4825   YZ=              0.7273

 Summary of Natural Population Analysis:

                                       Natural Population
                Natural  -----------------------------------------------
    Atom  No    Charge         Core      Valence    Rydberg      Total
 -----------------------------------------------------------------------
      C    1   -0.28548      0.99966     2.28015    0.00566     3.28548
      C    2   -0.18732      0.99964     2.17999    0.00769     3.18732
      C    3   -0.19995      0.99959     2.19110    0.00926     3.19995
      C    4    0.00169      0.99940     1.98628    0.01263     2.99831
      C    5   -0.02641      0.99944     2.01388    0.01310     3.02641
      C    6   -0.20244      0.99961     2.19549    0.00734     3.20244
      C    7   -0.20367      0.99961     2.19693    0.00714     3.20367
      C    8   -0.11632      0.99956     2.10534    0.01141     3.11632
      C    9   -0.28168      0.99965     2.27606    0.00597     3.28168
      C   10   -0.18450      0.99962     2.17681    0.00807     3.18450
      C   11   -0.28556      0.99966     2.28050    0.00540     3.28556
      H   12    0.09769      0.00000     0.40087    0.00144     0.40231
      H   13    0.09796      0.00000     0.40090    0.00114     0.40204
      H   14    0.09486      0.00000     0.40399    0.00115     0.40514
      H   15    0.09608      0.00000     0.40233    0.00159     0.40392
      H   16    0.09517      0.00000     0.40351    0.00132     0.40483
      H   17    0.10613      0.00000     0.39250    0.00136     0.39387
      H   18    0.09798      0.00000     0.40027    0.00174     0.40202
      H   19    0.10405      0.00000     0.39467    0.00128     0.39595
      H   20    0.10247      0.00000     0.39625    0.00128     0.39753
      H   21    0.10105      0.00000     0.39782    0.00113     0.39895
      H   22    0.10191      0.00000     0.39692    0.00117     0.39809
      H   23    0.09817      0.00000     0.39997    0.00186     0.40183
      H   24    0.09754      0.00000     0.40129    0.00116     0.40246
      H   25    0.09929      0.00000     0.39960    0.00111     0.40071
      H   26    0.09999      0.00000     0.39897    0.00105     0.40001
      H   27    0.09603      0.00000     0.40266    0.00131     0.40397
      H   28    0.09308      0.00000     0.40545    0.00148     0.40692
      H   29    0.09493      0.00000     0.40388    0.00119     0.40507
      H   30    0.09681      0.00000     0.40240    0.00079     0.40319
      H   31    0.10044      0.00000     0.39817    0.00139     0.39956
 =======================================================================
   * Total *    0.00000     10.99544    31.88496    0.11960    43.00000

 Normal termination of Gaussian 16 at Tue Dec  8 20:56:45 2020.
