 Gaussian 16, Revision A.03,

 -----------------------------------------------------------
 # opt freq B3LYP/6-31G(d) empiricaldispersion=gd3bj scf=xqc
 -----------------------------------------------------------

 ------------------------------
 CID_82718372_JID_3263_neutraal
 ------------------------------
 Symbolic Z-matrix:
 Charge =  0 Multiplicity = 1

 SCF Done:  E(RB3LYP) =  -633.640406201     A.U. after   14 cycles
 SCF Done:  E(RB3LYP) =  -633.644320113     A.U. after   12 cycles
 SCF Done:  E(RB3LYP) =  -633.641852559     A.U. after   12 cycles
 SCF Done:  E(RB3LYP) =  -633.642811779     A.U. after   12 cycles
 SCF Done:  E(RB3LYP) =  -633.645523145     A.U. after    8 cycles
 SCF Done:  E(RB3LYP) =  -633.645676335     A.U. after   11 cycles
 SCF Done:  E(RB3LYP) =  -633.645729978     A.U. after   11 cycles
 SCF Done:  E(RB3LYP) =  -633.645945795     A.U. after   10 cycles
 SCF Done:  E(RB3LYP) =  -633.645955826     A.U. after   10 cycles
 SCF Done:  E(RB3LYP) =  -633.645969866     A.U. after   11 cycles
 SCF Done:  E(RB3LYP) =  -633.646000989     A.U. after   10 cycles
 SCF Done:  E(RB3LYP) =  -633.646004966     A.U. after    9 cycles
 SCF Done:  E(RB3LYP) =  -633.646008788     A.U. after   10 cycles
 SCF Done:  E(RB3LYP) =  -633.646008402     A.U. after    8 cycles
 SCF Done:  E(RB3LYP) =  -633.646008683     A.U. after    7 cycles
 Optimization completed.
    -- Stationary point found.
 Normal termination of Gaussian 16 at Wed Dec  9 22:37:39 2020.

 --------------------------------------------------------------------
 #N Geom=AllCheck Guess=TCheck SCRF=Check GenChk RB3LYP/6-31G(d) Freq
 --------------------------------------------------------------------

 Structure from the checkpoint file:  "JID_3263.chk"
 ------------------------------
 CID_82718372_JID_3263_neutraal
 ------------------------------
 Charge =  0 Multiplicity = 1

 SCF Done:  E(RB3LYP) =  -633.646008683     A.U. after    1 cycles

  Exact polarizability: 115.205   2.033 108.434  -7.056   1.193  94.759
 Approx polarizability: 157.743  -1.933 158.293  -7.791   3.926 137.622

                      1                      2                      3
                      A                      A                      A
 Frequencies --     18.8125                83.6396               112.3116
 Red. masses --      7.2652                 3.5568                 3.9911
 Frc consts  --      0.0015                 0.0147                 0.0297
 IR Inten    --      1.2586                 1.2185                 2.8587

                      4                      5                      6
                      A                      A                      A
 Frequencies --    128.2540               149.2540               184.7342
 Red. masses --      4.0324                 4.0265                 2.7169
 Frc consts  --      0.0391                 0.0528                 0.0546
 IR Inten    --      0.2648                 0.2376                 1.5237

                      7                      8                      9
                      A                      A                      A
 Frequencies --    210.0553               224.1369               256.5583
 Red. masses --      2.0650                 3.1947                 1.2347
 Frc consts  --      0.0537                 0.0946                 0.0479
 IR Inten    --      0.6652                 1.1905                 0.4420

                     10                     11                     12
                      A                      A                      A
 Frequencies --    281.5161               306.0633               325.0139
 Red. masses --      2.5322                 1.4566                 2.4242
 Frc consts  --      0.1182                 0.0804                 0.1509
 IR Inten    --      0.7664                 0.6321                 2.5546

                     13                     14                     15
                      A                      A                      A
 Frequencies --    349.4893               378.6390               415.3384
 Red. masses --      1.1099                 3.5871                 2.5942
 Frc consts  --      0.0799                 0.3030                 0.2637
 IR Inten    --      0.6404                 4.3016                 1.4594

                     16                     17                     18
                      A                      A                      A
 Frequencies --    424.1026               469.1035               473.6716
 Red. masses --      2.2466                 2.1580                 2.2119
 Frc consts  --      0.2381                 0.2798                 0.2924
 IR Inten    --      0.4350                 1.2861                 1.2684

                     19                     20                     21
                      A                      A                      A
 Frequencies --    512.6287               554.7321               619.8150
 Red. masses --      3.1256                 3.0605                 3.2469
 Frc consts  --      0.4839                 0.5549                 0.7349
 IR Inten    --      9.0418                 0.8664                39.3001

                     22                     23                     24
                      A                      A                      A
 Frequencies --    659.4321               668.9180               699.9474
 Red. masses --      1.6554                 2.0358                 3.3413
 Frc consts  --      0.4241                 0.5367                 0.9645
 IR Inten    --     49.5736                71.7724                 6.7691

                     25                     26                     27
                      A                      A                      A
 Frequencies --    770.3362               828.9520               883.7888
 Red. masses --      3.4258                 2.7181                 2.5265
 Frc consts  --      1.1978                 1.1005                 1.1627
 IR Inten    --     14.1090                 1.7328                16.2533

                     28                     29                     30
                      A                      A                      A
 Frequencies --    891.8184               897.7538               953.1684
 Red. masses --      2.5694                 2.6410                 2.1298
 Frc consts  --      1.2040                 1.2541                 1.1401
 IR Inten    --      1.6863                 6.9193                17.5041

                     31                     32                     33
                      A                      A                      A
 Frequencies --    974.2978              1018.9839              1037.7849
 Red. masses --      2.2261                 2.1011                 3.4124
 Frc consts  --      1.2450                 1.2854                 2.1654
 IR Inten    --     23.2817                32.7484                24.9510

                     34                     35                     36
                      A                      A                      A
 Frequencies --   1071.2170              1078.1575              1086.5394
 Red. masses --      1.7297                 2.0264                 2.0691
 Frc consts  --      1.1694                 1.3878                 1.4392
 IR Inten    --      3.6558                22.4125                35.7056

                     37                     38                     39
                      A                      A                      A
 Frequencies --   1095.0927              1134.9467              1136.6648
 Red. masses --      2.1990                 1.5809                 2.5145
 Frc consts  --      1.5537                 1.1998                 1.9141
 IR Inten    --     10.5434                 9.7701                97.6942

                     40                     41                     42
                      A                      A                      A
 Frequencies --   1150.3025              1176.9380              1188.7905
 Red. masses --      1.8057                 2.4343                 1.6531
 Frc consts  --      1.4077                 1.9867                 1.3765
 IR Inten    --     63.1376                 3.4493                79.0925

                     43                     44                     45
                      A                      A                      A
 Frequencies --   1202.9993              1230.4679              1253.1064
 Red. masses --      1.6949                 1.3790                 1.3979
 Frc consts  --      1.4452                 1.2301                 1.2933
 IR Inten    --     56.4295                28.2475                35.5393

                     46                     47                     48
                      A                      A                      A
 Frequencies --   1265.5151              1294.3740              1325.0376
 Red. masses --      2.5734                 1.7215                 1.8520
 Frc consts  --      2.4282                 1.6993                 1.9158
 IR Inten    --     24.3484                 8.5154                15.0064

                     49                     50                     51
                      A                      A                      A
 Frequencies --   1347.7527              1353.2829              1377.8311
 Red. masses --      1.5025                 1.3540                 1.6891
 Frc consts  --      1.6080                 1.4610                 1.8893
 IR Inten    --      4.6244                 7.7155                35.4474

                     52                     53                     54
                      A                      A                      A
 Frequencies --   1391.0121              1414.0494              1414.4948
 Red. masses --      1.3878                 1.3349                 1.3354
 Frc consts  --      1.5821                 1.5726                 1.5742
 IR Inten    --     13.9860                 9.6748                 5.4889

                     55                     56                     57
                      A                      A                      A
 Frequencies --   1437.6558              1474.3687              1498.8068
 Red. masses --      1.4201                 1.1496                 1.1108
 Frc consts  --      1.7293                 1.4724                 1.4703
 IR Inten    --     12.5600                 1.5715                 4.7122

                     58                     59                     60
                      A                      A                      A
 Frequencies --   1505.2136              1517.6162              1518.9006
 Red. masses --      1.1420                 1.0618                 1.0666
 Frc consts  --      1.5244                 1.4408                 1.4499
 IR Inten    --      2.6847                 3.0023                 7.5374

                     61                     62                     63
                      A                      A                      A
 Frequencies --   1529.5091              1531.5167              1544.0528
 Red. masses --      1.0531                 1.0607                 1.0584
 Frc consts  --      1.4515                 1.4658                 1.4867
 IR Inten    --      5.7022                15.4757                 8.6803

                     64                     65                     66
                      A                      A                      A
 Frequencies --   1548.8930              1551.9694              1559.2677
 Red. masses --      1.0537                 1.0621                 1.0951
 Frc consts  --      1.4894                 1.5072                 1.5687
 IR Inten    --      3.0594                 9.5476                 0.1881

                     67                     68                     69
                      A                      A                      A
 Frequencies --   1843.1311              2942.6580              3007.3862
 Red. masses --      9.2467                 1.0627                 1.0561
 Frc consts  --     18.5076                 5.4218                 5.6277
 IR Inten    --    259.9086                74.2730                50.4463

                     70                     71                     72
                      A                      A                      A
 Frequencies --   3011.5082              3030.2473              3068.1686
 Red. masses --      1.0823                 1.0634                 1.0896
 Frc consts  --      5.7830                 5.7533                 6.0434
 IR Inten    --     50.1173                57.3788                30.4103

                     73                     74                     75
                      A                      A                      A
 Frequencies --   3071.2498              3079.6327              3085.8327
 Red. masses --      1.0356                 1.0690                 1.0895
 Frc consts  --      5.7552                 5.9736                 6.1125
 IR Inten    --     16.1995                 8.9781                29.1999

                     76                     77                     78
                      A                      A                      A
 Frequencies --   3089.8642              3096.7266              3134.7580
 Red. masses --      1.0735                 1.0714                 1.1018
 Frc consts  --      6.0385                 6.0537                 6.3791
 IR Inten    --     65.7937                32.8911                 7.3049

                     79                     80                     81
                      A                      A                      A
 Frequencies --   3135.0008              3137.7105              3154.5940
 Red. masses --      1.1019                 1.1022                 1.0952
 Frc consts  --      6.3809                 6.3936                 6.4214
 IR Inten    --      9.0479                47.6110                26.7647

                     82                     83                     84
                      A                      A                      A
 Frequencies --   3161.9403              3200.0087              3682.5317
 Red. masses --      1.1035                 1.0917                 1.0640
 Frc consts  --      6.5000                 6.5866                 8.5013
 IR Inten    --     19.4438                15.7822                53.2349

 - Thermochemistry -
 -------------------
 Temperature   298.150 Kelvin.  Pressure   1.00000 Atm.
 Atom     1 has atomic number  6 and mass  12.00000

 Molecular mass:   187.12084 amu.
 Principal axes and moments of inertia in atomic units:
                           1         2         3
     Eigenvalues --  1663.582992635.796773159.98125
           X            0.99924   0.03148  -0.02306
           Y           -0.03171   0.99945  -0.00949
           Z            0.02275   0.01022   0.99969
 This molecule is an asymmetric top.
 Rotational symmetry number  1.
 Warning -- assumption of classical behavior for rotation
           may cause significant error
 Rotational temperatures (Kelvin)      0.05206     0.03286     0.02741
 Rotational constants (GHZ):           1.08485     0.68470     0.57112
 Zero-point vibrational energy     693250.0 (Joules/Mol)
                                  165.69072 (Kcal/Mol)
 Warning -- explicit consideration of  21 degrees of freedom as
           vibrations may cause significant error
 Vibrational temperatures:     27.07   120.34   161.59   184.53   214.74
          (Kelvin)            265.79   302.22   322.48   369.13   405.04
                              440.36   467.62   502.84   544.78   597.58
                              610.19   674.94   681.51   737.56   798.14
                              891.78   948.78   962.42  1007.07  1108.34
                             1192.68  1271.57  1283.13  1291.67  1371.40
                             1401.80  1466.09  1493.14  1541.24  1551.23
                             1563.29  1575.59  1632.94  1635.41  1655.03
                             1693.35  1710.40  1730.85  1770.37  1802.94
                             1820.79  1862.32  1906.43  1939.12  1947.07
                             1982.39  2001.36  2034.50  2035.14  2068.47
                             2121.29  2156.45  2165.67  2183.51  2185.36
                             2200.62  2203.51  2221.55  2228.51  2232.94
                             2243.44  2651.85  4233.83  4326.96  4332.89
                             4359.85  4414.41  4418.84  4430.90  4439.83
                             4445.63  4455.50  4510.22  4510.57  4514.47
                             4538.76  4549.33  4604.10  5298.34

 Zero-point correction=                           0.264045 (Hartree/Particle)
 Thermal correction to Energy=                    0.277514
 Thermal correction to Enthalpy=                  0.278458
 Thermal correction to Gibbs Free Energy=         0.224098
 Sum of electronic and zero-point Energies=           -633.381964
 Sum of electronic and thermal Energies=              -633.368495
 Sum of electronic and thermal Enthalpies=            -633.367551
 Sum of electronic and thermal Free Energies=         -633.421911

                     E (Thermal)             CV                S
                      KCal/Mol        Cal/Mol-Kelvin    Cal/Mol-Kelvin
 Total                  174.142             51.748            114.410
 Electronic               0.000              0.000              0.000
 Translational            0.889              2.981             41.586
 Rotational               0.889              2.981             31.005
 Vibrational            172.365             45.786             41.819
 Vibration     1          0.593              1.986              6.756
 Vibration     2          0.601              1.960              3.804
 Vibration     3          0.607              1.939              3.229
 Vibration     4          0.611              1.925              2.972
 Vibration     5          0.618              1.903              2.682
 Vibration     6          0.631              1.861              2.280
 Vibration     7          0.642              1.825              2.043
 Vibration     8          0.649              1.804              1.925
 Vibration     9          0.666              1.752              1.685
 Vibration    10          0.681              1.708              1.524
 Vibration    11          0.696              1.662              1.384
 Vibration    12          0.709              1.625              1.285
 Vibration    13          0.727              1.576              1.168
 Vibration    14          0.749              1.516              1.045
 Vibration    15          0.779              1.437              0.908
 Vibration    16          0.786              1.418              0.878
 Vibration    17          0.826              1.319              0.740
 Vibration    18          0.830              1.308              0.727
 Vibration    19          0.868              1.222              0.627
 Vibration    20          0.910              1.129              0.534
 Vibration    21          0.980              0.990              0.417

 Optimization completed.
    -- Stationary point found.
 Normal termination of Gaussian 16 at Wed Dec  9 22:47:49 2020.

 ----------------------------------------------------------------------
 # B3LYP/6-311++G(d,p) empiricaldispersion=gd3bj scf=xqc pop=npa geom=c
 heck
 ----------------------------------------------------------------------

 --------------------------------------
 CID_82718372_JID_3263_Energie_neutraal
 --------------------------------------
 Structure from the checkpoint file:  "JID_3263.chk"
 Charge =  0 Multiplicity = 1

 SCF Done:  E(RB3LYP) =  -633.837549063     A.U. after   14 cycles
 Normal termination of Gaussian 16 at Wed Dec  9 22:52:17 2020.

 ----------------------------------------------------------------------
 # B3LYP/6-311++G(d,p) empiricaldispersion=gd3bj scf=xqc pop=npa geom=c
 heck
 ----------------------------------------------------------------------

 ------------------------------------
 CID_82718372_JID_3263_Energie_kation
 ------------------------------------
 Structure from the checkpoint file:  "JID_3263.chk"
 Charge =  1 Multiplicity = 2

 SCF Done:  E(UB3LYP) =  -633.541954175     A.U. after   20 cycles
 Normal termination of Gaussian 16 at Wed Dec  9 23:01:10 2020.
 Gaussian 16:  ES64L-G16RevA.03 25-Dec-2016

 ----------------------------------------------------------------------
 # B3LYP/6-311++G(d,p) empiricaldispersion=gd3bj scf=xqc pop=npa geom=c
 heck
 ----------------------------------------------------------------------

 -----------------------------------
 CID_82718372_JID_3263_Energie_anion
 -----------------------------------
 Structure from the checkpoint file:  "JID_3263.chk"
 Charge = -1 Multiplicity = 2

                         Standard orientation:
 ---------------------------------------------------------------------
 Center     Atomic      Atomic             Coordinates (Angstroms)
 Number     Number       Type             X           Y           Z
 ---------------------------------------------------------------------
      1          6           0        0.060636   -1.481160    1.742226
      2          6           0        0.566099   -1.279311    0.323395
      3          6           0        0.396549    0.107329   -0.381579
      4          6           0        1.569124   -0.032750   -1.384898
      5          6           0        2.665519   -0.651655   -0.529246
      6          8           0        1.982093   -1.529503    0.359994
      7          6           0       -0.932118    0.258758   -1.199575
      8          6           0       -2.239449   -0.110542   -0.536352
      9          8           0       -3.084882    0.653350   -0.125988
     10          8           0       -2.408635   -1.460015   -0.479128
     11          7           0        0.649824    1.216890    0.559841
     12          6           0        1.263557    2.413712   -0.002218
     13          6           0       -0.497449    1.619090    1.374679
     14          1           0        0.371645   -2.475774    2.076886
     15          1           0       -1.030113   -1.433469    1.799297
     16          1           0        0.504685   -0.742675    2.413069
     17          1           0        0.093397   -2.028544   -0.329126
     18          1           0        1.849215    0.892579   -1.889820
     19          1           0        1.269940   -0.748197   -2.157575
     20          1           0        3.212436    0.108328    0.045617
     21          1           0        3.388924   -1.227210   -1.118972
     22          1           0       -1.022156    1.296925   -1.529260
     23          1           0       -0.852626   -0.371678   -2.090308
     24          1           0       -3.271864   -1.602299   -0.046766
     25          1           0        0.677876    2.879543   -0.818144
     26          1           0        1.350974    3.155934    0.796953
     27          1           0        2.273787    2.217361   -0.367437
     28          1           0       -1.230403    2.228168    0.822374
     29          1           0       -1.023522    0.754189    1.771763
     30          1           0       -0.134377    2.207127    2.224941
 ---------------------------------------------------------------------

 SCF Done:  E(UB3LYP) =  -633.824674253     A.U. after   33 cycles
 SCF Done:  E(UB3LYP) =  -633.824674253     a.u. after    1 cycles

 The electronic state is 2-A.
 Alpha  occ. eigenvalues --  -19.06378 -19.01333 -19.01139 -14.20748 -10.20203
 Alpha  occ. eigenvalues --  -10.12347 -10.11709 -10.11075 -10.08591 -10.08296
 Alpha  occ. eigenvalues --  -10.08265 -10.07036 -10.05643  -1.00545  -0.93356
 Alpha  occ. eigenvalues --   -0.91620  -0.82575  -0.70144  -0.67059  -0.63818
 Alpha  occ. eigenvalues --   -0.60228  -0.57993  -0.53915  -0.51033  -0.48299
 Alpha  occ. eigenvalues --   -0.44788  -0.41632  -0.39840  -0.38937  -0.38125
 Alpha  occ. eigenvalues --   -0.36415  -0.35461  -0.35026  -0.33538  -0.32832
 Alpha  occ. eigenvalues --   -0.31433  -0.30632  -0.30077  -0.29002  -0.28583
 Alpha  occ. eigenvalues --   -0.28112  -0.27142  -0.26299  -0.25783  -0.24128
 Alpha  occ. eigenvalues --   -0.23526  -0.22193  -0.21331  -0.17804  -0.14827
 Alpha  occ. eigenvalues --   -0.11727   0.04526
 Alpha virt. eigenvalues --    0.06499   0.07306   0.08199   0.08630   0.09347
 Alpha virt. eigenvalues --    0.09860   0.10420   0.10701   0.10970   0.12389
 Alpha virt. eigenvalues --    0.12560   0.13099   0.13734   0.14195   0.14481

  Beta  occ. eigenvalues --  -19.06323 -19.01333 -19.01107 -14.20742 -10.20163
  Beta  occ. eigenvalues --  -10.12348 -10.11701 -10.11062 -10.08552 -10.08267
  Beta  occ. eigenvalues --  -10.08254 -10.07005 -10.05630  -1.00448  -0.93350
  Beta  occ. eigenvalues --   -0.91537  -0.82563  -0.70108  -0.67030  -0.63744
  Beta  occ. eigenvalues --   -0.60181  -0.57944  -0.53870  -0.50916  -0.48243
  Beta  occ. eigenvalues --   -0.44731  -0.41593  -0.39786  -0.38867  -0.38078
  Beta  occ. eigenvalues --   -0.36371  -0.35415  -0.34956  -0.33469  -0.32800
  Beta  occ. eigenvalues --   -0.31403  -0.30599  -0.30027  -0.28970  -0.28539
  Beta  occ. eigenvalues --   -0.28085  -0.27112  -0.26270  -0.25744  -0.24097
  Beta  occ. eigenvalues --   -0.23495  -0.22087  -0.21314  -0.17743  -0.14817
  Beta  occ. eigenvalues --   -0.11698
  Beta virt. eigenvalues --    0.06976   0.07867   0.07880   0.08647   0.09177
  Beta virt. eigenvalues --    0.09964   0.10211   0.10754   0.11094   0.11329
  Beta virt. eigenvalues --    0.12730   0.12972   0.13366   0.14070   0.14430

 Mulliken charges and spin densities:
               1          2
     1  C    0.023086  -0.577947
     2  C   -0.935619   0.603061
     3  C   -1.100236   1.243647
     4  C    0.333663  -0.358753
     5  C    0.526525  -0.783743
     6  O   -0.105717   0.016818
     7  C    1.800412  -2.489861
     8  C   -0.556232   0.319269
     9  O   -0.260143   0.037225
    10  O   -0.169367   0.043912
    11  N    0.169126   0.031129
    12  C    1.080833  -1.414135
    13  C   -0.134763  -0.281402
    14  H   -0.007345   0.161879
    15  H    0.082346   0.063606
    16  H    0.161039   0.020559
    17  H    0.104970   0.121232
    18  H   -0.613086   0.794215
    19  H   -0.147662   0.328022
    20  H    0.078809   0.057851
    21  H   -0.184492   0.349897
    22  H    0.036595   0.173826
    23  H   -0.277081   0.469952
    24  H   -0.507841   0.799237
    25  H   -0.375641   0.529677
    26  H    0.034355   0.097830
    27  H   -0.269039   0.393749
    28  H    0.189399  -0.016115
    29  H    0.032774   0.123272
    30  H   -0.009666   0.142091
 Sum of Mulliken charges =  -1.00000   1.00000

 Dipole moment (field-independent basis, Debye):
    X=              1.5760    Y=              0.1640    Z=              3.4609  Tot=              3.8064
 Quadrupole moment (field-independent basis, Debye-Ang):
   XX=           -138.9718   YY=           -125.4652   ZZ=           -115.7788
   XY=             -7.7923   XZ=              2.8287   YZ=              3.8453

 Summary of Natural Population Analysis:

                                       Natural Population
                Natural  -----------------------------------------------
    Atom  No    Charge         Core      Valence    Rydberg      Total
 -----------------------------------------------------------------------
      C    1   -0.29400      0.99963     2.28788    0.00649     3.29400
      C    2    0.06537      0.99949     1.91948    0.01566     2.93463
      C    3    0.07343      0.99952     1.90909    0.01796     2.92657
      C    4   -0.20742      0.99959     2.19759    0.01025     3.20742
      C    5   -0.00561      0.99958     1.99354    0.01249     3.00561
      O    6   -0.30827      0.99989     3.30012    0.00827     4.30827
      C    7   -0.25328      0.99952     2.24220    0.01156     3.25328
      C    8    0.41277      0.99971     1.56168    0.02584     2.58723
      O    9   -0.30546      0.99987     3.29952    0.00607     4.30546
      O   10   -0.34818      0.99988     3.34087    0.00743     4.34818
      N   11   -0.29060      0.99969     2.77814    0.01278     3.79060
      C   12   -0.17734      0.99963     2.16855    0.00916     3.17734
      C   13   -0.17995      0.99963     2.17323    0.00708     3.17995
      H   14    0.10375      0.00000     0.39529    0.00096     0.39625
      H   15    0.10102      0.00000     0.39793    0.00105     0.39898
      H   16    0.10299      0.00000     0.39573    0.00128     0.39701
      H   17    0.08841      0.00000     0.40960    0.00199     0.41159
      H   18    0.11235      0.00000     0.38566    0.00199     0.38765
      H   19    0.10443      0.00000     0.39373    0.00184     0.39557
      H   20    0.08166      0.00000     0.41674    0.00160     0.41834
      H   21    0.08547      0.00000     0.41331    0.00121     0.41453
      H   22    0.11666      0.00000     0.38191    0.00143     0.38334
      H   23    0.11942      0.00000     0.37823    0.00234     0.38058
      H   24    0.24423      0.00000     0.23983    0.01593     0.25577
      H   25    0.08366      0.00000     0.41460    0.00174     0.41634
      H   26    0.09606      0.00000     0.40293    0.00101     0.40394
      H   27    0.09595      0.00000     0.40261    0.00144     0.40405
      H   28    0.09072      0.00000     0.40807    0.00121     0.40928
      H   29    0.09942      0.00000     0.39940    0.00118     0.40058
      H   30    0.09234      0.00000     0.40677    0.00089     0.40766
 =======================================================================
   * Total *   -0.00000     12.99562    37.81425    0.19014    51.00000

 Normal termination of Gaussian 16 at Wed Dec  9 23:15:44 2020.
