 Gaussian 16, Revision A.03,

 -----------------------------------------------------------
 # opt freq B3LYP/6-31G(d) empiricaldispersion=gd3bj scf=xqc
 -----------------------------------------------------------

 ----------------------------
 CID_21146413_JID_19_neutraal
 ----------------------------
 Symbolic Z-matrix:
 Charge =  0 Multiplicity = 1

 SCF Done:  E(RB3LYP) =  -1141.84148897     A.U. after   17 cycles
 SCF Done:  E(RB3LYP) =  -1141.86517625     A.U. after   14 cycles
 SCF Done:  E(RB3LYP) =  -1141.86723478     A.U. after   13 cycles
 SCF Done:  E(RB3LYP) =  -1141.85833611     A.U. after   16 cycles
 SCF Done:  E(RB3LYP) =  -1141.86742094     A.U. after   14 cycles
 SCF Done:  E(RB3LYP) =  -1141.86819876     A.U. after   15 cycles
 SCF Done:  E(RB3LYP) =  -1141.86766827     A.U. after   15 cycles
 SCF Done:  E(RB3LYP) =  -1141.86942347     A.U. after   13 cycles
 SCF Done:  E(RB3LYP) =  -1141.87020075     A.U. after   14 cycles
 SCF Done:  E(RB3LYP) =  -1141.87031863     A.U. after   12 cycles
 SCF Done:  E(RB3LYP) =  -1141.87034660     A.U. after   11 cycles
 SCF Done:  E(RB3LYP) =  -1141.87034908     A.U. after   10 cycles
 SCF Done:  E(RB3LYP) =  -1141.87034935     A.U. after    9 cycles
 SCF Done:  E(RB3LYP) =  -1141.87034942     A.U. after    8 cycles
 Optimization completed.
    -- Stationary point found.
 Normal termination of Gaussian 16 at Tue Dec  8 10:16:06 2020.

 --------------------------------------------------------------------
 #N Geom=AllCheck Guess=TCheck SCRF=Check GenChk RB3LYP/6-31G(d) Freq
 --------------------------------------------------------------------

 Structure from the checkpoint file:  "JID_19.chk"
 ----------------------------
 CID_21146413_JID_19_neutraal
 ----------------------------
 Charge =  0 Multiplicity = 1

 SCF Done:  E(RB3LYP) =  -1141.87034942     A.U. after    1 cycles

  Exact polarizability: 185.662   2.942  98.963   3.898  -0.620  55.942
 Approx polarizability: 316.044  13.202 173.793  -2.769  -2.246  91.300

                      1                      2                      3
                      A                      A                      A
 Frequencies --     54.4663                80.7624               121.3355
 Red. masses --      6.1539                 4.2361                 4.6027
 Frc consts  --      0.0108                 0.0163                 0.0399
 IR Inten    --      3.4674                 1.8379                 7.3173

                      4                      5                      6
                      A                      A                      A
 Frequencies --    142.2969               190.1725               265.6991
 Red. masses --      6.4256                 6.4964                 4.9350
 Frc consts  --      0.0767                 0.1384                 0.2053
 IR Inten    --      3.4273                 5.4946                 0.3115

                      7                      8                      9
                      A                      A                      A
 Frequencies --    275.8338               319.6788               334.6427
 Red. masses --      3.9310                 4.4272                 1.6175
 Frc consts  --      0.1762                 0.2666                 0.1067
 IR Inten    --     54.2150                20.2624               113.2679

                     10                     11                     12
                      A                      A                      A
 Frequencies --    365.4042               463.2594               497.1124
 Red. masses --      2.8923                 9.9830                 5.3334
 Frc consts  --      0.2275                 1.2623                 0.7765
 IR Inten    --     22.9173                 1.1345                 2.0957

                     13                     14                     15
                      A                      A                      A
 Frequencies --    519.9928               560.8553               574.4706
 Red. masses --      7.6031                 2.3747                 3.3602
 Frc consts  --      1.2113                 0.4401                 0.6533
 IR Inten    --      1.3710                40.4116                 2.1712

                     16                     17                     18
                      A                      A                      A
 Frequencies --    592.3694               604.4736               636.8938
 Red. masses --      2.3166                 6.3445                 2.9670
 Frc consts  --      0.4790                 1.3659                 0.7091
 IR Inten    --     15.2849                 3.8673                11.0682

                     19                     20                     21
                      A                      A                      A
 Frequencies --    646.6067               724.1852               839.8848
 Red. masses --      1.5721                 4.0834                 1.3992
 Frc consts  --      0.3873                 1.2618                 0.5815
 IR Inten    --     33.7803                11.4064                23.2105

                     22                     23                     24
                      A                      A                      A
 Frequencies --    896.2006               972.9588              1048.2515
 Red. masses --      1.4683                 1.6119                 2.6333
 Frc consts  --      0.6948                 0.8990                 1.7048
 IR Inten    --      5.0792                32.1096                16.7021

                     25                     26                     27
                      A                      A                      A
 Frequencies --   1061.6181              1142.0605              1148.8701
 Red. masses --      5.2436                 5.1035                 6.4479
 Frc consts  --      3.4819                 3.9219                 5.0143
 IR Inten    --     77.0099                36.9291                 6.7625

                     28                     29                     30
                      A                      A                      A
 Frequencies --   1212.9630              1315.2900              1343.5117
 Red. masses --      1.0965                 1.2872                 1.5302
 Frc consts  --      0.9505                 1.3120                 1.6274
 IR Inten    --     51.9681                 1.3648                23.8911

                     31                     32                     33
                      A                      A                      A
 Frequencies --   1400.5555              1414.0637              1509.4665
 Red. masses --      1.2887                 1.1995                 1.0840
 Frc consts  --      1.4894                 1.4131                 1.4553
 IR Inten    --     13.4890                66.0529                 1.5331

                     34                     35                     36
                      A                      A                      A
 Frequencies --   1614.7415              1676.1035              2214.1445
 Red. masses --      8.4673                 6.0877                 6.2174
 Frc consts  --     13.0078                10.0763                17.9586
 IR Inten    --      7.5092                 1.9772                 0.6884

                     37                     38                     39
                      A                      A                      A
 Frequencies --   3008.6682              3103.4815              3163.7176
 Red. masses --      1.0688                 1.0950                 1.0874
 Frc consts  --      5.7002                 6.2138                 6.4125
 IR Inten    --     42.1927                20.9034                17.4069

                     40                     41                     42
                      A                      A                      A
 Frequencies --   3194.6467              3495.7616              3749.5674
 Red. masses --      1.0900                 1.1552                 1.0665
 Frc consts  --      6.5540                 8.3173                 8.8346
 IR Inten    --      5.4068                91.9482                29.7809

 - Thermochemistry -
 -------------------
 Temperature   298.150 Kelvin.  Pressure   1.00000 Atm.
 Atom     1 has atomic number  6 and mass  12.00000

 Molecular mass:   169.98601 amu.
 Principal axes and moments of inertia in atomic units:
                           1         2         3
     Eigenvalues --   695.507703077.401803575.06781
           X            0.99995   0.00105   0.01007
           Y           -0.00115   0.99995   0.00981
           Z           -0.01006  -0.00982   0.99990
 This molecule is an asymmetric top.
 Rotational symmetry number  1.
 Warning -- assumption of classical behavior for rotation
           may cause significant error
 Rotational temperatures (Kelvin)      0.12453     0.02815     0.02423
 Rotational constants (GHZ):           2.59485     0.58645     0.50481
 Zero-point vibrational energy     290076.7 (Joules/Mol)
                                   69.33000 (Kcal/Mol)
 Warning -- explicit consideration of  17 degrees of freedom as
           vibrations may cause significant error
 Vibrational temperatures:     78.36   116.20   174.57   204.73   273.62
          (Kelvin)            382.28   396.86   459.95   481.48   525.74
                              666.53   715.23   748.15   806.95   826.54
                              852.29   869.70   916.35   930.32  1041.94
                             1208.41  1289.43  1399.87  1508.20  1527.43
                             1643.17  1652.97  1745.18  1892.41  1933.01
                             2015.09  2034.52  2171.79  2323.25  2411.54
                             3185.66  4328.80  4465.22  4551.88  4596.38
                             5029.62  5394.79

 Zero-point correction=                           0.110484 (Hartree/Particle)
 Thermal correction to Energy=                    0.120951
 Thermal correction to Enthalpy=                  0.121895
 Thermal correction to Gibbs Free Energy=         0.073921
 Sum of electronic and zero-point Energies=          -1141.759865
 Sum of electronic and thermal Energies=             -1141.749399
 Sum of electronic and thermal Enthalpies=           -1141.748455
 Sum of electronic and thermal Free Energies=        -1141.796428

                     E (Thermal)             CV                S
                      KCal/Mol        Cal/Mol-Kelvin    Cal/Mol-Kelvin
 Total                   75.898             38.043            100.969
 Electronic               0.000              0.000              0.000
 Translational            0.889              2.981             41.299
 Rotational               0.889              2.981             30.416
 Vibrational             74.120             32.082             29.254
 Vibration     1          0.596              1.976              4.648
 Vibration     2          0.600              1.962              3.872
 Vibration     3          0.609              1.931              3.079
 Vibration     4          0.616              1.911              2.773
 Vibration     5          0.633              1.853              2.226
 Vibration     6          0.672              1.736              1.624
 Vibration     7          0.677              1.718              1.559
 Vibration     8          0.706              1.636              1.312
 Vibration     9          0.716              1.606              1.238
 Vibration    10          0.739              1.543              1.099
 Vibration    11          0.821              1.332              0.757
 Vibration    12          0.853              1.256              0.665
 Vibration    13          0.875              1.206              0.610
 Vibration    14          0.917              1.116              0.522
 Vibration    15          0.931              1.086              0.496
 Vibration    16          0.950              1.048              0.463
 Vibration    17          0.963              1.022              0.442

                           ! Non-Optimized Parameters !
 Normal termination of Gaussian 16 at Tue Dec  8 10:18:25 2020.

 ----------------------------------------------------------------------
 # B3LYP/6-311++G(d,p) empiricaldispersion=gd3bj scf=xqc pop=npa geom=c
 heck
 ----------------------------------------------------------------------

 ------------------------------------
 CID_21146413_JID_19_Energie_neutraal
 ------------------------------------
 Structure from the checkpoint file:  "JID_19.chk"
 Charge =  0 Multiplicity = 1

 SCF Done:  E(RB3LYP) =  -1142.03104827     A.U. after   17 cycles
 Normal termination of Gaussian 16 at Tue Dec  8 10:19:36 2020.

 ----------------------------------------------------------------------
 # B3LYP/6-311++G(d,p) empiricaldispersion=gd3bj scf=xqc pop=npa geom=c
 heck
 ----------------------------------------------------------------------

 ----------------------------------
 CID_21146413_JID_19_Energie_kation
 ----------------------------------
 Structure from the checkpoint file:  "JID_19.chk"
 Charge =  1 Multiplicity = 2

 SCF Done:  E(UB3LYP) =  -1141.74344257     A.U. after   25 cycles
 Normal termination of Gaussian 16 at Tue Dec  8 10:21:40 2020.
 Gaussian 16:  ES64L-G16RevA.03 25-Dec-2016

 ----------------------------------------------------------------------
 # B3LYP/6-311++G(d,p) empiricaldispersion=gd3bj scf=xqc pop=npa geom=c
 heck
 ----------------------------------------------------------------------

 ---------------------------------
 CID_21146413_JID_19_Energie_anion
 ---------------------------------
 Structure from the checkpoint file:  "JID_19.chk"
 Charge = -1 Multiplicity = 2

                         Standard orientation:
 ---------------------------------------------------------------------
 Center     Atomic      Atomic             Coordinates (Angstroms)
 Number     Number       Type             X           Y           Z
 ---------------------------------------------------------------------
      1          6           0       -4.290792    0.230546   -0.306633
      2          6           0       -3.088777    0.304594   -0.177136
      3          6           0       -1.687091    0.338523    0.005391
      4          6           0       -0.935454    1.462505   -0.122283
      5          6           0        0.483749    1.562166    0.153286
      6          6           0        1.373072    0.550128    0.107432
      7         16           0        0.871498   -1.078216   -0.450274
      8         16           0       -0.953510   -1.206894    0.571397
      9          6           0        2.837365    0.674561    0.439412
     10          8           0        3.659583   -0.046305   -0.471720
     11          1           0       -5.348911    0.179936   -0.427361
     12          1           0       -1.451664    2.372013   -0.417423
     13          1           0        0.857406    2.549554    0.419915
     14          1           0        3.138666    1.724996    0.374957
     15          1           0        3.011228    0.340095    1.473769
     16          1           0        3.676383   -0.972519   -0.184886
 ---------------------------------------------------------------------

 SCF Done:  E(UB3LYP) =  -1142.06699121     A.U. after   23 cycles

 The electronic state is 2-A.
 Alpha  occ. eigenvalues --  -88.70733 -88.70517 -19.00419 -10.09923 -10.05408
 Alpha  occ. eigenvalues --  -10.04427 -10.03907 -10.02552 -10.02379 -10.02135
 Alpha  occ. eigenvalues --   -7.79273  -7.79046  -5.75703  -5.75497  -5.75292
 Alpha  occ. eigenvalues --   -5.75092  -5.74658  -5.74400  -0.90597  -0.70813
 Alpha  occ. eigenvalues --   -0.65442  -0.61518  -0.60036  -0.55414  -0.49514
 Alpha  occ. eigenvalues --   -0.46825  -0.40378  -0.39170  -0.36385  -0.34662
 Alpha  occ. eigenvalues --   -0.33237  -0.29357  -0.28600  -0.24450  -0.23378
 Alpha  occ. eigenvalues --   -0.22478  -0.20146  -0.19009  -0.16571  -0.15905
 Alpha  occ. eigenvalues --   -0.14136  -0.11800  -0.10110  -0.05319   0.02377
 Alpha virt. eigenvalues --    0.08838   0.09286   0.10261   0.11294   0.11680
 Alpha virt. eigenvalues --    0.12950   0.13619   0.13818   0.14408   0.15811
 Alpha virt. eigenvalues --    0.16336   0.16597   0.17047   0.17934   0.18633

  Beta  occ. eigenvalues --  -88.70653 -88.70417 -19.00363 -10.09942 -10.05161
  Beta  occ. eigenvalues --  -10.04095 -10.03964 -10.02522 -10.02195 -10.01939
  Beta  occ. eigenvalues --   -7.79190  -7.78947  -5.75516  -5.75279  -5.75226
  Beta  occ. eigenvalues --   -5.75004  -5.74594  -5.74303  -0.90463  -0.70231
  Beta  occ. eigenvalues --   -0.64928  -0.61021  -0.59672  -0.55126  -0.49064
  Beta  occ. eigenvalues --   -0.46231  -0.40111  -0.38970  -0.36142  -0.34335
  Beta  occ. eigenvalues --   -0.33016  -0.29055  -0.28342  -0.23921  -0.23014
  Beta  occ. eigenvalues --   -0.21802  -0.19540  -0.18299  -0.16338  -0.15343
  Beta  occ. eigenvalues --   -0.13790  -0.11096  -0.09099  -0.04541
  Beta virt. eigenvalues --    0.07514   0.09020   0.09364   0.10400   0.11570
  Beta virt. eigenvalues --    0.11850   0.13366   0.13591   0.13973   0.14415
  Beta virt. eigenvalues --    0.16208   0.16337   0.16666   0.17382   0.17996

 Mulliken charges and spin densities:
               1          2
     1  C   -1.059534   0.250209
     2  C    1.077767  -0.012915
     3  C   -0.055708   0.000913
     4  C    0.170708   0.139002
     5  C   -0.580368  -0.043497
     6  C    0.765608   0.043097
     7  S   -0.573036   0.200310
     8  S   -0.644341   0.210707
     9  C   -0.547220   0.089956
    10  O   -0.247374   0.007402
    11  H    0.096995  -0.004732
    12  H    0.110011  -0.008821
    13  H    0.085415   0.001686
    14  H    0.154176   0.001119
    15  H    0.067548   0.073717
    16  H    0.179354   0.051848
 Sum of Mulliken charges =  -1.00000   1.00000

 Dipole moment (field-independent basis, Debye):
    X=              1.8553    Y=              0.6649    Z=              1.2340  Tot=              2.3253
 Quadrupole moment (field-independent basis, Debye-Ang):
   XX=           -108.1145   YY=            -81.9905   ZZ=            -85.5355
   XY=             -1.3071   XZ=              5.1933   YZ=              0.5793

 Summary of Natural Population Analysis:

                                       Natural Population
                Natural  -----------------------------------------------
    Atom  No    Charge         Core      Valence    Rydberg      Total
 -----------------------------------------------------------------------
      C    1   -0.10579      0.99929     2.10169    0.00481     3.10579
      C    2   -0.03347      0.99943     2.02263    0.01141     3.03347
      C    3   -0.04157      0.99932     2.03082    0.01143     3.04157
      C    4   -0.08389      0.99953     2.06830    0.01606     3.08389
      C    5   -0.12926      0.99943     2.11987    0.00995     3.12926
      C    6   -0.02927      0.99942     2.01330    0.01655     3.02927
      S    7    0.06133      4.99953     2.91470    0.02444     7.93867
      S    8    0.08286      4.99960     2.89183    0.02570     7.91714
      C    9   -0.02653      0.99952     2.01150    0.01552     3.02653
      O   10   -0.36853      0.99990     3.36108    0.00755     4.36853
      H   11    0.10012      0.00000     0.39860    0.00128     0.39988
      H   12    0.09391      0.00000     0.40422    0.00187     0.40609
      H   13    0.09312      0.00000     0.40538    0.00150     0.40688
      H   14    0.08449      0.00000     0.41392    0.00158     0.41551
      H   15    0.08051      0.00000     0.41740    0.00208     0.41949
      H   16    0.22793      0.00000     0.26793    0.00415     0.27207
 =======================================================================
   * Total *    0.00596     17.99498    25.84317    0.15589    43.99404

 Normal termination of Gaussian 16 at Tue Dec  8 10:23:31 2020.
