 Gaussian 16, Revision A.03,

 -----------------------------------------------------------
 # opt freq B3LYP/6-31G(d) empiricaldispersion=gd3bj scf=xqc
 -----------------------------------------------------------

 -------------------------------
 CID_134974495_JID_3516_neutraal
 -------------------------------
 Symbolic Z-matrix:
 Charge =  0 Multiplicity = 1

 SCF Done:  E(RB3LYP) =  -630.035606745     A.U. after   15 cycles
 SCF Done:  E(RB3LYP) =  -630.039757680     A.U. after   12 cycles
 SCF Done:  E(RB3LYP) =  -630.040034524     A.U. after   12 cycles
 SCF Done:  E(RB3LYP) =  -630.040410644     A.U. after   11 cycles
 SCF Done:  E(RB3LYP) =  -630.040566804     A.U. after   11 cycles
 SCF Done:  E(RB3LYP) =  -630.041009225     A.U. after   13 cycles
 SCF Done:  E(RB3LYP) =  -630.041381232     A.U. after   13 cycles
 SCF Done:  E(RB3LYP) =  -630.041958718     A.U. after   12 cycles
 SCF Done:  E(RB3LYP) =  -630.042188275     A.U. after   12 cycles
 SCF Done:  E(RB3LYP) =  -630.042270049     A.U. after   11 cycles
 SCF Done:  E(RB3LYP) =  -630.042337482     A.U. after    8 cycles
 SCF Done:  E(RB3LYP) =  -630.042337885     A.U. after    8 cycles
 SCF Done:  E(RB3LYP) =  -630.042338137     A.U. after    8 cycles
 SCF Done:  E(RB3LYP) =  -630.042338359     A.U. after    8 cycles
 SCF Done:  E(RB3LYP) =  -630.042338446     A.U. after    7 cycles
 Optimization completed.
    -- Stationary point found.
 Normal termination of Gaussian 16 at Wed Dec  9 23:35:06 2020.

 --------------------------------------------------------------------
 #N Geom=AllCheck Guess=TCheck SCRF=Check GenChk RB3LYP/6-31G(d) Freq
 --------------------------------------------------------------------

 Structure from the checkpoint file:  "JID_3516.chk"
 -------------------------------
 CID_134974495_JID_3516_neutraal
 -------------------------------
 Charge =  0 Multiplicity = 1

 SCF Done:  E(RB3LYP) =  -630.042338445     A.U. after    1 cycles

  Exact polarizability: 167.813  -1.954 103.313   3.305  -7.160  62.592
 Approx polarizability: 237.023  -0.636 167.827  11.140 -20.589  95.957

                      1                      2                      3
                      A                      A                      A
 Frequencies --     41.3838                44.4245                60.6409
 Red. masses --      3.7499                 4.6826                 8.3764
 Frc consts  --      0.0038                 0.0054                 0.0181
 IR Inten    --      1.1746                 0.6761                 1.3690

                      4                      5                      6
                      A                      A                      A
 Frequencies --     92.4829               146.8181               159.5092
 Red. masses --      4.9319                 4.6563                 1.4870
 Frc consts  --      0.0249                 0.0591                 0.0223
 IR Inten    --      0.6921                 5.5452                 0.7208

                      7                      8                      9
                      A                      A                      A
 Frequencies --    174.2366               260.5837               305.3690
 Red. masses --      1.7488                 3.1009                 5.5865
 Frc consts  --      0.0313                 0.1241                 0.3069
 IR Inten    --      1.3309                 2.8177                 2.3728

                     10                     11                     12
                      A                      A                      A
 Frequencies --    357.0981               372.8658               394.0085
 Red. masses --      2.8084                 5.7219                 1.4897
 Frc consts  --      0.2110                 0.4687                 0.1363
 IR Inten    --     35.6937                21.6698               123.5813

                     13                     14                     15
                      A                      A                      A
 Frequencies --    428.4534               434.9325               506.0343
 Red. masses --      3.4880                 4.1230                 2.5451
 Frc consts  --      0.3773                 0.4595                 0.3840
 IR Inten    --      7.3517                10.8912                 9.4769

                     16                     17                     18
                      A                      A                      A
 Frequencies --    514.3828               552.2251               588.6032
 Red. masses --      1.6791                 2.7952                 4.9804
 Frc consts  --      0.2618                 0.5022                 1.0166
 IR Inten    --     39.2582                10.9284                 6.5180

                     19                     20                     21
                      A                      A                      A
 Frequencies --    623.6734               643.8364               664.9923
 Red. masses --      4.6795                 1.8465                 5.8440
 Frc consts  --      1.0724                 0.4510                 1.5226
 IR Inten    --     51.6537                71.6498                27.7456

                     22                     23                     24
                      A                      A                      A
 Frequencies --    721.8136               777.8508               826.1678
 Red. masses --      4.3333                 4.1709                 4.5804
 Frc consts  --      1.3302                 1.4869                 1.8420
 IR Inten    --      2.6717                 2.7381                 7.2131

                     25                     26                     27
                      A                      A                      A
 Frequencies --    832.6069               857.4249               931.6656
 Red. masses --      1.2833                 1.7096                 3.5755
 Frc consts  --      0.5241                 0.7405                 1.8286
 IR Inten    --      0.2586                43.0736                 3.7823

                     28                     29                     30
                      A                      A                      A
 Frequencies --    951.5738               955.8473              1035.0184
 Red. masses --      1.3265                 1.3234                 2.6607
 Frc consts  --      0.7077                 0.7124                 1.6793
 IR Inten    --      0.1707                 0.4419                14.6698

                     31                     32                     33
                      A                      A                      A
 Frequencies --   1038.8544              1040.7745              1067.8078
 Red. masses --      1.9499                 1.9582                 1.7185
 Frc consts  --      1.2398                 1.2497                 1.1545
 IR Inten    --      4.7644                84.8756                 9.8352

                     34                     35                     36
                      A                      A                      A
 Frequencies --   1077.6511              1104.1498              1145.6058
 Red. masses --      4.2094                 2.2871                 1.2773
 Frc consts  --      2.8802                 1.6428                 0.9877
 IR Inten    --    349.1563                12.3808                 8.6016

                     37                     38                     39
                      A                      A                      A
 Frequencies --   1208.6431              1256.1939              1268.7135
 Red. masses --      1.1640                 2.0525                 3.2355
 Frc consts  --      1.0018                 1.9083                 3.0685
 IR Inten    --     15.3060               161.3119               145.3248

                     40                     41                     42
                      A                      A                      A
 Frequencies --   1298.6006              1345.4422              1349.5565
 Red. masses --      1.4742                 1.5302                 2.7164
 Frc consts  --      1.4647                 1.6320                 2.9149
 IR Inten    --     86.2931                49.0202               148.9011

                     43                     44                     45
                      A                      A                      A
 Frequencies --   1364.1913              1406.6667              1427.0203
 Red. masses --      3.9464                 1.2258                 1.4128
 Frc consts  --      4.3271                 1.4291                 1.6951
 IR Inten    --     62.5775                24.8540                86.0555

                     46                     47                     48
                      A                      A                      A
 Frequencies --   1444.7073              1467.5657              1499.9265
 Red. masses --      2.2343                 1.2219                 1.5702
 Frc consts  --      2.7476                 1.5506                 2.0814
 IR Inten    --      7.3625                52.0375                26.2767

                     49                     50                     51
                      A                      A                      A
 Frequencies --   1503.7773              1516.7117              1540.0400
 Red. masses --      1.2983                 1.1197                 1.1154
 Frc consts  --      1.7298                 1.5177                 1.5587
 IR Inten    --      5.2163                12.5306                 7.6714

                     52                     53                     54
                      A                      A                      A
 Frequencies --   1567.5496              1640.0072              1677.3582
 Red. masses --      2.5500                 6.6295                 5.9501
 Frc consts  --      3.6918                10.5057                 9.8633
 IR Inten    --    261.6643                 2.0089                 3.5549

                     55                     56                     57
                      A                      A                      A
 Frequencies --   1794.0270              3060.3576              3069.5479
 Red. masses --      7.9983                 1.0553                 1.0394
 Frc consts  --     15.1672                 5.8231                 5.7701
 IR Inten    --    472.3865                81.6097                 3.1973

                     58                     59                     60
                      A                      A                      A
 Frequencies --   3117.9045              3137.7429              3174.1055
 Red. masses --      1.1136                 1.0965                 1.1042
 Frc consts  --      6.3781                 6.3604                 6.5547
 IR Inten    --     32.3237                 8.4190                11.5489

                     61                     62                     63
                      A                      A                      A
 Frequencies --   3194.3909              3218.5650              3220.5871
 Red. masses --      1.0891                 1.0902                 1.0929
 Frc consts  --      6.5479                 6.6541                 6.6791
 IR Inten    --     10.5549                14.3338                 1.3873

                     64                     65                     66
                      A                      A                      A
 Frequencies --   3246.3108              3581.4446              3733.9779
 Red. masses --      1.0928                 1.0753                 1.0656
 Frc consts  --      6.7851                 8.1265                 8.7540
 IR Inten    --      0.3669                22.8235                28.7587

 - Thermochemistry -
 -------------------
 Temperature   298.150 Kelvin.  Pressure   1.00000 Atm.
 Atom     1 has atomic number  6 and mass  12.00000

 Molecular mass:   181.07389 amu.
 Principal axes and moments of inertia in atomic units:
                           1         2         3
     Eigenvalues --   823.964065228.932065822.51996
           X            0.99997  -0.00480  -0.00544
           Y            0.00484   0.99997   0.00680
           Z            0.00541  -0.00683   0.99996
 This molecule is an asymmetric top.
 Rotational symmetry number  1.
 Warning -- assumption of classical behavior for rotation
           may cause significant error
 Rotational temperatures (Kelvin)      0.10512     0.01656     0.01488
 Rotational constants (GHZ):           2.19032     0.34515     0.30996
 Zero-point vibrational energy     508789.7 (Joules/Mol)
                                  121.60366 (Kcal/Mol)
 Warning -- explicit consideration of  18 degrees of freedom as
           vibrations may cause significant error
 Vibrational temperatures:     59.54    63.92    87.25   133.06   211.24
          (Kelvin)            229.50   250.69   374.92   439.36   513.78
                              536.47   566.89   616.45   625.77   728.07
                              740.08   794.53   846.87   897.33   926.34
                              956.78  1038.53  1119.15  1188.67  1197.94
                             1233.64  1340.46  1369.10  1375.25  1489.16
                             1494.68  1497.44  1536.34  1550.50  1588.63
                             1648.27  1738.97  1807.38  1825.40  1868.40
                             1935.79  1941.71  1962.77  2023.88  2053.16
                             2078.61  2111.50  2158.06  2163.60  2182.21
                             2215.77  2255.35  2359.60  2413.34  2581.20
                             4403.17  4416.39  4485.97  4514.51  4566.83
                             4596.02  4630.80  4633.71  4670.72  5152.90
                             5372.36

 Zero-point correction=                           0.193788 (Hartree/Particle)
 Thermal correction to Energy=                    0.206271
 Thermal correction to Enthalpy=                  0.207215
 Thermal correction to Gibbs Free Energy=         0.153718
 Sum of electronic and zero-point Energies=           -629.848551
 Sum of electronic and thermal Energies=              -629.836068
 Sum of electronic and thermal Enthalpies=            -629.835123
 Sum of electronic and thermal Free Energies=         -629.888620

                     E (Thermal)             CV                S
                      KCal/Mol        Cal/Mol-Kelvin    Cal/Mol-Kelvin
 Total                  129.437             46.358            112.594
 Electronic               0.000              0.000              0.000
 Translational            0.889              2.981             41.488
 Rotational               0.889              2.981             31.595
 Vibrational            127.659             40.397             39.511
 Vibration     1          0.594              1.981              5.192
 Vibration     2          0.595              1.980              5.051
 Vibration     3          0.597              1.973              4.436
 Vibration     4          0.602              1.955              3.607
 Vibration     5          0.617              1.906              2.713
 Vibration     6          0.621              1.892              2.556
 Vibration     7          0.627              1.874              2.389
 Vibration     8          0.669              1.745              1.658
 Vibration     9          0.696              1.664              1.387
 Vibration    10          0.732              1.561              1.135
 Vibration    11          0.744              1.528              1.068
 Vibration    12          0.761              1.483              0.985
 Vibration    13          0.790              1.408              0.864
 Vibration    14          0.796              1.394              0.843
 Vibration    15          0.861              1.237              0.643
 Vibration    16          0.869              1.218              0.623
 Vibration    17          0.908              1.135              0.540
 Vibration    18          0.946              1.056              0.470

                           ! Non-Optimized Parameters !
 Normal termination of Gaussian 16 at Wed Dec  9 23:40:36 2020.

 ----------------------------------------------------------------------
 # B3LYP/6-311++G(d,p) empiricaldispersion=gd3bj scf=xqc pop=npa geom=c
 heck
 ----------------------------------------------------------------------

 ---------------------------------------
 CID_134974495_JID_3516_Energie_neutraal
 ---------------------------------------
 Structure from the checkpoint file:  "JID_3516.chk"
 Charge =  0 Multiplicity = 1

 SCF Done:  E(RB3LYP) =  -630.235106153     A.U. after   15 cycles
 Normal termination of Gaussian 16 at Wed Dec  9 23:43:07 2020.

 ----------------------------------------------------------------------
 # B3LYP/6-311++G(d,p) empiricaldispersion=gd3bj scf=xqc pop=npa geom=c
 heck
 ----------------------------------------------------------------------

 -------------------------------------
 CID_134974495_JID_3516_Energie_kation
 -------------------------------------
 Structure from the checkpoint file:  "JID_3516.chk"
 Charge =  1 Multiplicity = 2

 SCF Done:  E(UB3LYP) =  -629.939967998     A.U. after   23 cycles
 Normal termination of Gaussian 16 at Wed Dec  9 23:48:34 2020.
 Gaussian 16:  ES64L-G16RevA.03 25-Dec-2016

 ----------------------------------------------------------------------
 # B3LYP/6-311++G(d,p) empiricaldispersion=gd3bj scf=xqc pop=npa geom=c
 heck
 ----------------------------------------------------------------------

 ------------------------------------
 CID_134974495_JID_3516_Energie_anion
 ------------------------------------
 Structure from the checkpoint file:  "JID_3516.chk"
 Charge = -1 Multiplicity = 2

                         Standard orientation:
 ---------------------------------------------------------------------
 Center     Atomic      Atomic             Coordinates (Angstroms)
 Number     Number       Type             X           Y           Z
 ---------------------------------------------------------------------
      1          6           0        3.004463   -1.558122   -0.742915
      2          6           0        3.452703   -0.307405   -0.010010
      3          8           0        4.630940   -0.073672    0.218750
      4          7           0        2.481476    0.587555    0.396663
      5          6           0        1.076396    0.551354    0.224045
      6          6           0        0.416391    1.686797   -0.267524
      7          6           0       -0.964800    1.696196   -0.410434
      8          6           0       -1.711562    0.557309   -0.090475
      9          6           0       -1.065360   -0.587032    0.386013
     10          6           0        0.318228   -0.572223    0.564958
     11          8           0       -3.070918    0.660717   -0.278215
     12          6           0       -3.911700   -0.264907    0.383243
     13          8           0       -3.896112   -1.545898   -0.183741
     14          1           0        3.837157   -1.886722   -1.366958
     15          1           0        2.113166   -1.397117   -1.354237
     16          1           0        2.783822   -2.357948   -0.027187
     17          1           0        2.881533    1.436967    0.778377
     18          1           0        0.996163    2.564902   -0.538063
     19          1           0       -1.484280    2.575509   -0.776684
     20          1           0       -1.629327   -1.484713    0.605418
     21          1           0        0.809726   -1.446113    0.977763
     22          1           0       -3.600489   -0.393632    1.424928
     23          1           0       -4.905212    0.194947    0.334919
     24          1           0       -4.172430   -1.459940   -1.110673
 ---------------------------------------------------------------------

 SCF Done:  E(UB3LYP) =  -630.224389385     A.U. after   33 cycles
 SCF Done:  E(UB3LYP) =  -630.224389385     a.u. after    1 cycles

 The electronic state is 2-A.
 Alpha  occ. eigenvalues --  -19.05379 -19.02904 -18.99691 -14.25185 -10.18450
 Alpha  occ. eigenvalues --  -10.17023 -10.13379 -10.11787 -10.08243 -10.08181
 Alpha  occ. eigenvalues --  -10.08129 -10.07829 -10.07314  -0.98541  -0.94971
 Alpha  occ. eigenvalues --   -0.91879  -0.84247  -0.75275  -0.66081  -0.65752
 Alpha  occ. eigenvalues --   -0.64375  -0.58869  -0.53315  -0.51653  -0.48261
 Alpha  occ. eigenvalues --   -0.46088  -0.44231  -0.40469  -0.38930  -0.38193
 Alpha  occ. eigenvalues --   -0.36853  -0.35336  -0.34683  -0.33254  -0.32829
 Alpha  occ. eigenvalues --   -0.31572  -0.30810  -0.29818  -0.29470  -0.28184
 Alpha  occ. eigenvalues --   -0.25983  -0.24659  -0.22582  -0.19892  -0.18677
 Alpha  occ. eigenvalues --   -0.17047  -0.16484  -0.12192   0.04496
 Alpha virt. eigenvalues --    0.06615   0.06961   0.07443   0.07999   0.08441
 Alpha virt. eigenvalues --    0.09061   0.09530   0.09989   0.11098   0.11865
 Alpha virt. eigenvalues --    0.12077   0.12638   0.13136   0.14158   0.14780

  Beta  occ. eigenvalues --  -19.05383 -19.02844 -18.99664 -14.25193 -10.18418
  Beta  occ. eigenvalues --  -10.16987 -10.13340 -10.11753 -10.08245 -10.08118
  Beta  occ. eigenvalues --  -10.08112 -10.07831 -10.07248  -0.98498  -0.94920
  Beta  occ. eigenvalues --   -0.91777  -0.84214  -0.75203  -0.65992  -0.65670
  Beta  occ. eigenvalues --   -0.64298  -0.58761  -0.53264  -0.51531  -0.48213
  Beta  occ. eigenvalues --   -0.46008  -0.44183  -0.40390  -0.38834  -0.38144
  Beta  occ. eigenvalues --   -0.36789  -0.35244  -0.34631  -0.33207  -0.32783
  Beta  occ. eigenvalues --   -0.31533  -0.30778  -0.29691  -0.29396  -0.28100
  Beta  occ. eigenvalues --   -0.25919  -0.24545  -0.22522  -0.19822  -0.18604
  Beta  occ. eigenvalues --   -0.17013  -0.16246  -0.12022
  Beta virt. eigenvalues --    0.06684   0.07366   0.07741   0.07817   0.08411
  Beta virt. eigenvalues --    0.08954   0.09636   0.09883   0.10328   0.11435
  Beta virt. eigenvalues --    0.12149   0.12297   0.12752   0.13434   0.14110

 Mulliken charges and spin densities:
               1          2
     1  C   -0.012178  -0.455061
     2  C    0.196971  -0.081686
     3  O   -0.377887   0.022922
     4  N   -0.154022   0.005757
     5  C    0.790271  -1.262131
     6  C   -0.049400   0.041806
     7  C   -0.586778   0.304052
     8  C   -0.297492  -0.244129
     9  C    0.216543   0.252573
    10  C    0.216185  -0.086983
    11  O   -0.201168   0.051205
    12  C    1.083340  -1.301712
    13  O   -0.249077   0.021319
    14  H    0.127949   0.038784
    15  H    0.016683   0.155686
    16  H   -0.210677   0.391267
    17  H    0.287240  -0.002622
    18  H   -0.098733   0.252186
    19  H   -0.271202   0.461066
    20  H    0.025887   0.214099
    21  H   -0.243374   0.406656
    22  H    0.031155   0.134209
    23  H   -0.944936   1.112954
    24  H   -0.295299   0.567783
 Sum of Mulliken charges =  -1.00000   1.00000

 Dipole moment (field-independent basis, Debye):
    X=              5.2709    Y=              2.8062    Z=              1.9254  Tot=              6.2741
 Quadrupole moment (field-independent basis, Debye-Ang):
   XX=           -186.0386   YY=           -107.5693   ZZ=            -98.3681
   XY=             -3.0220   XZ=             -9.9661   YZ=              0.4694

 Summary of Natural Population Analysis:

                                       Natural Population
                Natural  -----------------------------------------------
    Atom  No    Charge         Core      Valence    Rydberg      Total
 -----------------------------------------------------------------------
      C    1   -0.33649      0.99962     2.33173    0.00513     3.33649
      C    2    0.34978      0.99970     1.62946    0.02106     2.65022
      O    3   -0.32475      0.99988     3.31867    0.00621     4.32475
      N    4   -0.31638      0.99965     2.80706    0.00967     3.81638
      C    5    0.05910      0.99946     1.93023    0.01120     2.94090
      C    6   -0.09340      0.99953     2.08518    0.00869     3.09340
      C    7   -0.11597      0.99952     2.10590    0.01054     3.11597
      C    8    0.16150      0.99937     1.82535    0.01378     2.83850
      C    9   -0.12191      0.99951     2.11326    0.00914     3.12191
      C   10   -0.10292      0.99953     2.09417    0.00922     3.10292
      O   11   -0.28385      0.99986     3.27316    0.01083     4.28385
      C   12    0.14351      0.99964     1.83864    0.01821     2.85649
      O   13   -0.36707      0.99990     3.35980    0.00737     4.36707
      H   14    0.11070      0.00000     0.38852    0.00078     0.38930
      H   15    0.11241      0.00000     0.38660    0.00099     0.38759
      H   16    0.11370      0.00000     0.38468    0.00162     0.38630
      H   17    0.19462      0.00000     0.30291    0.00247     0.30538
      H   18    0.09985      0.00000     0.39913    0.00102     0.40015
      H   19    0.10693      0.00000     0.39184    0.00123     0.39307
      H   20    0.11615      0.00000     0.38215    0.00170     0.38385
      H   21    0.10373      0.00000     0.39455    0.00172     0.39627
      H   22    0.07361      0.00000     0.42457    0.00182     0.42639
      H   23    0.07896      0.00000     0.41755    0.00349     0.42104
      H   24    0.23817      0.00000     0.24154    0.02029     0.26183
 =======================================================================
   * Total *   -0.00000     12.99516    34.82666    0.17818    48.00000

 Normal termination of Gaussian 16 at Wed Dec  9 23:56:29 2020.
