 Gaussian 16, Revision A.03,

 -----------------------------------------------------------
 # opt freq B3LYP/6-31G(d) empiricaldispersion=gd3bj scf=xqc
 -----------------------------------------------------------

 ------------------------------
 CID_83864160_JID_1332_neutraal
 ------------------------------
 Symbolic Z-matrix:
 Charge =  0 Multiplicity = 1

 SCF Done:  E(RB3LYP) =  -492.928116840     A.U. after   14 cycles
 SCF Done:  E(RB3LYP) =  -492.934333730     A.U. after   12 cycles
 SCF Done:  E(RB3LYP) =  -492.935762320     A.U. after   12 cycles
 SCF Done:  E(RB3LYP) =  -492.936923800     A.U. after   12 cycles
 SCF Done:  E(RB3LYP) =  -492.937439982     A.U. after   10 cycles
 SCF Done:  E(RB3LYP) =  -492.938367011     A.U. after   12 cycles
 SCF Done:  E(RB3LYP) =  -492.938815285     A.U. after   11 cycles
 SCF Done:  E(RB3LYP) =  -492.939307792     A.U. after   11 cycles
 SCF Done:  E(RB3LYP) =  -492.939694372     A.U. after   12 cycles
 SCF Done:  E(RB3LYP) =  -492.939895166     A.U. after   12 cycles
 SCF Done:  E(RB3LYP) =  -492.945839787     A.U. after    8 cycles
 SCF Done:  E(RB3LYP) =  -492.945840897     A.U. after    8 cycles
 SCF Done:  E(RB3LYP) =  -492.945841351     A.U. after    7 cycles
 SCF Done:  E(RB3LYP) =  -492.945841793     A.U. after    7 cycles
 SCF Done:  E(RB3LYP) =  -492.945842235     A.U. after    7 cycles
 SCF Done:  E(RB3LYP) =  -492.945842476     A.U. after    8 cycles
 Optimization completed.
    -- Stationary point found.

 1\1\GINC-NODE317\FOpt\RB3LYP\6-31G(d)\C7H12N4\VSC10255\08-Dec-2020\0\\
 # opt freq B3LYP/6-31G(d) empiricaldispersion=gd3bj scf=xqc\\CID_83864
 160_JID_1332_neutraal\\0,1\C,-1.0267567056,1.6715308542,-0.5529059109\
 N,-0.2356750355,0.5455915781,-0.1249636146\C,-0.6562324646,-0.56749903
 17,0.5280208668\C,0.4568988569,-1.3710382125,0.7300375351\C,1.52636725
 54,-0.6293155519,0.162843408\N,1.1216868569,0.5355409909,-0.3453048264
 \N,2.8667655362,-0.9738019261,0.1324302253\C,3.3025719759,-2.324307054
 4,0.2991015786\C,2.728819286,-3.4230757288,-0.5699538109\C,4.144652087

 Normal termination of Gaussian 16 at Tue Dec  8 19:50:38 2020.

 --------------------------------------------------------------------
 #N Geom=AllCheck Guess=TCheck SCRF=Check GenChk RB3LYP/6-31G(d) Freq
 --------------------------------------------------------------------

 Structure from the checkpoint file:  "JID_1332.chk"
 ------------------------------
 CID_83864160_JID_1332_neutraal
 ------------------------------
 Charge =  0 Multiplicity = 1

 SCF Done:  E(RB3LYP) =  -492.945842476     A.U. after    1 cycles

  Exact polarizability: 133.457   0.765  95.778  -4.630  -2.785  60.063
 Approx polarizability: 170.022   0.429 152.505 -10.885  -4.230  89.767

                      1                      2                      3
                      A                      A                      A
 Frequencies --     35.9176                57.6642               105.4176
 Red. masses --      3.8111                 2.7614                 1.2492
 Frc consts  --      0.0029                 0.0054                 0.0082
 IR Inten    --      3.1054                 0.1825                 8.2799

                      4                      5                      6
                      A                      A                      A
 Frequencies --    112.9331               143.1447               194.3146
 Red. masses --      2.9486                 2.4784                 1.1172
 Frc consts  --      0.0222                 0.0299                 0.0249
 IR Inten    --      5.8038                 3.1978                33.8800

                      7                      8                      9
                      A                      A                      A
 Frequencies --    210.2225               286.6088               303.7865
 Red. masses --      3.6758                 2.5792                 2.8284
 Frc consts  --      0.0957                 0.1248                 0.1538
 IR Inten    --      4.6008                 2.0639                11.9324

                     10                     11                     12
                      A                      A                      A
 Frequencies --    334.2560               354.7399               390.7902
 Red. masses --      1.8373                 3.7340                 3.8783
 Frc consts  --      0.1209                 0.2769                 0.3490
 IR Inten    --     34.6980                 6.2406                48.1653

                     13                     14                     15
                      A                      A                      A
 Frequencies --    466.7365               543.1543               616.6120
 Red. masses --      2.1619                 3.1926                 4.8484
 Frc consts  --      0.2775                 0.5549                 1.0861
 IR Inten    --      7.3237                 5.2130                16.5976

                     16                     17                     18
                      A                      A                      A
 Frequencies --    659.0045               691.0670               711.8065
 Red. masses --      4.3421                 1.3105                 3.2786
 Frc consts  --      1.1110                 0.3688                 0.9787
 IR Inten    --     25.5551                 8.5359                34.1025

                     19                     20                     21
                      A                      A                      A
 Frequencies --    725.4121               778.8357               814.7995
 Red. masses --      5.3952                 1.2074                 1.4539
 Frc consts  --      1.6727                 0.4315                 0.5687
 IR Inten    --     12.3621                 0.7336               205.4135

                     22                     23                     24
                      A                      A                      A
 Frequencies --    826.9645               845.6921               872.2386
 Red. masses --      2.0996                 1.9110                 2.4509
 Frc consts  --      0.8460                 0.8053                 1.0986
 IR Inten    --     18.4498                 5.8526                 8.0747

                     25                     26                     27
                      A                      A                      A
 Frequencies --    974.4302              1013.3619              1026.2018
 Red. masses --      2.9106                 2.7174                 1.9940
 Frc consts  --      1.6283                 1.6441                 1.2372
 IR Inten    --      4.8946                10.1760                 9.5031

                     28                     29                     30
                      A                      A                      A
 Frequencies --   1061.4216              1079.3097              1082.1523
 Red. masses --      1.4265                 1.8294                 1.4597
 Frc consts  --      0.9469                 1.2556                 1.0071
 IR Inten    --      9.9069                 0.3453                 3.2572

                     31                     32                     33
                      A                      A                      A
 Frequencies --   1129.1761              1141.9731              1161.4326
 Red. masses --      1.5522                 1.1621                 1.2884
 Frc consts  --      1.1660                 0.8929                 1.0240
 IR Inten    --     13.4680                 3.0156                 8.4827

                     34                     35                     36
                      A                      A                      A
 Frequencies --   1206.2539              1209.5760              1221.0251
 Red. masses --      1.5231                 1.7648                 2.4075
 Frc consts  --      1.3057                 1.5213                 2.1148
 IR Inten    --      5.0028                 9.9252                12.1891

                     37                     38                     39
                      A                      A                      A
 Frequencies --   1265.4366              1293.1636              1321.3151
 Red. masses --      1.9670                 1.8739                 4.7236
 Frc consts  --      1.8558                 1.8463                 4.8589
 IR Inten    --      0.4505                11.4128                36.5918

                     40                     41                     42
                      A                      A                      A
 Frequencies --   1387.7909              1423.0345              1464.4635
 Red. masses --      1.8574                 2.0897                 1.2807
 Frc consts  --      2.1077                 2.4933                 1.6183
 IR Inten    --      4.3762               110.9399                 6.3413

                     43                     44                     45
                      A                      A                      A
 Frequencies --   1489.2369              1499.9408              1517.9576
 Red. masses --      1.1054                 1.7877                 1.0875
 Frc consts  --      1.4444                 2.3696                 1.4764
 IR Inten    --      0.5795                20.0726                11.8947

                     46                     47                     48
                      A                      A                      A
 Frequencies --   1528.5122              1538.0153              1554.5980
 Red. masses --      1.3921                 1.2197                 4.5936
 Frc consts  --      1.9162                 1.6999                 6.5410
 IR Inten    --     16.1030                 4.1046                86.0376

                     49                     50                     51
                      A                      A                      A
 Frequencies --   1596.1222              1631.5680              1693.3409
 Red. masses --      4.2270                 4.0836                 1.2354
 Frc consts  --      6.3448                 6.4048                 2.0870
 IR Inten    --     51.7131               374.2632                75.3072

                     52                     53                     54
                      A                      A                      A
 Frequencies --   3037.7807              3109.4708              3117.8909
 Red. masses --      1.0467                 1.0877                 1.0881
 Frc consts  --      5.6908                 6.1964                 6.2322
 IR Inten    --     87.6921                53.6736                17.9645

                     55                     56                     57
                      A                      A                      A
 Frequencies --   3146.7265              3155.7097              3161.5853
 Red. masses --      1.0530                 1.0578                 1.1050
 Frc consts  --      6.1431                 6.2063                 6.5077
 IR Inten    --     19.5692                 8.3825                 6.7021

                     58                     59                     60
                      A                      A                      A
 Frequencies --   3224.9268              3243.7367              3280.7585
 Red. masses --      1.1191                 1.1164                 1.0967
 Frc consts  --      6.8576                 6.9209                 6.9551
 IR Inten    --      6.7243                22.2785                 2.2987

                     61                     62                     63
                      A                      A                      A
 Frequencies --   3496.5329              3603.1002              3607.4933
 Red. masses --      1.0528                 1.0907                 1.0757
 Frc consts  --      7.5837                 8.3429                 8.2478
 IR Inten    --      2.4670                 9.3890                16.9570

 - Thermochemistry -
 -------------------
 Temperature   298.150 Kelvin.  Pressure   1.00000 Atm.
 Atom     1 has atomic number  6 and mass  12.00000

 Molecular mass:   152.10620 amu.
 Principal axes and moments of inertia in atomic units:
                           1         2         3
     Eigenvalues --   665.202422982.541223423.81988
           X            0.99998   0.00610   0.00181
           Y           -0.00606   0.99972  -0.02306
           Z           -0.00195   0.02305   0.99973
 This molecule is an asymmetric top.
 Rotational symmetry number  1.
 Warning -- assumption of classical behavior for rotation
           may cause significant error
 Rotational temperatures (Kelvin)      0.13021     0.02904     0.02530
 Rotational constants (GHZ):           2.71307     0.60510     0.52711
 Zero-point vibrational energy     513070.2 (Joules/Mol)
                                  122.62672 (Kcal/Mol)
 Warning -- explicit consideration of  15 degrees of freedom as
           vibrations may cause significant error
 Vibrational temperatures:     51.68    82.97   151.67   162.49   205.95
          (Kelvin)            279.58   302.46   412.37   437.08   480.92
                              510.39   562.26   671.53   781.48   887.17
                              948.16   994.29  1024.13  1043.71  1120.57
                             1172.31  1189.82  1216.76  1254.96  1401.99
                             1458.00  1476.48  1527.15  1552.89  1556.98
                             1624.63  1643.04  1671.04  1735.53  1740.31
                             1756.78  1820.68  1860.57  1901.08  1996.72
                             2047.43  2107.04  2142.68  2158.08  2184.00
                             2199.19  2212.86  2236.72  2296.46  2347.46
                             2436.34  4370.69  4473.83  4485.95  4527.44
                             4540.36  4548.82  4639.95  4667.01  4720.28
                             5030.73  5184.06  5190.38

 Zero-point correction=                           0.195418 (Hartree/Particle)
 Thermal correction to Energy=                    0.206846
 Thermal correction to Enthalpy=                  0.207790
 Thermal correction to Gibbs Free Energy=         0.157432
 Sum of electronic and zero-point Energies=           -492.750424
 Sum of electronic and thermal Energies=              -492.738996
 Sum of electronic and thermal Enthalpies=            -492.738052
 Sum of electronic and thermal Free Energies=         -492.788411

                     E (Thermal)             CV                S
                      KCal/Mol        Cal/Mol-Kelvin    Cal/Mol-Kelvin
 Total                  129.798             41.926            105.989
 Electronic               0.000              0.000              0.000
 Translational            0.889              2.981             40.968
 Rotational               0.889              2.981             30.297
 Vibrational            128.020             35.964             34.724
 Vibration     1          0.594              1.982              5.472
 Vibration     2          0.596              1.974              4.536
 Vibration     3          0.605              1.945              3.352
 Vibration     4          0.607              1.939              3.218
 Vibration     5          0.616              1.910              2.761
 Vibration     6          0.635              1.848              2.186
 Vibration     7          0.642              1.825              2.042
 Vibration     8          0.684              1.699              1.494
 Vibration     9          0.695              1.667              1.396
 Vibration    10          0.716              1.607              1.239
 Vibration    11          0.731              1.566              1.145
 Vibration    12          0.758              1.490              0.997
 Vibration    13          0.824              1.324              0.747
 Vibration    14          0.898              1.155              0.559
 Vibration    15          0.976              0.997              0.422

                           ! Non-Optimized Parameters !

 1\1\GINC-NODE317\Freq\RB3LYP\6-31G(d)\C7H12N4\VSC10255\08-Dec-2020\0\\
 #N Geom=AllCheck Guess=TCheck SCRF=Check GenChk RB3LYP/6-31G(d) Freq\\
 CID_83864160_JID_1332_neutraal\\0,1\C,-1.0267567056,1.6715308542,-0.55
 29059109\N,-0.2356750355,0.5455915781,-0.1249636146\C,-0.6562324646,-0
 .5674990317,0.5280208668\C,0.4568988569,-1.3710382125,0.7300375351\C,1
 .5263672554,-0.6293155519,0.162843408\N,1.1216868569,0.5355409909,-0.3
 453048264\N,2.8667655362,-0.9738019261,0.1324302253\C,3.3025719759,-2.
 3243070544,0.2991015786\C,2.728819286,-3.4230757288,-0.5699538109\C,4.

 Normal termination of Gaussian 16 at Tue Dec  8 19:54:46 2020.

 ----------------------------------------------------------------------
 # B3LYP/6-311++G(d,p) empiricaldispersion=gd3bj scf=xqc pop=npa geom=c
 heck
 ----------------------------------------------------------------------

 --------------------------------------
 CID_83864160_JID_1332_Energie_neutraal
 --------------------------------------
 Structure from the checkpoint file:  "JID_1332.chk"
 Charge =  0 Multiplicity = 1

 SCF Done:  E(RB3LYP) =  -493.091688627     A.U. after   14 cycles
 Normal termination of Gaussian 16 at Tue Dec  8 19:56:08 2020.

 ----------------------------------------------------------------------
 # B3LYP/6-311++G(d,p) empiricaldispersion=gd3bj scf=xqc pop=npa geom=c
 heck
 ----------------------------------------------------------------------

 ------------------------------------
 CID_83864160_JID_1332_Energie_kation
 ------------------------------------
 Structure from the checkpoint file:  "JID_1332.chk"
 Charge =  1 Multiplicity = 2

 SCF Done:  E(UB3LYP) =  -492.833950664     A.U. after   21 cycles
 Normal termination of Gaussian 16 at Tue Dec  8 19:59:03 2020.
 Gaussian 16:  ES64L-G16RevA.03 25-Dec-2016

 -----------------------------------
 CID_83864160_JID_1332_Energie_anion
 -----------------------------------
 Structure from the checkpoint file:  "JID_1332.chk"
 Charge = -1 Multiplicity = 2

                         Standard orientation:
 ---------------------------------------------------------------------
 Center     Atomic      Atomic             Coordinates (Angstroms)
 Number     Number       Type             X           Y           Z
 ---------------------------------------------------------------------
      1          6           0       -3.153750   -1.191574    0.423521
      2          7           0       -1.902646   -0.551573    0.104427
      3          6           0       -1.670159    0.771197   -0.091678
      4          6           0       -0.319293    0.913721   -0.375221
      5          6           0        0.183316   -0.413602   -0.340270
      6          7           0       -0.766646   -1.308054   -0.063866
      7          7           0        1.479303   -0.829981   -0.591888
      8          6           0        2.588702    0.066955   -0.512463
      9          6           0        2.815010    0.890492    0.737462
     10          6           0        3.724968   -0.267739    0.418409
     11          7           0       -2.697020    1.716016    0.073641
     12          1           0       -3.803184   -0.464463    0.917837
     13          1           0       -3.656798   -1.580889   -0.471699
     14          1           0       -2.954422   -2.024345    1.101418
     15          1           0        0.214858    1.825983   -0.592032
     16          1           0        1.650010   -1.802901   -0.378369
     17          1           0        2.864882    0.541773   -1.455279
     18          1           0        3.200142    1.900076    0.624276
     19          1           0        2.094492    0.765105    1.539179
     20          1           0        3.624804   -1.166274    1.021739
     21          1           0        4.737956   -0.063005    0.083873
     22          1           0       -2.331647    2.659585    0.002049
     23          1           0       -3.444794    1.607804   -0.607747
 ---------------------------------------------------------------------

 SCF Done:  E(UB3LYP) =  -493.078305907     A.U. after   32 cycles

 The electronic state is 2-A.
 Alpha  occ. eigenvalues --  -14.26138 -14.21634 -14.20644 -14.19525 -10.12445
 Alpha  occ. eigenvalues --  -10.11440 -10.11031 -10.09820 -10.08501 -10.07755
 Alpha  occ. eigenvalues --  -10.03946  -0.92861  -0.83856  -0.79751  -0.75141
 Alpha  occ. eigenvalues --   -0.70461  -0.64787  -0.58237  -0.52336  -0.51578
 Alpha  occ. eigenvalues --   -0.47220  -0.46497  -0.42382  -0.40817  -0.39503
 Alpha  occ. eigenvalues --   -0.38413  -0.36516  -0.35602  -0.32305  -0.31598
 Alpha  occ. eigenvalues --   -0.30349  -0.29280  -0.28400  -0.27672  -0.24087
 Alpha  occ. eigenvalues --   -0.20883  -0.20387  -0.18164  -0.17171  -0.10949
 Alpha  occ. eigenvalues --   -0.08644   0.04592
 Alpha virt. eigenvalues --    0.06199   0.07593   0.08529   0.08771   0.09378
 Alpha virt. eigenvalues --    0.10330   0.11044   0.11747   0.12145   0.12297
 Alpha virt. eigenvalues --    0.13460   0.14461   0.14526   0.15698   0.15862

  Beta  occ. eigenvalues --  -14.26135 -14.21632 -14.20553 -14.19520 -10.12440
  Beta  occ. eigenvalues --  -10.11432 -10.11029 -10.09786 -10.08486 -10.07740
  Beta  occ. eigenvalues --  -10.03932  -0.92849  -0.83844  -0.79633  -0.75118
  Beta  occ. eigenvalues --   -0.70441  -0.64731  -0.58194  -0.52309  -0.51537
  Beta  occ. eigenvalues --   -0.47190  -0.46447  -0.42307  -0.40764  -0.39454
  Beta  occ. eigenvalues --   -0.38329  -0.36490  -0.35565  -0.32262  -0.31559
  Beta  occ. eigenvalues --   -0.30323  -0.29253  -0.28371  -0.27650  -0.24064
  Beta  occ. eigenvalues --   -0.20856  -0.20345  -0.18145  -0.17141  -0.10920
  Beta  occ. eigenvalues --   -0.08623
  Beta virt. eigenvalues --    0.06775   0.07583   0.08191   0.08877   0.09401
  Beta virt. eigenvalues --    0.09858   0.10879   0.11882   0.12056   0.12371
  Beta virt. eigenvalues --    0.12567   0.14093   0.14468   0.14611   0.15733

 Mulliken charges and spin densities:
               1          2
     1  C    0.626007  -0.975754
     2  N    0.124333  -0.028487
     3  C    0.944756  -1.326508
     4  C   -0.625817   1.162692
     5  C    1.078228  -1.620654
     6  N   -0.398379   0.131689
     7  N   -0.085625  -0.057696
     8  C   -0.856680   0.811762
     9  C    0.282647  -0.530133
    10  C    0.506611  -1.043312
    11  N   -0.550969   0.177864
    12  H   -0.192620   0.357221
    13  H   -0.234769   0.403928
    14  H   -0.002654   0.153131
    15  H   -0.510231   0.681584
    16  H    0.245339  -0.002664
    17  H   -0.227615   0.459751
    18  H   -0.184369   0.335308
    19  H    0.151957   0.009806
    20  H    0.067174   0.065826
    21  H   -0.118071   0.255207
    22  H   -0.515776   0.788088
    23  H   -0.523476   0.791352
 Sum of Mulliken charges =  -1.00000   1.00000

 Dipole moment (field-independent basis, Debye):
    X=              5.2168    Y=             -5.7146    Z=              1.9083  Tot=              7.9695
 Quadrupole moment (field-independent basis, Debye-Ang):
   XX=           -141.4661   YY=           -109.5826   ZZ=            -91.4280
   XY=              7.0997   XZ=             -2.1992   YZ=              1.8055

 Summary of Natural Population Analysis:

                                       Natural Population
                Natural  -----------------------------------------------
    Atom  No    Charge         Core      Valence    Rydberg      Total
 -----------------------------------------------------------------------
      C    1   -0.17523      0.99964     2.16698    0.00860     3.17523
      N    2   -0.12680      0.99962     2.61402    0.01315     3.62680
      C    3    0.18967      0.99951     1.79668    0.01414     2.81033
      C    4   -0.20681      0.99946     2.19782    0.00953     3.20681
      C    5    0.17901      0.99957     1.80554    0.01588     2.82099
      N    6   -0.20338      0.99969     2.69275    0.01094     3.70338
      N    7   -0.32374      0.99966     2.81347    0.01060     3.82374
      C    8   -0.01704      0.99958     2.00393    0.01352     3.01704
      C    9   -0.20109      0.99962     2.19178    0.00969     3.20109
      C   10   -0.20082      0.99963     2.19336    0.00784     3.20082
      N   11   -0.40847      0.99973     2.89838    0.01036     3.90847
      H   12    0.10690      0.00000     0.39170    0.00140     0.39310
      H   13    0.09378      0.00000     0.40467    0.00155     0.40622
      H   14    0.10078      0.00000     0.39777    0.00146     0.39922
      H   15    0.11175      0.00000     0.38695    0.00131     0.38825
      H   16    0.18753      0.00000     0.30987    0.00261     0.31247
      H   17    0.09438      0.00000     0.40432    0.00130     0.40562
      H   18    0.10390      0.00000     0.39460    0.00150     0.39610
      H   19    0.10834      0.00000     0.39060    0.00106     0.39166
      H   20    0.09991      0.00000     0.39912    0.00097     0.40009
      H   21    0.10285      0.00000     0.39600    0.00115     0.39715
      H   22    0.19223      0.00000     0.30011    0.00767     0.30777
      H   23    0.19238      0.00000     0.29179    0.01583     0.30762
 =======================================================================
   * Total *    0.00000     10.99572    29.84221    0.16207    41.00000

 Normal termination of Gaussian 16 at Tue Dec  8 20:03:47 2020.
