 Gaussian 16, Revision A.03,

 -----------------------------------------------------------
 # opt freq B3LYP/6-31G(d) empiricaldispersion=gd3bj scf=xqc
 -----------------------------------------------------------

 -------------------------------
 CID_151882156_JID_3696_neutraal
 -------------------------------
 Symbolic Z-matrix:
 Charge =  0 Multiplicity = 1

 SCF Done:  E(RB3LYP) =  -605.050924169     A.U. after   15 cycles
 SCF Done:  E(RB3LYP) =  -605.053803239     A.U. after   14 cycles
 SCF Done:  E(RB3LYP) =  -605.055689572     A.U. after   14 cycles
 SCF Done:  E(RB3LYP) =  -605.056687565     A.U. after   12 cycles
 SCF Done:  E(RB3LYP) =  -605.057294426     A.U. after   16 cycles
 SCF Done:  E(RB3LYP) =  -605.058133261     A.U. after   13 cycles
 SCF Done:  E(RB3LYP) =  -605.058433985     A.U. after   12 cycles
 SCF Done:  E(RB3LYP) =  -605.058927405     A.U. after   14 cycles
 SCF Done:  E(RB3LYP) =  -605.059127724     A.U. after   13 cycles
 SCF Done:  E(RB3LYP) =  -605.059279664     A.U. after   13 cycles
 SCF Done:  E(RB3LYP) =  -605.066499435     A.U. after   12 cycles
 SCF Done:  E(RB3LYP) =  -605.066589315     A.U. after   12 cycles
 SCF Done:  E(RB3LYP) =  -605.066599672     A.U. after   11 cycles
 SCF Done:  E(RB3LYP) =  -605.066600767     A.U. after    9 cycles
 SCF Done:  E(RB3LYP) =  -605.066600991     A.U. after    8 cycles
 Optimization completed.
    -- Stationary point found.
 Normal termination of Gaussian 16 at Mon Dec 14 16:40:08 2020.

 --------------------------------------------------------------------
 #N Geom=AllCheck Guess=TCheck SCRF=Check GenChk RB3LYP/6-31G(d) Freq
 --------------------------------------------------------------------

 Structure from the checkpoint file:  "JID_3696.chk"
 -------------------------------
 CID_151882156_JID_3696_neutraal
 -------------------------------
 Charge =  0 Multiplicity = 1

 SCF Done:  E(RB3LYP) =  -605.066600991     A.U. after    1 cycles

  Exact polarizability: 142.865  -0.151 104.029  -1.535  -3.254  86.694
 Approx polarizability: 192.931   2.729 182.869  -4.942 -20.420 168.216

                      1                      2                      3
                      A                      A                      A
 Frequencies --     34.4624                53.0138                60.3649
 Red. masses --      7.8924                 3.3103                 6.9003
 Frc consts  --      0.0055                 0.0055                 0.0148
 IR Inten    --      0.1582                 2.0732                 0.1880

                      4                      5                      6
                      A                      A                      A
 Frequencies --    107.2670               179.5649               199.9188
 Red. masses --      3.7038                 4.6387                 4.0343
 Frc consts  --      0.0251                 0.0881                 0.0950
 IR Inten    --      4.3599                 2.1789                 0.1060

                      7                      8                      9
                      A                      A                      A
 Frequencies --    238.2192               252.2322               282.0751
 Red. masses --      3.3937                 4.2656                 1.6530
 Frc consts  --      0.1135                 0.1599                 0.0775
 IR Inten    --     25.2799                 3.6044                27.6206

                     10                     11                     12
                      A                      A                      A
 Frequencies --    299.5353               349.5664               436.3023
 Red. masses --      2.7430                 3.2990                 4.8896
 Frc consts  --      0.1450                 0.2375                 0.5484
 IR Inten    --     13.8484                20.0193                 5.6859

                     13                     14                     15
                      A                      A                      A
 Frequencies --    457.9075               493.0441               538.3710
 Red. masses --      3.3632                 3.9128                 4.1710
 Frc consts  --      0.4155                 0.5604                 0.7123
 IR Inten    --      8.1581                11.7579                 1.7291

                     16                     17                     18
                      A                      A                      A
 Frequencies --    563.0216               575.4117               613.6208
 Red. masses --      2.7534                 5.1770                 1.6525
 Frc consts  --      0.5142                 1.0099                 0.3666
 IR Inten    --     27.2033                 6.0770                66.8526

                     19                     20                     21
                      A                      A                      A
 Frequencies --    628.2672               681.4825               715.9528
 Red. masses --      4.4254                 5.6739                 4.5375
 Frc consts  --      1.0292                 1.5525                 1.3704
 IR Inten    --      6.3958                14.6479                 2.1729

                     22                     23                     24
                      A                      A                      A
 Frequencies --    753.4104               792.7705               815.5392
 Red. masses --      5.2484                 3.1189                 1.4227
 Frc consts  --      1.7552                 1.1549                 0.5575
 IR Inten    --      4.6637                30.1807                18.9387

                     25                     26                     27
                      A                      A                      A
 Frequencies --    872.8940               893.0548               918.9918
 Red. masses --      1.3222                 4.5738                 1.3274
 Frc consts  --      0.5936                 2.1492                 0.6605
 IR Inten    --     93.5856                36.6932                16.4638

                     28                     29                     30
                      A                      A                      A
 Frequencies --    939.5389               967.3079              1006.5703
 Red. masses --      1.3369                 2.7639                 1.9975
 Frc consts  --      0.6953                 1.5237                 1.1924
 IR Inten    --      1.0479                36.5748                11.3640

                     31                     32                     33
                      A                      A                      A
 Frequencies --   1023.6349              1075.6457              1152.1401
 Red. masses --      2.0130                 2.5566                 1.9292
 Frc consts  --      1.2428                 1.7428                 1.5088
 IR Inten    --      8.8651                 3.8995                 4.1771

                     34                     35                     36
                      A                      A                      A
 Frequencies --   1179.8449              1194.7451              1213.7899
 Red. masses --      1.6448                 1.3009                 1.7932
 Frc consts  --      1.3490                 1.0940                 1.5566
 IR Inten    --     12.7469                10.7980                13.0077

                     37                     38                     39
                      A                      A                      A
 Frequencies --   1233.1882              1274.4680              1296.0257
 Red. masses --      1.4276                 1.7323                 3.0419
 Frc consts  --      1.2791                 1.6578                 3.0104
 IR Inten    --     21.0987                74.5987               105.9206

                     40                     41                     42
                      A                      A                      A
 Frequencies --   1322.9899              1329.2004              1349.8250
 Red. masses --      1.6920                 2.1409                 1.6302
 Frc consts  --      1.7449                 2.2286                 1.7500
 IR Inten    --     24.0099                86.5836                42.1753

                     43                     44                     45
                      A                      A                      A
 Frequencies --   1385.0434              1398.1938              1446.1033
 Red. masses --      1.4697                 2.2991                 1.5186
 Frc consts  --      1.6612                 2.6482                 1.8711
 IR Inten    --     11.9763                74.0094                31.8549

                     46                     47                     48
                      A                      A                      A
 Frequencies --   1501.1789              1519.1004              1531.6967
 Red. masses --      2.7470                 1.1303                 1.1273
 Frc consts  --      3.6473                 1.5368                 1.5583
 IR Inten    --     39.1355                 5.0155                10.1670

                     49                     50                     51
                      A                      A                      A
 Frequencies --   1555.0003              1635.0208              1684.0017
 Red. masses --      2.5964                 6.3357                 3.6860
 Frc consts  --      3.6989                 9.9791                 6.1587
 IR Inten    --     40.3888                46.8607                35.8912

                     52                     53                     54
                      A                      A                      A
 Frequencies --   1694.3691              2266.1507              2962.1467
 Red. masses --      1.2385                13.6255                 1.0731
 Frc consts  --      2.0949                41.2267                 5.5478
 IR Inten    --     48.2919               482.5577                75.4730

                     55                     56                     57
                      A                      A                      A
 Frequencies --   3040.7292              3065.4212              3117.3840
 Red. masses --      1.0876                 1.0611                 1.1053
 Frc consts  --      5.9251                 5.8746                 6.3286
 IR Inten    --     30.5103                32.6885                 7.7710

                     58                     59                     60
                      A                      A                      A
 Frequencies --   3174.1218              3194.3990              3233.9100
 Red. masses --      1.0871                 1.0939                 1.0905
 Frc consts  --      6.4531                 6.5768                 6.7196
 IR Inten    --     11.1586                20.9704                 1.0675

                     61                     62                     63
                      A                      A                      A
 Frequencies --   3471.1960              3560.0378              3610.8948
 Red. masses --      1.0497                 1.0930                 1.0662
 Frc consts  --      7.4522                 8.1614                 8.1906
 IR Inten    --      1.6413                 0.5803               233.0984

 - Thermochemistry -
 -------------------
 Temperature   298.150 Kelvin.  Pressure   1.00000 Atm.
 Atom     1 has atomic number  6 and mass  12.00000

 Molecular mass:   178.08546 amu.
 Principal axes and moments of inertia in atomic units:
                           1         2         3
     Eigenvalues --  1145.759764156.485334342.77966
           X            0.99977  -0.00171  -0.02145
           Y            0.00295   0.99832   0.05789
           Z            0.02131  -0.05794   0.99809
 This molecule is an asymmetric top.
 Rotational symmetry number  1.
 Warning -- assumption of classical behavior for rotation
           may cause significant error
 Rotational temperatures (Kelvin)      0.07560     0.02084     0.01994
 Rotational constants (GHZ):           1.57515     0.43420     0.41557
 Zero-point vibrational energy     480966.2 (Joules/Mol)
                                  114.95369 (Kcal/Mol)
 Warning -- explicit consideration of  18 degrees of freedom as
           vibrations may cause significant error
 Vibrational temperatures:     49.58    76.27    86.85   154.33   258.35
          (Kelvin)            287.64   342.74   362.91   405.84   430.96
                              502.95   627.74   658.83   709.38   774.60
                              810.06   827.89   882.86   903.94   980.50
                             1030.10  1083.99  1140.62  1173.38  1255.90
                             1284.91  1322.22  1351.79  1391.74  1448.23
                             1472.78  1547.61  1657.67  1697.53  1718.97
                             1746.37  1774.28  1833.68  1864.69  1903.49
                             1912.42  1942.10  1992.77  2011.69  2080.62
                             2159.86  2185.65  2203.77  2237.30  2352.43
                             2422.90  2437.82  3260.49  4261.87  4374.93
                             4410.46  4485.22  4566.85  4596.03  4652.88
                             4994.28  5122.10  5195.27

 Zero-point correction=                           0.183190 (Hartree/Particle)
 Thermal correction to Energy=                    0.195243
 Thermal correction to Enthalpy=                  0.196187
 Thermal correction to Gibbs Free Energy=         0.143784
 Sum of electronic and zero-point Energies=           -604.883411
 Sum of electronic and thermal Energies=              -604.871358
 Sum of electronic and thermal Enthalpies=            -604.870414
 Sum of electronic and thermal Free Energies=         -604.922817

                     E (Thermal)             CV                S
                      KCal/Mol        Cal/Mol-Kelvin    Cal/Mol-Kelvin
 Total                  122.517             44.934            110.291
 Electronic               0.000              0.000              0.000
 Translational            0.889              2.981             41.438
 Rotational               0.889              2.981             31.403
 Vibrational            120.739             38.972             37.450
 Vibration     1          0.594              1.983              5.554
 Vibration     2          0.596              1.976              4.702
 Vibration     3          0.597              1.973              4.445
 Vibration     4          0.606              1.943              3.318
 Vibration     5          0.629              1.867              2.333
 Vibration     6          0.638              1.840              2.134
 Vibration     7          0.656              1.782              1.816
 Vibration     8          0.664              1.759              1.715
 Vibration     9          0.681              1.707              1.521
 Vibration    10          0.692              1.675              1.419
 Vibration    11          0.727              1.576              1.168
 Vibration    12          0.797              1.391              0.838
 Vibration    13          0.816              1.343              0.772
 Vibration    14          0.849              1.265              0.676
 Vibration    15          0.893              1.165              0.569
 Vibration    16          0.919              1.111              0.518
 Vibration    17          0.932              1.084              0.494
 Vibration    18          0.973              1.003              0.427

 Optimization completed.
    -- Stationary point found.
 Normal termination of Gaussian 16 at Mon Dec 14 16:45:14 2020.

 ----------------------------------------------------------------------
 # B3LYP/6-311++G(d,p) empiricaldispersion=gd3bj scf=xqc pop=npa geom=c
 heck
 ----------------------------------------------------------------------

 ---------------------------------------
 CID_151882156_JID_3696_Energie_neutraal
 ---------------------------------------
 Structure from the checkpoint file:  "JID_3696.chk"
 Charge =  0 Multiplicity = 1

 SCF Done:  E(RB3LYP) =  -605.246947640     A.U. after   16 cycles
 Normal termination of Gaussian 16 at Mon Dec 14 16:47:29 2020.

 ----------------------------------------------------------------------
 # B3LYP/6-311++G(d,p) empiricaldispersion=gd3bj scf=xqc pop=npa geom=c
 heck
 ----------------------------------------------------------------------

 -------------------------------------
 CID_151882156_JID_3696_Energie_kation
 -------------------------------------
 Structure from the checkpoint file:  "JID_3696.chk"
 Charge =  1 Multiplicity = 2

 SCF Done:  E(UB3LYP) =  -604.945734579     A.U. after   29 cycles
 Normal termination of Gaussian 16 at Mon Dec 14 16:53:23 2020.
 Gaussian 16:  ES64L-G16RevA.03 25-Dec-2016

 ----------------------------------------------------------------------
 # B3LYP/6-311++G(d,p) empiricaldispersion=gd3bj scf=xqc pop=npa geom=c
 heck
 ----------------------------------------------------------------------

 ------------------------------------
 CID_151882156_JID_3696_Energie_anion
 ------------------------------------
 Structure from the checkpoint file:  "JID_3696.chk"
 Charge = -1 Multiplicity = 2

                         Standard orientation:
 ---------------------------------------------------------------------
 Center     Atomic      Atomic             Coordinates (Angstroms)
 Number     Number       Type             X           Y           Z
 ---------------------------------------------------------------------
      1          6           0       -1.358124   -1.612277   -0.105192
      2          6           0        0.003159   -1.660088   -0.393281
      3          6           0        0.726167   -0.495143   -0.659577
      4          6           0        0.055615    0.742358   -0.600378
      5          6           0       -1.310749    0.791253   -0.320894
      6          6           0       -2.026922   -0.382584   -0.080812
      7          6           0       -3.516507   -0.329893    0.192233
      8          7           0       -3.897169    0.900128    0.891059
      9          8           0        0.700557    1.923151   -0.826729
     10          6           0        2.183177   -0.546301   -1.036524
     11          7           0        3.033418    0.382585   -0.220850
     12          7           0        3.121776    0.077764    0.977884
     13          7           0        3.276498   -0.116405    2.089968
     14          1           0       -1.901775   -2.529507    0.104386
     15          1           0        0.518898   -2.617432   -0.416745
     16          1           0       -1.810841    1.751855   -0.275518
     17          1           0       -4.054361   -0.335215   -0.766235
     18          1           0       -3.809077   -1.258889    0.712816
     19          1           0       -4.907494    0.929506    1.011500
     20          1           0       -3.489659    0.902074    1.824903
     21          1           0        1.659020    1.787873   -0.696071
     22          1           0        2.569586   -1.569209   -0.963982
     23          1           0        2.344681   -0.198719   -2.061093
 ---------------------------------------------------------------------

 SCF Done:  E(UB3LYP) =  -605.242897345     A.U. after   33 cycles
 SCF Done:  E(UB3LYP) =  -605.242897346     a.u. after    1 cycles

 The electronic state is 2-A.
 Alpha  occ. eigenvalues --  -19.03670 -14.33271 -14.24074 -14.23348 -14.19420
 Alpha  occ. eigenvalues --  -10.12824 -10.10847 -10.09724 -10.07797 -10.07502
 Alpha  occ. eigenvalues --  -10.07440 -10.06493 -10.05867  -1.00631  -0.94990
 Alpha  occ. eigenvalues --   -0.84976  -0.78901  -0.74916  -0.68006  -0.63778
 Alpha  occ. eigenvalues --   -0.61748  -0.55240  -0.50576  -0.49655  -0.44525
 Alpha  occ. eigenvalues --   -0.40827  -0.40201  -0.39295  -0.38193  -0.37704
 Alpha  occ. eigenvalues --   -0.36009  -0.34054  -0.33045  -0.31934  -0.31562
 Alpha  occ. eigenvalues --   -0.30936  -0.29402  -0.28883  -0.27429  -0.25842
 Alpha  occ. eigenvalues --   -0.23641  -0.22456  -0.18909  -0.15425  -0.14208
 Alpha  occ. eigenvalues --   -0.13476  -0.12039   0.04373
 Alpha virt. eigenvalues --    0.05696   0.07652   0.08012   0.08905   0.09397
 Alpha virt. eigenvalues --    0.09788   0.09989   0.10469   0.11412   0.11786
 Alpha virt. eigenvalues --    0.12191   0.13498   0.13748   0.15010   0.16031

  Beta  occ. eigenvalues --  -19.03653 -14.32948 -14.23628 -14.23415 -14.19380
  Beta  occ. eigenvalues --  -10.12826 -10.10739 -10.09702 -10.07798 -10.07493
  Beta  occ. eigenvalues --  -10.07432 -10.06489 -10.05853  -0.99995  -0.94951
  Beta  occ. eigenvalues --   -0.84657  -0.78835  -0.74882  -0.67906  -0.63754
  Beta  occ. eigenvalues --   -0.61584  -0.55118  -0.50548  -0.49603  -0.44408
  Beta  occ. eigenvalues --   -0.40758  -0.39859  -0.38604  -0.38097  -0.37317
  Beta  occ. eigenvalues --   -0.35815  -0.33944  -0.32681  -0.31499  -0.31288
  Beta  occ. eigenvalues --   -0.30800  -0.29179  -0.28659  -0.27400  -0.25770
  Beta  occ. eigenvalues --   -0.23611  -0.22433  -0.18155  -0.15366  -0.14128
  Beta  occ. eigenvalues --   -0.13397  -0.11991
  Beta virt. eigenvalues --    0.06746   0.07682   0.08150   0.08893   0.09435
  Beta virt. eigenvalues --    0.09593   0.10170   0.10600   0.11169   0.11692
  Beta virt. eigenvalues --    0.12180   0.12457   0.13560   0.14017   0.15017

 Mulliken charges and spin densities:
               1          2
     1  C   -0.486304  -0.247945
     2  C    0.009449  -0.523835
     3  C   -0.034896   1.633587
     4  C   -0.776123   0.166215
     5  C   -0.444662   0.038676
     6  C    0.138707   0.623128
     7  C    1.032543  -1.547022
     8  N   -0.439032   0.087104
     9  O   -0.325761   0.027241
    10  C    1.456282  -2.380395
    11  N   -0.571241   0.426825
    12  N    0.262356   0.020750
    13  N   -0.107919   0.029289
    14  H    0.005405   0.125090
    15  H   -0.018261   0.144835
    16  H    0.202015   0.011918
    17  H   -0.029841   0.190736
    18  H   -0.427569   0.593905
    19  H   -0.230979   0.476067
    20  H    0.081919   0.118381
    21  H    0.138127   0.173026
    22  H   -0.156203   0.319040
    23  H   -0.278013   0.493384
 Sum of Mulliken charges =  -1.00000   1.00000

 Dipole moment (field-independent basis, Debye):
    X=              1.0706    Y=             -1.7499    Z=             -1.3601  Tot=              2.4614
 Quadrupole moment (field-independent basis, Debye-Ang):
   XX=           -154.8915   YY=            -99.1018   ZZ=           -105.8702
   XY=              1.3091   XZ=              2.5704   YZ=              1.2017

 Summary of Natural Population Analysis:

                                       Natural Population
                Natural  -----------------------------------------------
    Atom  No    Charge         Core      Valence    Rydberg      Total
 -----------------------------------------------------------------------
      C    1   -0.11771      0.99952     2.10918    0.00901     3.11771
      C    2   -0.08780      0.99953     2.07924    0.00904     3.08780
      C    3   -0.06539      0.99946     2.05598    0.00995     3.06539
      C    4    0.16950      0.99934     1.81828    0.01288     2.83050
      C    5   -0.12251      0.99947     2.11396    0.00909     3.12251
      C    6   -0.01446      0.99952     2.00472    0.01022     3.01446
      C    7   -0.09394      0.99960     2.08187    0.01247     3.09394
      N    8   -0.42101      0.99978     2.91033    0.01090     3.92101
      O    9   -0.35145      0.99987     3.34501    0.00657     4.35145
      C   10   -0.09426      0.99956     2.08123    0.01347     3.09426
      N   11   -0.23922      0.99972     2.72435    0.01515     3.73922
      N   12    0.14229      0.99970     2.34226    0.01575     3.35771
      N   13    0.00880      0.99982     2.47787    0.01351     3.49120
      H   14    0.09750      0.00000     0.40099    0.00151     0.40250
      H   15    0.09836      0.00000     0.40062    0.00102     0.40164
      H   16    0.11535      0.00000     0.38326    0.00139     0.38465
      H   17    0.09549      0.00000     0.40329    0.00122     0.40451
      H   18    0.08250      0.00000     0.41539    0.00211     0.41750
      H   19    0.17797      0.00000     0.31851    0.00352     0.32203
      H   20    0.17328      0.00000     0.32498    0.00174     0.32672
      H   21    0.24727      0.00000     0.24869    0.00404     0.25273
      H   22    0.09523      0.00000     0.40323    0.00153     0.40477
      H   23    0.10422      0.00000     0.39336    0.00241     0.39578
 =======================================================================
   * Total *    0.00000     12.99487    33.83661    0.16852    47.00000

 Normal termination of Gaussian 16 at Mon Dec 14 17:00:05 2020.
