 Gaussian 16, Revision A.03,

 -----------------------------------------------------------
 # opt freq B3LYP/6-31G(d) empiricaldispersion=gd3bj scf=xqc
 -----------------------------------------------------------

 ------------------------------
 CID_151331122_JID_124_neutraal
 ------------------------------
 Symbolic Z-matrix:
 Charge =  0 Multiplicity = 1

 SCF Done:  E(RB3LYP) =  -548.924296410     A.U. after   14 cycles
 SCF Done:  E(RB3LYP) =  -548.932804472     A.U. after   13 cycles
 SCF Done:  E(RB3LYP) =  -548.933527045     A.U. after   13 cycles
 SCF Done:  E(RB3LYP) =  -548.934101641     A.U. after   13 cycles
 SCF Done:  E(RB3LYP) =  -548.935267525     A.U. after   12 cycles
 SCF Done:  E(RB3LYP) =  -548.934783164     A.U. after   12 cycles
 SCF Done:  E(RB3LYP) =  -548.935476616     A.U. after   11 cycles
 SCF Done:  E(RB3LYP) =  -548.935667324     A.U. after   11 cycles
 SCF Done:  E(RB3LYP) =  -548.935624154     A.U. after   11 cycles
 SCF Done:  E(RB3LYP) =  -548.935675456     A.U. after   10 cycles
 SCF Done:  E(RB3LYP) =  -548.935675919     A.U. after    8 cycles
 SCF Done:  E(RB3LYP) =  -548.935675978     A.U. after    7 cycles
 Optimization completed.
    -- Stationary point found.
 Normal termination of Gaussian 16 at Tue Dec  8 10:17:59 2020.

 --------------------------------------------------------------------
 #N Geom=AllCheck Guess=TCheck SCRF=Check GenChk RB3LYP/6-31G(d) Freq
 --------------------------------------------------------------------

 Structure from the checkpoint file:  "JID_124.chk"
 ------------------------------
 CID_151331122_JID_124_neutraal
 ------------------------------
 Charge =  0 Multiplicity = 1

 SCF Done:  E(RB3LYP) =  -548.935675978     A.U. after    1 cycles

  Exact polarizability:  82.440  -1.306  70.205  -2.651  -0.081  65.580
 Approx polarizability: 108.937  -1.780  99.088 -13.530   1.169 102.464

                      1                      2                      3
                      A                      A                      A
 Frequencies --     74.3296               116.8482               137.2274
 Red. masses --      7.9898                 3.9094                 4.1066
 Frc consts  --      0.0260                 0.0314                 0.0456
 IR Inten    --      1.0253                 4.1834                 2.7033

                      4                      5                      6
                      A                      A                      A
 Frequencies --    187.9664               209.8876               231.3099
 Red. masses --      4.5907                 2.9727                 1.5631
 Frc consts  --      0.0956                 0.0772                 0.0493
 IR Inten    --      0.4276                 3.3333                 0.3541

                      7                      8                      9
                      A                      A                      A
 Frequencies --    262.8729               327.4835               341.9343
 Red. masses --      2.4579                 2.2873                 1.7021
 Frc consts  --      0.1001                 0.1445                 0.1172
 IR Inten    --      1.6046                18.5952                38.4099

                     10                     11                     12
                      A                      A                      A
 Frequencies --    347.2791               367.8252               406.5670
 Red. masses --      3.4436                 2.4976                 1.7445
 Frc consts  --      0.2447                 0.1991                 0.1699
 IR Inten    --     24.1406                23.6629                34.9076

                     13                     14                     15
                      A                      A                      A
 Frequencies --    461.2258               481.7946               516.5331
 Red. masses --      2.2651                 3.0801                 3.2814
 Frc consts  --      0.2839                 0.4212                 0.5158
 IR Inten    --     10.9342                52.9557                16.5622

                     16                     17                     18
                      A                      A                      A
 Frequencies --    549.2817               644.8653               676.4760
 Red. masses --      3.2611                 1.4474                 1.1537
 Frc consts  --      0.5797                 0.3546                 0.3111
 IR Inten    --     22.4691                55.7742               204.1570

                     19                     20                     21
                      A                      A                      A
 Frequencies --    711.4295               752.1867               830.4690
 Red. masses --      2.8034                 3.4986                 4.8776
 Frc consts  --      0.8360                 1.1663                 1.9820
 IR Inten    --      5.3748                55.4843                 1.6908

                     22                     23                     24
                      A                      A                      A
 Frequencies --    877.0690               904.7881               955.6121
 Red. masses --      4.3654                 2.4645                 2.3180
 Frc consts  --      1.9785                 1.1887                 1.2472
 IR Inten    --     53.2746                 5.1186                42.3268

                     25                     26                     27
                      A                      A                      A
 Frequencies --    973.3333              1048.3298              1061.0048
 Red. masses --      2.1389                 3.6109                 1.8712
 Frc consts  --      1.1939                 2.3381                 1.2411
 IR Inten    --     23.1477                21.2664                45.7392

                     28                     29                     30
                      A                      A                      A
 Frequencies --   1122.1996              1164.1855              1173.6063
 Red. masses --      2.0269                 1.7432                 2.1461
 Frc consts  --      1.5039                 1.3920                 1.7416
 IR Inten    --     40.4223                11.0415                32.6132

                     31                     32                     33
                      A                      A                      A
 Frequencies --   1184.9219              1214.5371              1299.5013
 Red. masses --      2.2841                 1.2351                 1.5075
 Frc consts  --      1.8895                 1.0734                 1.4999
 IR Inten    --    253.2132                62.2805                 8.6828

                     34                     35                     36
                      A                      A                      A
 Frequencies --   1310.4627              1345.0882              1361.7071
 Red. masses --      1.2077                 1.4646                 1.2717
 Frc consts  --      1.2219                 1.5613                 1.3893
 IR Inten    --      1.8104                 6.8009                 4.3505

                     37                     38                     39
                      A                      A                      A
 Frequencies --   1380.7171              1407.4157              1434.2547
 Red. masses --      1.4322                 2.1163                 1.3010
 Frc consts  --      1.6087                 2.4698                 1.5768
 IR Inten    --     13.3164                58.1853                11.6964

                     40                     41                     42
                      A                      A                      A
 Frequencies --   1438.2571              1475.3535              1523.9450
 Red. masses --      1.4877                 1.1886                 1.0632
 Frc consts  --      1.8132                 1.5243                 1.4548
 IR Inten    --      2.3045                60.2256                14.7730

                     43                     44                     45
                      A                      A                      A
 Frequencies --   1535.6995              1703.3477              1711.8081
 Red. masses --      1.0518                 1.0691                 1.0861
 Frc consts  --      1.4614                 1.8276                 1.8750
 IR Inten    --      2.8532                48.7382                16.7484

                     46                     47                     48
                      A                      A                      A
 Frequencies --   1804.6432              3056.5082              3097.4879
 Red. masses --      8.3142                 1.0364                 1.0878
 Frc consts  --     15.9534                 5.7047                 6.1491
 IR Inten    --    230.9475                15.9691                10.8632

                     49                     50                     51
                      A                      A                      A
 Frequencies --   3121.2844              3128.5497              3141.9673
 Red. masses --      1.0881                 1.0966                 1.1026
 Frc consts  --      6.2457                 6.3237                 6.4130
 IR Inten    --      4.3495                24.2133                22.5358

                     52                     53                     54
                      A                      A                      A
 Frequencies --   3380.4455              3387.9359              3480.7224
 Red. masses --      1.0532                 1.0524                 1.0900
 Frc consts  --      7.0908                 7.1174                 7.7808
 IR Inten    --     57.8929                 3.3792                10.8796

                     55                     56                     57
                      A                      A                      A
 Frequencies --   3520.3213              3641.6396              3663.0013
 Red. masses --      1.0879                 1.0648                 1.0638
 Frc consts  --      7.9430                 8.3200                 8.4097
 IR Inten    --      0.3295               101.1555                31.9602

 - Thermochemistry -
 -------------------
 Temperature   298.150 Kelvin.  Pressure   1.00000 Atm.
 Atom     1 has atomic number  6 and mass  12.00000

 Molecular mass:   149.08004 amu.
 Principal axes and moments of inertia in atomic units:
                           1         2         3
     Eigenvalues --  1067.872211558.185651893.17334
           X            0.99921  -0.01850   0.03513
           Y            0.01907   0.99969  -0.01588
           Z           -0.03482   0.01654   0.99926
 This molecule is an asymmetric top.
 Rotational symmetry number  1.
 Warning -- assumption of classical behavior for rotation
           may cause significant error
 Rotational temperatures (Kelvin)      0.08111     0.05559     0.04575
 Rotational constants (GHZ):           1.69003     1.15823     0.95329
 Zero-point vibrational energy     464554.5 (Joules/Mol)
                                  111.03119 (Kcal/Mol)
 Warning -- explicit consideration of  16 degrees of freedom as
           vibrations may cause significant error
 Vibrational temperatures:    106.94   168.12   197.44   270.44   301.98
          (Kelvin)            332.80   378.22   471.18   491.97   499.66
                              529.22   584.96   663.60   693.19   743.18
                              790.29   927.82   973.30  1023.59  1082.23
                             1194.86  1261.91  1301.79  1374.91  1400.41
                             1508.31  1526.55  1614.59  1675.00  1688.56
                             1704.84  1747.45  1869.69  1885.46  1935.28
                             1959.19  1986.54  2024.96  2063.57  2069.33
                             2122.70  2192.62  2209.53  2450.74  2462.91
                             2596.48  4397.63  4456.59  4490.83  4501.29
                             4520.59  4863.71  4874.48  5007.98  5064.96
                             5239.51  5270.24

 Zero-point correction=                           0.176939 (Hartree/Particle)
 Thermal correction to Energy=                    0.187663
 Thermal correction to Enthalpy=                  0.188607
 Thermal correction to Gibbs Free Energy=         0.141507
 Sum of electronic and zero-point Energies=           -548.758737
 Sum of electronic and thermal Energies=              -548.748013
 Sum of electronic and thermal Enthalpies=            -548.747069
 Sum of electronic and thermal Free Energies=         -548.794169

                     E (Thermal)             CV                S
                      KCal/Mol        Cal/Mol-Kelvin    Cal/Mol-Kelvin
 Total                  117.760             40.603             99.130
 Electronic               0.000              0.000              0.000
 Translational            0.889              2.981             40.908
 Rotational               0.889              2.981             29.534
 Vibrational            115.983             34.641             28.688
 Vibration     1          0.599              1.966              4.035
 Vibration     2          0.608              1.935              3.152
 Vibration     3          0.614              1.916              2.842
 Vibration     4          0.633              1.856              2.248
 Vibration     5          0.642              1.826              2.045
 Vibration     6          0.653              1.793              1.869
 Vibration     7          0.670              1.741              1.643
 Vibration     8          0.711              1.621              1.272
 Vibration     9          0.721              1.592              1.203
 Vibration    10          0.725              1.581              1.179
 Vibration    11          0.740              1.538              1.089
 Vibration    12          0.771              1.456              0.939
 Vibration    13          0.819              1.336              0.763
 Vibration    14          0.838              1.290              0.705
 Vibration    15          0.872              1.213              0.618
 Vibration    16          0.905              1.141              0.546

 Optimization completed.
    -- Stationary point found.
 Normal termination of Gaussian 16 at Tue Dec  8 10:21:46 2020.

 ----------------------------------------------------------------------
 # B3LYP/6-311++G(d,p) empiricaldispersion=gd3bj scf=xqc pop=npa geom=c
 heck
 ----------------------------------------------------------------------

 --------------------------------------
 CID_151331122_JID_124_Energie_neutraal
 --------------------------------------
 Structure from the checkpoint file:  "JID_124.chk"
 Charge =  0 Multiplicity = 1

 SCF Done:  E(RB3LYP) =  -549.128687232     A.U. after   15 cycles
 Normal termination of Gaussian 16 at Tue Dec  8 10:23:07 2020.

 ----------------------------------------------------------------------
 # B3LYP/6-311++G(d,p) empiricaldispersion=gd3bj scf=xqc pop=npa geom=c
 heck
 ----------------------------------------------------------------------

 ------------------------------------
 CID_151331122_JID_124_Energie_kation
 ------------------------------------
 Structure from the checkpoint file:  "JID_124.chk"
 Charge =  1 Multiplicity = 2

 SCF Done:  E(UB3LYP) =  -548.821544965     A.U. after   23 cycles
 Normal termination of Gaussian 16 at Tue Dec  8 10:25:41 2020.
 Gaussian 16:  ES64L-G16RevA.03 25-Dec-2016

 ----------------------------------------------------------------------
 # B3LYP/6-311++G(d,p) empiricaldispersion=gd3bj scf=xqc pop=npa geom=c
 heck
 ----------------------------------------------------------------------

 -----------------------------------
 CID_151331122_JID_124_Energie_anion
 -----------------------------------
 Structure from the checkpoint file:  "JID_124.chk"
 Charge = -1 Multiplicity = 2

                         Standard orientation:
 ---------------------------------------------------------------------
 Center     Atomic      Atomic             Coordinates (Angstroms)
 Number     Number       Type             X           Y           Z
 ---------------------------------------------------------------------
      1          6           0       -2.498250   -0.040865   -1.057048
      2          6           0       -1.362026   -0.788079   -0.358130
      3          6           0        0.014002   -0.134336   -0.612254
      4          6           0        0.131576    1.209075    0.121254
      5          8           0       -0.627551    1.618099    0.981946
      6          8           0        1.198621    1.927743   -0.278929
      7          7           0        1.102107   -1.064092   -0.265244
      8          7           0        2.302543   -0.658398   -0.906670
      9          7           0        1.289624   -1.014386    1.203164
     10          8           0       -1.629253   -0.949834    1.037242
     11          1           0       -2.578550    0.987597   -0.689846
     12          1           0       -3.445045   -0.550470   -0.856697
     13          1           0       -2.342388   -0.010177   -2.141623
     14          1           0       -1.289443   -1.804008   -0.756711
     15          1           0        0.134673    0.052204   -1.681872
     16          1           0        1.215695    2.724584    0.286421
     17          1           0        2.738081    0.093857   -0.361796
     18          1           0        2.928632   -1.461480   -0.875580
     19          1           0        0.351518   -1.211962    1.571142
     20          1           0        1.824576   -1.862711    1.404903
     21          1           0       -1.644018   -0.042141    1.397911
 ---------------------------------------------------------------------

 SCF Done:  E(UB3LYP) =  -549.113943273     A.U. after   33 cycles
 SCF Done:  E(UB3LYP) =  -549.113943273     a.u. after    1 cycles

 The electronic state is 2-A.
 Alpha  occ. eigenvalues --  -19.06802 -19.02119 -19.01920 -14.25895 -14.20944
 Alpha  occ. eigenvalues --  -14.20931 -10.20904 -10.12602 -10.11196 -10.06245
 Alpha  occ. eigenvalues --   -1.01338  -0.93221  -0.91786  -0.89702  -0.74660
 Alpha  occ. eigenvalues --   -0.70354  -0.63685  -0.56917  -0.53472  -0.48536
 Alpha  occ. eigenvalues --   -0.42612  -0.41512  -0.39998  -0.38851  -0.37354
 Alpha  occ. eigenvalues --   -0.35394  -0.34798  -0.33895  -0.32635  -0.31781
 Alpha  occ. eigenvalues --   -0.29524  -0.27554  -0.27139  -0.23772  -0.23067
 Alpha  occ. eigenvalues --   -0.22392  -0.18660  -0.18219  -0.15702  -0.10793
 Alpha  occ. eigenvalues --    0.04865
 Alpha virt. eigenvalues --    0.07244   0.07333   0.08369   0.09604   0.10258
 Alpha virt. eigenvalues --    0.10431   0.11681   0.12349   0.13478   0.13778
 Alpha virt. eigenvalues --    0.15120   0.16497   0.16751   0.18034   0.18464

  Beta  occ. eigenvalues --  -19.06740 -19.02095 -19.01913 -14.25886 -14.20903
  Beta  occ. eigenvalues --  -14.20890 -10.20875 -10.12592 -10.11183 -10.06216
  Beta  occ. eigenvalues --   -1.01253  -0.93178  -0.91738  -0.89667  -0.74586
  Beta  occ. eigenvalues --   -0.70297  -0.63628  -0.56794  -0.53399  -0.48449
  Beta  occ. eigenvalues --   -0.42548  -0.41455  -0.39944  -0.38795  -0.37314
  Beta  occ. eigenvalues --   -0.35326  -0.34752  -0.33814  -0.32590  -0.31715
  Beta  occ. eigenvalues --   -0.29476  -0.27520  -0.27101  -0.23737  -0.22991
  Beta  occ. eigenvalues --   -0.22341  -0.18603  -0.18202  -0.15659  -0.10731
  Beta virt. eigenvalues --    0.07384   0.08408   0.08551   0.09013   0.10104
  Beta virt. eigenvalues --    0.10771   0.10971   0.11983   0.12705   0.13804
  Beta virt. eigenvalues --    0.14273   0.15314   0.16468   0.16936   0.18348

 Mulliken charges and spin densities:
               1          2
     1  C    1.306130  -1.863314
     2  C   -1.847412   1.570774
     3  C    2.207768  -2.382268
     4  C    0.199830  -0.296054
     5  O   -0.332898   0.027976
     6  O   -0.281655   0.134785
     7  N    0.339986  -0.065136
     8  N   -0.552797   0.024721
     9  N   -0.722121   0.274019
    10  O   -0.256143  -0.006208
    11  H   -0.116979   0.291438
    12  H   -0.104157   0.253326
    13  H   -0.216723   0.351206
    14  H   -0.098064   0.317169
    15  H   -0.027514   0.324717
    16  H   -0.597575   0.889797
    17  H    0.171336   0.053505
    18  H   -0.300238   0.565776
    19  H    0.121849   0.137821
    20  H   -0.181424   0.437207
    21  H    0.288800  -0.041256
 Sum of Mulliken charges =  -1.00000   1.00000

 Dipole moment (field-independent basis, Debye):
    X=             -3.3023    Y=             -0.9468    Z=              0.7901  Tot=              3.5250
 Quadrupole moment (field-independent basis, Debye-Ang):
   XX=           -105.7112   YY=           -104.6992   ZZ=            -90.1878
   XY=              0.3976   XZ=             -1.9454   YZ=             -0.3441

 Summary of Natural Population Analysis:

                                       Natural Population
                Natural  -----------------------------------------------
    Atom  No    Charge         Core      Valence    Rydberg      Total
 -----------------------------------------------------------------------
      C    1   -0.30059      0.99964     2.29493    0.00602     3.30059
      C    2    0.05800      0.99956     1.92690    0.01554     2.94200
      C    3   -0.06897      0.99950     2.05362    0.01586     3.06897
      C    4    0.41658      0.99969     1.55743    0.02630     2.58342
      O    5   -0.32295      0.99986     3.31675    0.00633     4.32295
      O    6   -0.33724      0.99987     3.32859    0.00878     4.33724
      N    7   -0.11439      0.99974     2.59592    0.01873     3.61439
      N    8   -0.32168      0.99976     2.80910    0.01281     3.82168
      N    9   -0.34701      0.99977     2.83524    0.01200     3.84701
      O   10   -0.38317      0.99990     3.37710    0.00617     4.38317
      H   11    0.10337      0.00000     0.39554    0.00109     0.39663
      H   12    0.10351      0.00000     0.39554    0.00096     0.39649
      H   13    0.10216      0.00000     0.39663    0.00121     0.39784
      H   14    0.09358      0.00000     0.40406    0.00237     0.40642
      H   15    0.12628      0.00000     0.37121    0.00251     0.37372
      H   16    0.24517      0.00000     0.23644    0.01840     0.25483
      H   17    0.17124      0.00000     0.32509    0.00366     0.32876
      H   18    0.17520      0.00000     0.32056    0.00423     0.32480
      H   19    0.18434      0.00000     0.31317    0.00249     0.31566
      H   20    0.17539      0.00000     0.32047    0.00415     0.32461
      H   21    0.24118      0.00000     0.25568    0.00314     0.25882
 =======================================================================
   * Total *    0.00000      9.99730    29.82995    0.17275    40.00000

 Normal termination of Gaussian 16 at Tue Dec  8 10:29:16 2020.
