 Gaussian 16, Revision A.03,

 -----------------------------------------------------------
 # opt freq B3LYP/6-31G(d) empiricaldispersion=gd3bj scf=xqc
 -----------------------------------------------------------

 ------------------------------
 CID_58961056_JID_4616_neutraal
 ------------------------------
 Symbolic Z-matrix:
 Charge =  0 Multiplicity = 1

 SCF Done:  E(RB3LYP) =  -656.955140273     A.U. after   14 cycles
 SCF Done:  E(RB3LYP) =  -656.959592856     A.U. after   12 cycles
 SCF Done:  E(RB3LYP) =  -656.958462113     A.U. after   12 cycles
 SCF Done:  E(RB3LYP) =  -656.959705418     A.U. after   12 cycles
 SCF Done:  E(RB3LYP) =  -656.958947936     A.U. after   12 cycles
 SCF Done:  E(RB3LYP) =  -656.959917226     A.U. after   12 cycles
 SCF Done:  E(RB3LYP) =  -656.960403766     A.U. after   12 cycles
 SCF Done:  E(RB3LYP) =  -656.960392339     A.U. after   12 cycles
 SCF Done:  E(RB3LYP) =  -656.960514317     A.U. after   11 cycles
 SCF Done:  E(RB3LYP) =  -656.960562740     A.U. after   10 cycles
 SCF Done:  E(RB3LYP) =  -656.960579093     A.U. after    9 cycles
 SCF Done:  E(RB3LYP) =  -656.960579849     A.U. after    8 cycles
 SCF Done:  E(RB3LYP) =  -656.960580275     A.U. after    8 cycles
 SCF Done:  E(RB3LYP) =  -656.960580426     A.U. after    7 cycles
 SCF Done:  E(RB3LYP) =  -656.960580452     A.U. after    7 cycles
 Optimization completed.
    -- Stationary point found.
 Normal termination of Gaussian 16 at Thu Dec 10 10:19:02 2020.

 --------------------------------------------------------------------
 #N Geom=AllCheck Guess=TCheck SCRF=Check GenChk RB3LYP/6-31G(d) Freq
 --------------------------------------------------------------------

 Structure from the checkpoint file:  "JID_4616.chk"
 ------------------------------
 CID_58961056_JID_4616_neutraal
 ------------------------------
 Charge =  0 Multiplicity = 1

 SCF Done:  E(RB3LYP) =  -656.960580452     A.U. after    1 cycles

  Exact polarizability: 131.279  -1.422 114.882   2.839  -0.782 112.630
 Approx polarizability: 171.784  -2.773 165.950   8.453  -0.990 175.077

                      1                      2                      3
                      A                      A                      A
 Frequencies --     34.4735                47.7130                64.6684
 Red. masses --      9.3738                 4.1743                 3.4462
 Frc consts  --      0.0066                 0.0056                 0.0085
 IR Inten    --      2.8518                 1.7771                 1.1600

                      4                      5                      6
                      A                      A                      A
 Frequencies --    109.1233               111.5867               147.6133
 Red. masses --      2.3231                 2.4521                 3.6292
 Frc consts  --      0.0163                 0.0180                 0.0466
 IR Inten    --      0.0054                 0.2480                 0.0437

                      7                      8                      9
                      A                      A                      A
 Frequencies --    161.3603               186.1791               208.2725
 Red. masses --      3.9880                 2.1984                 1.5504
 Frc consts  --      0.0612                 0.0449                 0.0396
 IR Inten    --      0.4220                 0.3330                 0.3190

                     10                     11                     12
                      A                      A                      A
 Frequencies --    217.9323               232.9852               247.4727
 Red. masses --      1.9651                 1.1860                 1.1977
 Frc consts  --      0.0550                 0.0379                 0.0432
 IR Inten    --      0.5905                 0.2403                 0.1604

                     13                     14                     15
                      A                      A                      A
 Frequencies --    254.4666               276.2266               294.0437
 Red. masses --      1.7178                 1.3076                 1.5270
 Frc consts  --      0.0655                 0.0588                 0.0778
 IR Inten    --      0.1398                 0.1069                 0.2675

                     16                     17                     18
                      A                      A                      A
 Frequencies --    314.6867               323.8310               355.6724
 Red. masses --      2.8972                 1.9975                 2.1977
 Frc consts  --      0.1690                 0.1234                 0.1638
 IR Inten    --      0.4161                 0.6823                 0.7097

                     19                     20                     21
                      A                      A                      A
 Frequencies --    368.2208               379.3621               394.0155
 Red. masses --      2.6880                 3.2391                 2.3729
 Frc consts  --      0.2147                 0.2746                 0.2170
 IR Inten    --      0.6896                 3.7851                 1.1230

                     22                     23                     24
                      A                      A                      A
 Frequencies --    421.5581               458.5090               517.7793
 Red. masses --      3.0631                 4.2312                 3.4730
 Frc consts  --      0.3207                 0.5241                 0.5486
 IR Inten    --      8.5044                 4.2395                 0.9611

                     25                     26                     27
                      A                      A                      A
 Frequencies --    555.9786               599.0040               613.9594
 Red. masses --      2.9488                 3.6405                 2.2435
 Frc consts  --      0.5370                 0.7696                 0.4983
 IR Inten    --      6.4812                39.5841                34.4923

                     28                     29                     30
                      A                      A                      A
 Frequencies --    674.8391               736.4786               765.3613
 Red. masses --      1.8226                 3.9894                 1.7513
 Frc consts  --      0.4890                 1.2749                 0.6044
 IR Inten    --     59.3798                27.9163                 4.2995

                     31                     32                     33
                      A                      A                      A
 Frequencies --    790.0033               820.6933               827.5723
 Red. masses --      2.0833                 2.8213                 1.3593
 Frc consts  --      0.7661                 1.1196                 0.5485
 IR Inten    --     28.9304                 0.2630                11.4015

                     34                     35                     36
                      A                      A                      A
 Frequencies --    885.9113               947.8395               959.5016
 Red. masses --      2.2753                 1.9404                 1.8254
 Frc consts  --      1.0521                 1.0271                 0.9901
 IR Inten    --     18.2403                 3.4474                 2.0767

                     37                     38                     39
                      A                      A                      A
 Frequencies --    963.1552               969.4676               986.0016
 Red. masses --      2.0144                 1.8416                 1.2084
 Frc consts  --      1.1010                 1.0198                 0.6922
 IR Inten    --      2.5434                 4.1843                 0.2877

                     40                     41                     42
                      A                      A                      A
 Frequencies --   1020.6752              1035.4153              1057.3793
 Red. masses --      2.1511                 1.8621                 2.0322
 Frc consts  --      1.3204                 1.1762                 1.3387
 IR Inten    --     83.6902                 3.4042                 1.3711

                     43                     44                     45
                      A                      A                      A
 Frequencies --   1059.3874              1081.4932              1100.1133
 Red. masses --      1.7451                 1.5582                 1.8988
 Frc consts  --      1.1539                 1.0738                 1.3539
 IR Inten    --      6.5740                31.0436                16.4021

                     46                     47                     48
                      A                      A                      A
 Frequencies --   1163.7860              1191.5183              1199.9901
 Red. masses --      2.7094                 2.2639                 2.2364
 Frc consts  --      2.1621                 1.8937                 1.8974
 IR Inten    --     52.7994                51.6851                 6.1227

                     49                     50                     51
                      A                      A                      A
 Frequencies --   1223.2513              1239.9410              1255.6841
 Red. masses --      2.8648                 2.5863                 2.8727
 Frc consts  --      2.5257                 2.3428                 2.6687
 IR Inten    --    160.6412                 3.4739                 1.6069

                     52                     53                     54
                      A                      A                      A
 Frequencies --   1285.4838              1329.1443              1333.7087
 Red. masses --      2.7885                 1.2131                 1.1851
 Frc consts  --      2.7149                 1.2627                 1.2420
 IR Inten    --      2.9201                 5.3729                 0.3909

                     55                     56                     57
                      A                      A                      A
 Frequencies --   1373.8312              1387.3315              1398.6368
 Red. masses --      1.4782                 2.0246                 1.4181
 Frc consts  --      1.6438                 2.2959                 1.6345
 IR Inten    --      8.8845                28.4410                 3.4313

                     58                     59                     60
                      A                      A                      A
 Frequencies --   1425.1730              1431.5283              1444.4013
 Red. masses --      1.2069                 1.2072                 1.2447
 Frc consts  --      1.4443                 1.4576                 1.5300
 IR Inten    --      3.6930                 5.8087                 5.8351

                     61                     62                     63
                      A                      A                      A
 Frequencies --   1447.1167              1460.4129              1508.5184
 Red. masses --      1.2234                 1.2096                 1.0510
 Frc consts  --      1.5094                 1.5200                 1.4091
 IR Inten    --      2.2328                12.1627                 0.1488

                     64                     65                     66
                      A                      A                      A
 Frequencies --   1514.0628              1515.5571              1522.0297
 Red. masses --      1.0463                 1.0602                 1.0491
 Frc consts  --      1.4132                 1.4347                 1.4319
 IR Inten    --      1.1028                 3.2056                 3.1510

                     67                     68                     69
                      A                      A                      A
 Frequencies --   1524.5906              1528.5126              1531.5732
 Red. masses --      1.0632                 1.0502                 1.0498
 Frc consts  --      1.4561                 1.4456                 1.4509
 IR Inten    --     12.5178                 9.4185                 1.1256

                     70                     71                     72
                      A                      A                      A
 Frequencies --   1535.7039              1538.4000              1544.4896
 Red. masses --      1.0476                 1.0439                 1.0501
 Frc consts  --      1.4556                 1.4556                 1.4759
 IR Inten    --      6.1649                 7.4228                11.7335

                     73                     74                     75
                      A                      A                      A
 Frequencies --   1549.4564              1557.1841              1770.5587
 Red. masses --      1.0661                 1.0542                12.2006
 Frc consts  --      1.5080                 1.5061                22.5347
 IR Inten    --      9.9770                10.7742               126.5637

                     76                     77                     78
                      A                      A                      A
 Frequencies --   1816.5805              3053.9858              3056.1973
 Red. masses --      9.8350                 1.0362                 1.0363
 Frc consts  --     19.1220                 5.6941                 5.7031
 IR Inten    --    198.0429                 7.3289                27.5990

                     79                     80                     81
                      A                      A                      A
 Frequencies --   3057.1005              3060.1630              3067.9835
 Red. masses --      1.0362                 1.0383                 1.0393
 Frc consts  --      5.7057                 5.7288                 5.7636
 IR Inten    --     25.9166                11.9291                30.7495

                     82                     83                     84
                      A                      A                      A
 Frequencies --   3096.6889              3100.5087              3115.8161
 Red. masses --      1.0693                 1.0666                 1.1012
 Frc consts  --      6.0414                 6.0413                 6.2987
 IR Inten    --     31.2993                 7.5880                 6.0567

                     85                     86                     87
                      A                      A                      A
 Frequencies --   3118.5278              3121.6905              3125.9977
 Red. masses --      1.1019                 1.0976                 1.1011
 Frc consts  --      6.3137                 6.3021                 6.3393
 IR Inten    --     33.6759                28.1055                13.8089

                     88                     89                     90
                      A                      A                      A
 Frequencies --   3126.9249              3127.7016              3132.5909
 Red. masses --      1.0995                 1.0992                 1.0986
 Frc consts  --      6.3343                 6.3353                 6.3517
 IR Inten    --     39.0315                14.8853                23.1763

                     91                     92                     93
                      A                      A                      A
 Frequencies --   3143.2318              3150.2507              3156.3874
 Red. masses --      1.0975                 1.1029                 1.1008
 Frc consts  --      6.3886                 6.4487                 6.4618
 IR Inten    --     30.1055                16.3206                18.4276

                     94                     95                     96
                      A                      A                      A
 Frequencies --   3157.7864              3168.1317              3672.7844
 Red. masses --      1.1028                 1.0984                 1.0638
 Frc consts  --      6.4788                 6.4957                 8.4550
 IR Inten    --     33.5685                13.8314                54.6205

 - Thermochemistry -
 -------------------
 Temperature   298.150 Kelvin.  Pressure   1.00000 Atm.
 Atom     1 has atomic number  6 and mass  12.00000

 Molecular mass:   200.14124 amu.
 Principal axes and moments of inertia in atomic units:
                           1         2         3
     Eigenvalues --  2057.044733217.271663531.82919
           X            0.99935  -0.03598  -0.00042
           Y            0.03596   0.99909  -0.02296
           Z            0.00125   0.02293   0.99974
 This molecule is an asymmetric top.
 Rotational symmetry number  1.
 Warning -- assumption of classical behavior for rotation
           may cause significant error
 Rotational temperatures (Kelvin)      0.04211     0.02692     0.02452
 Rotational constants (GHZ):           0.87735     0.56095     0.51099
 Zero-point vibrational energy     789156.1 (Joules/Mol)
                                  188.61282 (Kcal/Mol)
 Warning -- explicit consideration of  27 degrees of freedom as
           vibrations may cause significant error
 Vibrational temperatures:     49.60    68.65    93.04   157.00   160.55
          (Kelvin)            212.38   232.16   267.87   299.66   313.56
                              335.21   356.06   366.12   397.43   423.06
                              452.76   465.92   511.73   529.79   545.82
                              566.90   606.53   659.69   744.97   799.93
                              861.83   883.35   970.94  1059.63  1101.18
                             1136.64  1180.79  1190.69  1274.63  1363.73
                             1380.51  1385.77  1394.85  1418.64  1468.52
                             1489.73  1521.33  1524.22  1556.03  1582.82
                             1674.43  1714.33  1726.52  1759.99  1784.00
                             1806.65  1849.52  1912.34  1918.91  1976.64
                             1996.06  2012.33  2050.51  2059.65  2078.17
                             2082.08  2101.21  2170.42  2178.40  2180.55
                             2189.86  2193.55  2199.19  2203.59  2209.54
                             2213.41  2222.18  2229.32  2240.44  2547.44
                             2613.65  4394.00  4397.19  4398.49  4402.89
                             4414.14  4455.44  4460.94  4482.96  4486.87
                             4491.42  4497.61  4498.95  4500.06  4507.10
                             4522.41  4532.51  4541.34  4543.35  4558.23
                             5284.32

 Zero-point correction=                           0.300574 (Hartree/Particle)
 Thermal correction to Energy=                    0.317252
 Thermal correction to Enthalpy=                  0.318196
 Thermal correction to Gibbs Free Energy=         0.257300
 Sum of electronic and zero-point Energies=           -656.660007
 Sum of electronic and thermal Energies=              -656.643329
 Sum of electronic and thermal Enthalpies=            -656.642385
 Sum of electronic and thermal Free Energies=         -656.703280

                     E (Thermal)             CV                S
                      KCal/Mol        Cal/Mol-Kelvin    Cal/Mol-Kelvin
 Total                  199.078             62.310            128.165
 Electronic               0.000              0.000              0.000
 Translational            0.889              2.981             41.786
 Rotational               0.889              2.981             31.525
 Vibrational            197.301             56.349             54.854
 Vibration     1          0.594              1.983              5.554
 Vibration     2          0.595              1.978              4.910
 Vibration     3          0.597              1.971              4.309
 Vibration     4          0.606              1.942              3.284
 Vibration     5          0.607              1.940              3.241
 Vibration     6          0.617              1.905              2.703
 Vibration     7          0.622              1.890              2.534
 Vibration     8          0.632              1.859              2.266
 Vibration     9          0.642              1.828              2.059
 Vibration    10          0.646              1.814              1.976
 Vibration    11          0.654              1.790              1.856
 Vibration    12          0.661              1.767              1.749
 Vibration    13          0.665              1.755              1.699
 Vibration    14          0.678              1.717              1.557
 Vibration    15          0.689              1.685              1.451
 Vibration    16          0.702              1.646              1.338
 Vibration    17          0.708              1.628              1.291
 Vibration    18          0.731              1.564              1.141
 Vibration    19          0.741              1.538              1.087
 Vibration    20          0.749              1.514              1.042
 Vibration    21          0.761              1.483              0.985
 Vibration    22          0.784              1.423              0.887
 Vibration    23          0.817              1.342              0.770
 Vibration    24          0.873              1.211              0.615
 Vibration    25          0.911              1.127              0.532
 Vibration    26          0.957              1.034              0.451
 Vibration    27          0.973              1.002              0.426

 Optimization completed.
    -- Stationary point found.
 Normal termination of Gaussian 16 at Thu Dec 10 10:30:08 2020.

 ----------------------------------------------------------------------
 # B3LYP/6-311++G(d,p) empiricaldispersion=gd3bj scf=xqc pop=npa geom=c
 heck
 ----------------------------------------------------------------------

 --------------------------------------
 CID_58961056_JID_4616_Energie_neutraal
 --------------------------------------
 Structure from the checkpoint file:  "JID_4616.chk"
 Charge =  0 Multiplicity = 1

 SCF Done:  E(RB3LYP) =  -657.158236973     A.U. after   14 cycles
 Normal termination of Gaussian 16 at Thu Dec 10 10:35:09 2020.

 ----------------------------------------------------------------------
 # B3LYP/6-311++G(d,p) empiricaldispersion=gd3bj scf=xqc pop=npa geom=c
 heck
 ----------------------------------------------------------------------

 ------------------------------------
 CID_58961056_JID_4616_Energie_kation
 ------------------------------------
 Structure from the checkpoint file:  "JID_4616.chk"
 Charge =  1 Multiplicity = 2

 SCF Done:  E(UB3LYP) =  -656.829968859     A.U. after   25 cycles
 Normal termination of Gaussian 16 at Thu Dec 10 10:48:30 2020.
 Gaussian 16:  ES64L-G16RevA.03 25-Dec-2016

 ----------------------------------------------------------------------
 # B3LYP/6-311++G(d,p) empiricaldispersion=gd3bj scf=xqc pop=npa geom=c
 heck
 ----------------------------------------------------------------------

 -----------------------------------
 CID_58961056_JID_4616_Energie_anion
 -----------------------------------
 Structure from the checkpoint file:  "JID_4616.chk"
 Charge = -1 Multiplicity = 2

                         Standard orientation:
 ---------------------------------------------------------------------
 Center     Atomic      Atomic             Coordinates (Angstroms)
 Number     Number       Type             X           Y           Z
 ---------------------------------------------------------------------
      1          6           0       -2.379578    0.764913    1.812818
      2          6           0       -0.927070    0.476635    1.413184
      3          6           0       -0.750216    0.091049   -0.079218
      4          6           0       -1.431124    1.109365   -1.027926
      5          6           0       -0.863866    2.526900   -0.924875
      6          6           0        0.719121   -0.122992   -0.616023
      7          8           0        0.797737   -0.352405   -1.808923
      8          6           0        2.016915   -0.051884    0.223186
      9          6           0        2.341726    1.432106    0.509102
     10          6           0        1.939990   -0.848355    1.544592
     11          6           0        3.153548   -0.640711   -0.633793
     12          6           0       -1.350066   -1.313777   -0.219817
     13          8           0       -0.885313   -2.298869    0.316973
     14          8           0       -2.466611   -1.372445   -0.975785
     15          1           0       -2.767830    1.671210    1.338746
     16          1           0       -2.446334    0.903477    2.896998
     17          1           0       -3.044752   -0.063144    1.542928
     18          1           0       -0.312981    1.350854    1.644061
     19          1           0       -0.558504   -0.344766    2.027291
     20          1           0       -1.312979    0.741841   -2.048819
     21          1           0       -2.503850    1.122394   -0.821159
     22          1           0        0.200288    2.552905   -1.181640
     23          1           0       -1.385079    3.191695   -1.621578
     24          1           0       -0.977860    2.949070    0.079692
     25          1           0        1.565136    1.929126    1.096117
     26          1           0        3.277117    1.490788    1.077214
     27          1           0        2.477678    1.991483   -0.422622
     28          1           0        1.418162   -1.799442    1.407912
     29          1           0        2.958530   -1.059271    1.888195
     30          1           0        1.441050   -0.292781    2.340360
     31          1           0        2.977840   -1.700895   -0.840982
     32          1           0        3.240886   -0.125281   -1.592176
     33          1           0        4.101226   -0.546352   -0.092392
     34          1           0       -2.730526   -2.312640   -0.983651
 ---------------------------------------------------------------------

 SCF Done:  E(UB3LYP) =  -657.148326277     A.U. after   33 cycles
 SCF Done:  E(UB3LYP) =  -657.148326277     a.u. after    1 cycles

 The electronic state is 2-A.
 Alpha  occ. eigenvalues --  -19.06195 -19.00201 -18.98240 -10.19402 -10.12896
 Alpha  occ. eigenvalues --  -10.08998 -10.08579 -10.06521 -10.05987 -10.05495
 Alpha  occ. eigenvalues --  -10.05491 -10.05402 -10.05300 -10.05133  -1.00266
 Alpha  occ. eigenvalues --   -0.92423  -0.90973  -0.72111  -0.70736  -0.64346
 Alpha  occ. eigenvalues --   -0.60836  -0.58713  -0.58143  -0.53406  -0.50907
 Alpha  occ. eigenvalues --   -0.50593  -0.46163  -0.40948  -0.38561  -0.38161
 Alpha  occ. eigenvalues --   -0.37576  -0.35497  -0.34268  -0.33810  -0.33391
 Alpha  occ. eigenvalues --   -0.32018  -0.30674  -0.30192  -0.29655  -0.29124
 Alpha  occ. eigenvalues --   -0.28391  -0.26993  -0.26931  -0.26386  -0.26086
 Alpha  occ. eigenvalues --   -0.25625  -0.25398  -0.23893  -0.23109  -0.22562
 Alpha  occ. eigenvalues --   -0.22146  -0.20988  -0.20714  -0.16982  -0.12843
 Alpha  occ. eigenvalues --    0.04597
 Alpha virt. eigenvalues --    0.06784   0.07343   0.07651   0.08280   0.09315
 Alpha virt. eigenvalues --    0.09787   0.09998   0.10631   0.11304   0.11798
 Alpha virt. eigenvalues --    0.11935   0.12760   0.13029   0.13272   0.13651

  Beta  occ. eigenvalues --  -19.06149 -19.00150 -18.98027 -10.19354 -10.12666
  Beta  occ. eigenvalues --  -10.09013 -10.08593 -10.06503 -10.05937 -10.05480
  Beta  occ. eigenvalues --  -10.05463 -10.05382 -10.05296 -10.05104  -1.00164
  Beta  occ. eigenvalues --   -0.92024  -0.90861  -0.72010  -0.70694  -0.64302
  Beta  occ. eigenvalues --   -0.60730  -0.58647  -0.58120  -0.53232  -0.50703
  Beta  occ. eigenvalues --   -0.50425  -0.46077  -0.40748  -0.38484  -0.38099
  Beta  occ. eigenvalues --   -0.37500  -0.35302  -0.34119  -0.33725  -0.33309
  Beta  occ. eigenvalues --   -0.31916  -0.30578  -0.30138  -0.29562  -0.29059
  Beta  occ. eigenvalues --   -0.28337  -0.26906  -0.26883  -0.26317  -0.25946
  Beta  occ. eigenvalues --   -0.25407  -0.25023  -0.23841  -0.23047  -0.22446
  Beta  occ. eigenvalues --   -0.21752  -0.20860  -0.20613  -0.16883  -0.12674
  Beta virt. eigenvalues --    0.06975   0.07681   0.08339   0.08493   0.09111
  Beta virt. eigenvalues --    0.09850   0.09971   0.10166   0.11180   0.11595
  Beta virt. eigenvalues --    0.12015   0.12190   0.12954   0.13020   0.13555

 Mulliken charges and spin densities:
               1          2
     1  C    0.961741  -1.644369
     2  C   -1.310887   0.850835
     3  C    1.558840  -0.367249
     4  C   -0.260479   0.029555
     5  C    0.081214  -0.731019
     6  C   -0.627978  -0.391685
     7  O   -0.195478   0.083280
     8  C    0.131804   1.004377
     9  C    0.637973  -1.299199
    10  C   -0.427313  -0.278899
    11  C   -0.676365   0.088165
    12  C   -0.271766   0.048607
    13  O   -0.267839   0.026700
    14  O   -0.136116   0.065029
    15  H   -0.120453   0.272038
    16  H   -0.338419   0.479541
    17  H   -0.158401   0.334776
    18  H    0.060892   0.079593
    19  H    0.389370  -0.235587
    20  H    0.221460   0.000456
    21  H    0.087325   0.115470
    22  H    0.164455  -0.000476
    23  H   -0.154926   0.297638
    24  H   -0.140163   0.289063
    25  H   -0.253031   0.393104
    26  H   -0.222210   0.379740
    27  H    0.034155   0.117683
    28  H    0.241083  -0.030613
    29  H    0.105989   0.039038
    30  H   -0.132563   0.279261
    31  H    0.119902   0.040357
    32  H    0.155343   0.011405
    33  H    0.098575   0.024408
    34  H   -0.355736   0.628974
 Sum of Mulliken charges =  -1.00000   1.00000

 Dipole moment (field-independent basis, Debye):
    X=              3.1657    Y=             -0.7918    Z=             -0.0250  Tot=              3.2633
 Quadrupole moment (field-independent basis, Debye-Ang):
   XX=           -135.6604   YY=           -131.3547   ZZ=           -123.3289
   XY=             -5.1027   XZ=             -0.2768   YZ=             -8.4080

 Summary of Natural Population Analysis:

                                       Natural Population
                Natural  -----------------------------------------------
    Atom  No    Charge         Core      Valence    Rydberg      Total
 -----------------------------------------------------------------------
      C    1   -0.28618      0.99966     2.28122    0.00531     3.28618
      C    2   -0.19409      0.99960     2.18460    0.00988     3.19409
      C    3   -0.11148      0.99947     2.09561    0.01639     3.11148
      C    4   -0.19401      0.99961     2.18315    0.01125     3.19401
      C    5   -0.28666      0.99966     2.28196    0.00503     3.28666
      C    6    0.34927      0.99959     1.62589    0.02526     2.65073
      O    7   -0.28018      0.99988     3.27379    0.00651     4.28018
      C    8   -0.08802      0.99954     2.07878    0.00971     3.08802
      C    9   -0.27826      0.99963     2.27158    0.00705     3.27826
      C   10   -0.28535      0.99963     2.28010    0.00562     3.28535
      C   11   -0.27925      0.99964     2.27307    0.00653     3.27925
      C   12    0.43028      0.99963     1.54218    0.02790     2.56972
      O   13   -0.31616      0.99986     3.31029    0.00600     4.31616
      O   14   -0.34084      0.99987     3.33400    0.00697     4.34084
      H   15    0.09899      0.00000     0.39981    0.00120     0.40101
      H   16    0.09953      0.00000     0.39964    0.00083     0.40047
      H   17    0.09875      0.00000     0.40003    0.00122     0.40125
      H   18    0.10036      0.00000     0.39808    0.00156     0.39964
      H   19    0.10554      0.00000     0.39282    0.00163     0.39446
      H   20    0.11191      0.00000     0.38669    0.00140     0.38809
      H   21    0.10347      0.00000     0.39507    0.00146     0.39653
      H   22    0.09821      0.00000     0.40079    0.00101     0.40179
      H   23    0.09839      0.00000     0.40091    0.00070     0.40161
      H   24    0.09617      0.00000     0.40272    0.00111     0.40383
      H   25    0.10156      0.00000     0.39726    0.00117     0.39844
      H   26    0.09938      0.00000     0.39953    0.00109     0.40062
      H   27    0.09999      0.00000     0.39904    0.00097     0.40001
      H   28    0.11279      0.00000     0.38630    0.00091     0.38721
      H   29    0.09491      0.00000     0.40431    0.00078     0.40509
      H   30    0.09974      0.00000     0.39923    0.00104     0.40026
      H   31    0.10235      0.00000     0.39689    0.00076     0.39765
      H   32    0.10635      0.00000     0.39277    0.00088     0.39365
      H   33    0.09128      0.00000     0.40791    0.00081     0.40872
      H   34    0.24126      0.00000     0.24911    0.00963     0.25874
 =======================================================================
   * Total *   -0.00000     13.99527    40.82512    0.17961    55.00000

 Normal termination of Gaussian 16 at Thu Dec 10 11:06:44 2020.
