 Gaussian 16, Revision A.03,

 -----------------------------------------------------------
 # opt freq B3LYP/6-31G(d) empiricaldispersion=gd3bj scf=xqc
 -----------------------------------------------------------

 -------------------------------
 CID_131241492_JID_1498_neutraal
 -------------------------------
 Symbolic Z-matrix:
 Charge =  0 Multiplicity = 1

 SCF Done:  E(RB3LYP) =  -1165.02980128     A.U. after   14 cycles
 SCF Done:  E(RB3LYP) =  -1165.03294534     A.U. after   11 cycles
 SCF Done:  E(RB3LYP) =  -1165.03370037     A.U. after   11 cycles
 SCF Done:  E(RB3LYP) =  -1165.03402641     A.U. after   11 cycles
 SCF Done:  E(RB3LYP) =  -1165.03409763     A.U. after   10 cycles
 SCF Done:  E(RB3LYP) =  -1165.03413292     A.U. after   10 cycles
 SCF Done:  E(RB3LYP) =  -1165.03413625     A.U. after    8 cycles
 SCF Done:  E(RB3LYP) =  -1165.03413713     A.U. after    7 cycles
 SCF Done:  E(RB3LYP) =  -1165.03413720     A.U. after    7 cycles
 SCF Done:  E(RB3LYP) =  -1165.03413721     A.U. after    7 cycles
 Optimization completed.
    -- Stationary point found.
 Normal termination of Gaussian 16 at Tue Dec  8 20:09:39 2020.

 --------------------------------------------------------------------
 #N Geom=AllCheck Guess=TCheck SCRF=Check GenChk RB3LYP/6-31G(d) Freq
 --------------------------------------------------------------------

 Structure from the checkpoint file:  "JID_1498.chk"
 -------------------------------
 CID_131241492_JID_1498_neutraal
 -------------------------------
 Charge =  0 Multiplicity = 1

 SCF Done:  E(RB3LYP) =  -1165.03413721     A.U. after    1 cycles

  Exact polarizability: 153.164  11.860 124.130   0.966   1.104  95.673
 Approx polarizability: 192.729  22.770 200.146   4.087  -2.228 153.507

                      1                      2                      3
                      A                      A                      A
 Frequencies --     35.7338                56.5501                79.3812
 Red. masses --      4.8126                 3.7452                 2.3719
 Frc consts  --      0.0036                 0.0071                 0.0088
 IR Inten    --      0.2736                 0.3321                 0.2295

                      4                      5                      6
                      A                      A                      A
 Frequencies --    129.3028               163.6670               168.5435
 Red. masses --      2.0927                 2.6072                 2.6847
 Frc consts  --      0.0206                 0.0411                 0.0449
 IR Inten    --      0.6978                 0.9986                 0.7958

                      7                      8                      9
                      A                      A                      A
 Frequencies --    208.8149               235.9290               246.7778
 Red. masses --      1.6076                 3.1893                 3.2147
 Frc consts  --      0.0413                 0.1046                 0.1153
 IR Inten    --      1.1788                 0.2282                 5.7949

                     10                     11                     12
                      A                      A                      A
 Frequencies --    265.1570               282.8295               372.8589
 Red. masses --      4.6857                 2.7204                 2.8357
 Frc consts  --      0.1941                 0.1282                 0.2323
 IR Inten    --      0.6031                 0.5207                 1.9739

                     13                     14                     15
                      A                      A                      A
 Frequencies --    420.1368               431.4811               477.3262
 Red. masses --      2.2340                 2.1132                 4.0314
 Frc consts  --      0.2323                 0.2318                 0.5412
 IR Inten    --      3.1573                 0.4554                 0.8366

                     16                     17                     18
                      A                      A                      A
 Frequencies --    508.7422               512.3780               579.5852
 Red. masses --      2.2961                 5.6175                 2.3702
 Frc consts  --      0.3501                 0.8689                 0.4691
 IR Inten    --      1.0215                 1.7949                 6.3639

                     19                     20                     21
                      A                      A                      A
 Frequencies --    636.7798               645.8029               750.0475
 Red. masses --      5.4589                 4.3802                 2.1316
 Frc consts  --      1.3042                 1.0763                 0.7065
 IR Inten    --      2.7539                 1.7576                 2.4717

                     22                     23                     24
                      A                      A                      A
 Frequencies --    799.2650               842.5799               910.6250
 Red. masses --      1.7187                 1.8010                 1.9879
 Frc consts  --      0.6469                 0.7533                 0.9712
 IR Inten    --      0.7736                 1.7344                11.5918

                     25                     26                     27
                      A                      A                      A
 Frequencies --    927.4974               960.0380               983.1226
 Red. masses --      2.1192                 1.7243                 1.9439
 Frc consts  --      1.0741                 0.9364                 1.1070
 IR Inten    --     12.9326                 4.9933                11.2181

                     28                     29                     30
                      A                      A                      A
 Frequencies --   1005.4352              1012.8568              1022.3700
 Red. masses --      1.4920                 1.2002                 1.8999
 Frc consts  --      0.8886                 0.7254                 1.1700
 IR Inten    --     11.2937                27.1626                 9.2931

                     31                     32                     33
                      A                      A                      A
 Frequencies --   1059.4850              1072.8217              1079.6390
 Red. masses --      2.5048                 3.3964                 1.5557
 Frc consts  --      1.6566                 2.3031                 1.0684
 IR Inten    --     14.7196                 4.1891                 0.9779

                     34                     35                     36
                      A                      A                      A
 Frequencies --   1129.0796              1138.5924              1188.7395
 Red. masses --      2.0839                 1.9164                 2.3232
 Frc consts  --      1.5652                 1.4637                 1.9342
 IR Inten    --     19.3531                44.2411                12.0574

                     37                     38                     39
                      A                      A                      A
 Frequencies --   1208.8221              1237.2665              1261.5778
 Red. masses --      1.1652                 1.2891                 1.2092
 Frc consts  --      1.0032                 1.1627                 1.1339
 IR Inten    --      4.8245                 0.9132                 6.8293

                     40                     41                     42
                      A                      A                      A
 Frequencies --   1307.5251              1320.3231              1331.8581
 Red. masses --      1.4947                 1.3778                 1.2186
 Frc consts  --      1.5056                 1.4151                 1.2736
 IR Inten    --      3.6457                 7.4595                 7.6883

                     43                     44                     45
                      A                      A                      A
 Frequencies --   1350.1852              1377.7252              1383.8605
 Red. masses --      1.2360                 1.2986                 1.3075
 Frc consts  --      1.3275                 1.4523                 1.4753
 IR Inten    --     10.8655                37.7838                 8.5983

                     46                     47                     48
                      A                      A                      A
 Frequencies --   1397.0382              1411.1357              1437.3175
 Red. masses --      1.2907                 1.3167                 1.2861
 Frc consts  --      1.4842                 1.5448                 1.5654
 IR Inten    --     34.9767                 9.3387                15.2192

                     49                     50                     51
                      A                      A                      A
 Frequencies --   1442.9343              1469.6399              1495.1641
 Red. masses --      1.2675                 1.0989                 1.0936
 Frc consts  --      1.5548                 1.3984                 1.4404
 IR Inten    --      1.6299                 6.2728                 4.8612

                     52                     53                     54
                      A                      A                      A
 Frequencies --   1502.6161              1508.7306              1509.6785
 Red. masses --      1.0911                 1.0742                 1.0463
 Frc consts  --      1.4515                 1.4407                 1.4050
 IR Inten    --      8.3548                 1.0750                 6.4340

                     55                     56                     57
                      A                      A                      A
 Frequencies --   1521.8851              1531.2440              1756.1790
 Red. masses --      1.0540                 1.1069                 5.7780
 Frc consts  --      1.4383                 1.5291                10.4995
 IR Inten    --      9.9387                16.5068                 7.5652

                     58                     59                     60
                      A                      A                      A
 Frequencies --   2977.5990              3023.4183              3033.1251
 Red. masses --      1.0712                 1.0623                 1.0374
 Frc consts  --      5.5957                 5.7215                 5.6232
 IR Inten    --     49.3881                35.2618                38.1594

                     61                     62                     63
                      A                      A                      A
 Frequencies --   3037.9123              3060.5086              3062.4428
 Red. masses --      1.0605                 1.0642                 1.0600
 Frc consts  --      5.7665                 5.8732                 5.8573
 IR Inten    --     26.0910                24.0647                15.9697

                     64                     65                     66
                      A                      A                      A
 Frequencies --   3072.8754              3077.5205              3080.0863
 Red. masses --      1.0975                 1.0984                 1.1001
 Frc consts  --      6.1057                 6.1294                 6.1489
 IR Inten    --      3.2675                22.2619                24.0101

                     67                     68                     69
                      A                      A                      A
 Frequencies --   3080.6995              3115.1935              3118.4469
 Red. masses --      1.0938                 1.0965                 1.1086
 Frc consts  --      6.1161                 6.2692                 6.3521
 IR Inten    --     43.1289                 3.6861                16.9838

                     70                     71                     72
                      A                      A                      A
 Frequencies --   3132.1161              3135.8885              3139.0161
 Red. masses --      1.0934                 1.1029                 1.0873
 Frc consts  --      6.3200                 6.3901                 6.3124
 IR Inten    --      9.0191                 5.1944                56.3157

 - Thermochemistry -
 -------------------
 Temperature   298.150 Kelvin.  Pressure   1.00000 Atm.
 Atom     1 has atomic number  6 and mass  12.00000

 Molecular mass:   189.06459 amu.
 Principal axes and moments of inertia in atomic units:
                           1         2         3
     Eigenvalues --   995.525674599.229555169.80110
           X            0.99995   0.00889  -0.00413
           Y           -0.00874   0.99934   0.03536
           Z            0.00444  -0.03533   0.99937
 This molecule is an asymmetric top.
 Rotational symmetry number  1.
 Warning -- assumption of classical behavior for rotation
           may cause significant error
 Rotational temperatures (Kelvin)      0.08700     0.01883     0.01675
 Rotational constants (GHZ):           1.81285     0.39240     0.34909
 Zero-point vibrational energy     587662.7 (Joules/Mol)
                                  140.45475 (Kcal/Mol)
 Warning -- explicit consideration of  18 degrees of freedom as
           vibrations may cause significant error
 Vibrational temperatures:     51.41    81.36   114.21   186.04   235.48
          (Kelvin)            242.50   300.44   339.45   355.06   381.50
                              406.93   536.46   604.48   620.81   686.77
                              731.97   737.20   833.89   916.18   929.17
                             1079.15  1149.96  1212.28  1310.19  1334.46
                             1381.28  1414.49  1446.60  1457.27  1470.96
                             1524.36  1543.55  1553.36  1624.49  1638.18
                             1710.33  1739.23  1780.15  1815.13  1881.24
                             1899.65  1916.25  1942.62  1982.24  1991.07
                             2010.03  2030.31  2067.98  2076.06  2114.48
                             2151.21  2161.93  2170.73  2172.09  2189.65
                             2203.12  2526.75  4284.10  4350.02  4363.99
                             4370.88  4403.39  4406.17  4421.18  4427.87
                             4431.56  4432.44  4482.07  4486.75  4506.42
                             4511.84  4516.34

 Zero-point correction=                           0.223829 (Hartree/Particle)
 Thermal correction to Energy=                    0.236352
 Thermal correction to Enthalpy=                  0.237296
 Thermal correction to Gibbs Free Energy=         0.184084
 Sum of electronic and zero-point Energies=          -1164.810308
 Sum of electronic and thermal Energies=             -1164.797786
 Sum of electronic and thermal Enthalpies=           -1164.796841
 Sum of electronic and thermal Free Energies=        -1164.850053

                     E (Thermal)             CV                S
                      KCal/Mol        Cal/Mol-Kelvin    Cal/Mol-Kelvin
 Total                  148.313             46.194            111.993
 Electronic               0.000              0.000              0.000
 Translational            0.889              2.981             41.617
 Rotational               0.889              2.981             31.538
 Vibrational            146.535             40.232             38.839
 Vibration     1          0.594              1.982              5.483
 Vibration     2          0.596              1.975              4.574
 Vibration     3          0.600              1.963              3.906
 Vibration     4          0.612              1.924              2.956
 Vibration     5          0.623              1.887              2.507
 Vibration     6          0.625              1.881              2.452
 Vibration     7          0.642              1.827              2.054
 Vibration     8          0.655              1.786              1.833
 Vibration     9          0.661              1.768              1.753
 Vibration    10          0.671              1.737              1.628
 Vibration    11          0.682              1.705              1.516
 Vibration    12          0.744              1.528              1.068
 Vibration    13          0.783              1.426              0.892
 Vibration    14          0.793              1.402              0.854
 Vibration    15          0.834              1.300              0.717
 Vibration    16          0.864              1.231              0.637
 Vibration    17          0.867              1.223              0.628
 Vibration    18          0.936              1.075              0.486

 Optimization completed.
    -- Stationary point found.
 Normal termination of Gaussian 16 at Tue Dec  8 20:15:45 2020.

 ----------------------------------------------------------------------
 # B3LYP/6-311++G(d,p) empiricaldispersion=gd3bj scf=xqc pop=npa geom=c
 heck
 ----------------------------------------------------------------------

 ---------------------------------------
 CID_131241492_JID_1498_Energie_neutraal
 ---------------------------------------
 Structure from the checkpoint file:  "JID_1498.chk"
 Charge =  0 Multiplicity = 1

 SCF Done:  E(RB3LYP) =  -1165.18985953     A.U. after   14 cycles
 Normal termination of Gaussian 16 at Tue Dec  8 20:18:31 2020.

 ----------------------------------------------------------------------
 # B3LYP/6-311++G(d,p) empiricaldispersion=gd3bj scf=xqc pop=npa geom=c
 heck
 ----------------------------------------------------------------------

 -------------------------------------
 CID_131241492_JID_1498_Energie_kation
 -------------------------------------
 Structure from the checkpoint file:  "JID_1498.chk"
 Charge =  1 Multiplicity = 2

 SCF Done:  E(UB3LYP) =  -1164.90651758     A.U. after   25 cycles
 Normal termination of Gaussian 16 at Tue Dec  8 20:25:58 2020.
 Gaussian 16:  ES64L-G16RevA.03 25-Dec-2016

 ----------------------------------------------------------------------
 # B3LYP/6-311++G(d,p) empiricaldispersion=gd3bj scf=xqc pop=npa geom=c
 heck
 ----------------------------------------------------------------------

 ------------------------------------
 CID_131241492_JID_1498_Energie_anion
 ------------------------------------
 Structure from the checkpoint file:  "JID_1498.chk"
 Charge = -1 Multiplicity = 2

                         Standard orientation:
 ---------------------------------------------------------------------
 Center     Atomic      Atomic             Coordinates (Angstroms)
 Number     Number       Type             X           Y           Z
 ---------------------------------------------------------------------
      1          6           0        4.987603    0.426407   -0.582980
      2          6           0        3.809848    0.152120    0.305387
      3          6           0        2.755792   -0.600929   -0.017422
      4          6           0        1.569619   -0.835336    0.884938
      5          7           0        0.295015   -0.318764    0.375159
      6          6           0        0.279959    1.124342    0.157726
      7          6           0       -1.067421    1.770632    0.484094
      8         16           0       -2.484855    1.178574   -0.536951
      9         16           0       -2.896344   -0.654604    0.349489
     10          6           0       -1.605463   -1.792282   -0.330999
     11          6           0       -0.291345   -1.104081   -0.708198
     12          1           0        4.878107   -0.062902   -1.556478
     13          1           0        5.921301    0.071478   -0.126610
     14          1           0        5.112513    1.503853   -0.754995
     15          1           0        3.839341    0.608377    1.297302
     16          1           0        2.713562   -1.058488   -1.007613
     17          1           0        1.430690   -1.909418    1.065045
     18          1           0        1.759222   -0.378002    1.863921
     19          1           0        1.027008    1.572819    0.823333
     20          1           0        0.577883    1.394285   -0.869799
     21          1           0       -1.016165    2.850093    0.294682
     22          1           0       -1.328611    1.608720    1.532808
     23          1           0       -2.006664   -2.322462   -1.201131
     24          1           0       -1.442077   -2.514720    0.476143
     25          1           0       -0.467168   -0.470160   -1.585332
     26          1           0        0.403577   -1.890891   -1.033267
 ---------------------------------------------------------------------

 SCF Done:  E(UB3LYP) =  -1165.17612670     A.U. after   33 cycles
 SCF Done:  E(UB3LYP) =  -1165.17612670     a.u. after    1 cycles

 The electronic state is 2-A.
 Alpha  occ. eigenvalues --  -88.74387 -88.74237 -14.20452 -10.10121 -10.09956
 Alpha  occ. eigenvalues --  -10.09792 -10.09463 -10.09240 -10.07166 -10.06368
 Alpha  occ. eigenvalues --  -10.06096  -7.82923  -7.82760  -5.79371  -5.79228
 Alpha  occ. eigenvalues --   -5.78940  -5.78790  -5.78264  -5.78086  -0.82909
 Alpha  occ. eigenvalues --   -0.71354  -0.69150  -0.68484  -0.63121  -0.58717
 Alpha  occ. eigenvalues --   -0.57440  -0.54303  -0.47421  -0.46372  -0.44768
 Alpha  occ. eigenvalues --   -0.39205  -0.38651  -0.36737  -0.35098  -0.34345
 Alpha  occ. eigenvalues --   -0.32306  -0.31102  -0.30789  -0.29607  -0.28502
 Alpha  occ. eigenvalues --   -0.27736  -0.27105  -0.26376  -0.25210  -0.24874
 Alpha  occ. eigenvalues --   -0.22640  -0.20933  -0.15464  -0.13889  -0.12320
 Alpha  occ. eigenvalues --   -0.11256   0.04642
 Alpha virt. eigenvalues --    0.06416   0.07174   0.07693   0.08423   0.09480
 Alpha virt. eigenvalues --    0.09710   0.09921   0.10220   0.10679   0.11223
 Alpha virt. eigenvalues --    0.11683   0.12210   0.12405   0.13385   0.13829

  Beta  occ. eigenvalues --  -88.74321 -88.74177 -14.20450 -10.10103 -10.09946
  Beta  occ. eigenvalues --  -10.09798 -10.09444 -10.09224 -10.07151 -10.06359
  Beta  occ. eigenvalues --  -10.06048  -7.82853  -7.82698  -5.79227  -5.79098
  Beta  occ. eigenvalues --   -5.78885  -5.78723  -5.78215  -5.78040  -0.82894
  Beta  occ. eigenvalues --   -0.71182  -0.69060  -0.68425  -0.63025  -0.58603
  Beta  occ. eigenvalues --   -0.57299  -0.54229  -0.47347  -0.46179  -0.44689
  Beta  occ. eigenvalues --   -0.39164  -0.38611  -0.36669  -0.35042  -0.34297
  Beta  occ. eigenvalues --   -0.32240  -0.31030  -0.30731  -0.29554  -0.28423
  Beta  occ. eigenvalues --   -0.27620  -0.27055  -0.26298  -0.25132  -0.24808
  Beta  occ. eigenvalues --   -0.22515  -0.20647  -0.15441  -0.13735  -0.12172
  Beta  occ. eigenvalues --   -0.11199
  Beta virt. eigenvalues --    0.06996   0.07386   0.07816   0.08128   0.08920
  Beta virt. eigenvalues --    0.09729   0.10084   0.10241   0.10454   0.11054
  Beta virt. eigenvalues --    0.11350   0.11994   0.12613   0.12704   0.13454

 Mulliken charges and spin densities:
               1          2
     1  C    2.956470  -3.708340
     2  C   -1.823044   1.938905
     3  C    0.484470  -0.252370
     4  C   -0.268037  -0.396169
     5  N    0.190515   0.066435
     6  C   -0.144796  -0.206261
     7  C    0.397023  -0.786131
     8  S    0.125966   0.036319
     9  S   -0.249025   0.143116
    10  C   -0.452494   0.126431
    11  C   -0.152088  -0.341012
    12  H   -0.537849   0.675214
    13  H   -0.304735   0.445705
    14  H   -0.433308   0.587142
    15  H   -0.789198   0.925757
    16  H   -0.159283   0.275638
    17  H   -0.116584   0.265998
    18  H    0.150709   0.023059
    19  H    0.031798   0.120211
    20  H   -0.135227   0.265255
    21  H   -0.202022   0.393331
    22  H    0.176320   0.018034
    23  H    0.134467   0.024858
    24  H    0.191112  -0.021138
    25  H    0.002393   0.159474
    26  H   -0.073551   0.220539
 Sum of Mulliken charges =  -1.00000   1.00000

 Dipole moment (field-independent basis, Debye):
    X=             -6.9423    Y=             -3.4032    Z=              1.6827  Tot=              7.9126
 Quadrupole moment (field-independent basis, Debye-Ang):
   XX=           -187.9706   YY=           -114.9659   ZZ=           -112.1255
   XY=             -4.0055   XZ=              4.2348   YZ=              3.5683

 Summary of Natural Population Analysis:

                                       Natural Population
                Natural  -----------------------------------------------
    Atom  No    Charge         Core      Valence    Rydberg      Total
 -----------------------------------------------------------------------
      C    1   -0.30038      0.99965     2.29462    0.00611     3.30038
      C    2   -0.07995      0.99952     2.07024    0.01019     3.07995
      C    3   -0.11149      0.99949     2.10245    0.00954     3.11149
      C    4   -0.09022      0.99960     2.07802    0.01261     3.09022
      N    5   -0.28918      0.99971     2.77482    0.01465     3.78918
      C    6   -0.08858      0.99958     2.07579    0.01320     3.08858
      C    7   -0.25407      0.99958     2.24233    0.01216     3.25407
      S    8    0.04943      4.99968     2.92926    0.02163     7.95057
      S    9    0.04262      4.99969     2.93763    0.02006     7.95738
      C   10   -0.25206      0.99958     2.24262    0.00986     3.25206
      C   11   -0.09541      0.99959     2.08280    0.01302     3.09541
      H   12    0.10053      0.00000     0.39788    0.00159     0.39947
      H   13    0.10349      0.00000     0.39472    0.00179     0.39651
      H   14    0.10580      0.00000     0.39207    0.00213     0.39420
      H   15    0.08888      0.00000     0.40945    0.00167     0.41112
      H   16    0.09105      0.00000     0.40746    0.00149     0.40895
      H   17    0.09532      0.00000     0.40353    0.00115     0.40468
      H   18    0.09546      0.00000     0.40317    0.00137     0.40454
      H   19    0.10031      0.00000     0.39778    0.00191     0.39969
      H   20    0.08819      0.00000     0.40959    0.00222     0.41181
      H   21    0.10440      0.00000     0.39417    0.00142     0.39560
      H   22    0.10288      0.00000     0.39566    0.00146     0.39712
      H   23    0.09615      0.00000     0.40243    0.00142     0.40385
      H   24    0.10188      0.00000     0.39679    0.00133     0.39812
      H   25    0.09983      0.00000     0.39799    0.00218     0.40017
      H   26    0.09513      0.00000     0.40323    0.00164     0.40487
 =======================================================================
   * Total *   -0.00000     18.99567    31.83651    0.16782    51.00000

 Normal termination of Gaussian 16 at Tue Dec  8 20:37:00 2020.
