 Gaussian 16, Revision A.03,

 ----------------------------------------------------------------------
 # opt=(cartesian,calcfc) freq B3LYP/6-31G(d) empiricaldispersion=gd3bj
  scf=xqc
 ----------------------------------------------------------------------

 ------------------------------
 CID_60852082_JID_9741_neutraal
 ------------------------------
 Symbolic Z-matrix:
 Charge =  0 Multiplicity = 1

 SCF Done:  E(RB3LYP) =  -895.535476595     A.U. after   16 cycles
 SCF Done:  E(RB3LYP) =  -895.536963694     A.U. after   13 cycles
 SCF Done:  E(RB3LYP) =  -895.537481674     A.U. after   14 cycles
 SCF Done:  E(RB3LYP) =  -895.537743101     A.U. after   14 cycles
 SCF Done:  E(RB3LYP) =  -895.537572247     A.U. after   13 cycles
 SCF Done:  E(RB3LYP) =  -895.538028826     A.U. after   13 cycles
 SCF Done:  E(RB3LYP) =  -895.537946122     A.U. after   12 cycles
 SCF Done:  E(RB3LYP) =  -895.538100141     A.U. after   12 cycles
 SCF Done:  E(RB3LYP) =  -895.538090566     A.U. after   12 cycles
 SCF Done:  E(RB3LYP) =  -895.538085425     A.U. after   11 cycles
 SCF Done:  E(RB3LYP) =  -895.538114677     A.U. after   11 cycles
 SCF Done:  E(RB3LYP) =  -895.538114179     A.U. after   11 cycles
 SCF Done:  E(RB3LYP) =  -895.538116199     A.U. after   10 cycles
 SCF Done:  E(RB3LYP) =  -895.538116330     A.U. after    8 cycles
 SCF Done:  E(RB3LYP) =  -895.538116306     A.U. after    8 cycles
 SCF Done:  E(RB3LYP) =  -895.538116419     A.U. after    6 cycles
 Optimization completed.
    -- Stationary point found.
 Normal termination of Gaussian 16 at Mon Jan  4 10:53:52 2021.

 --------------------------------------------------------------------
 #N Geom=AllCheck Guess=TCheck SCRF=Check GenChk RB3LYP/6-31G(d) Freq
 --------------------------------------------------------------------

 Structure from the checkpoint file:  "JID_9741.chk"
 ------------------------------
 CID_60852082_JID_9741_neutraal
 ------------------------------
 Charge =  0 Multiplicity = 1

 SCF Done:  E(RB3LYP) =  -895.538116419     A.U. after    2 cycles

  Exact polarizability: 231.751  18.132 160.770 -16.132  16.922 117.020
 Approx polarizability: 332.341  43.299 273.463 -41.162  46.012 191.514

                      1                      2                      3
                      A                      A                      A
 Frequencies --     32.0054                39.6449                56.0879
 Red. masses --      5.2609                 6.8110                 7.0379
 Frc consts  --      0.0032                 0.0063                 0.0130
 IR Inten    --      1.5435                 2.4891                 1.4948

                      4                      5                      6
                      A                      A                      A
 Frequencies --     63.7463                75.2598                87.0748
 Red. masses --      3.6021                 2.9948                 3.5320
 Frc consts  --      0.0086                 0.0100                 0.0158
 IR Inten    --      0.6016                 1.6500                 0.1459

                      7                      8                      9
                      A                      A                      A
 Frequencies --    132.5220               181.9553               195.3891
 Red. masses --      5.7894                 1.4860                 2.7368
 Frc consts  --      0.0599                 0.0290                 0.0616
 IR Inten    --      1.1548                 1.2306                 0.8013

                     10                     11                     12
                      A                      A                      A
 Frequencies --    207.1949               222.3821               227.1454
 Red. masses --      2.3857                 3.4633                 3.6294
 Frc consts  --      0.0603                 0.1009                 0.1103
 IR Inten    --      0.3366                 1.5922                 0.8063

                     13                     14                     15
                      A                      A                      A
 Frequencies --    252.0985               268.6135               318.8347
 Red. masses --      3.4060                 2.3453                 1.3124
 Frc consts  --      0.1275                 0.0997                 0.0786
 IR Inten    --      1.8727                 1.1568                28.1849

                     16                     17                     18
                      A                      A                      A
 Frequencies --    326.1389               337.3442               371.8419
 Red. masses --      6.5333                 4.5594                 3.1890
 Frc consts  --      0.4094                 0.3057                 0.2598
 IR Inten    --     10.4532                 4.4028                 3.0274

                     19                     20                     21
                      A                      A                      A
 Frequencies --    398.7118               435.2721               459.2174
 Red. masses --      3.9468                 2.4560                 3.9634
 Frc consts  --      0.3697                 0.2742                 0.4924
 IR Inten    --      0.8914                 9.2858                10.7440

                     22                     23                     24
                      A                      A                      A
 Frequencies --    466.8687               506.4812               537.4693
 Red. masses --      3.8298                 4.7367                 5.8182
 Frc consts  --      0.4918                 0.7159                 0.9903
 IR Inten    --      2.5828                 3.5265                 8.9785

                     25                     26                     27
                      A                      A                      A
 Frequencies --    554.7847               574.4743               583.0110
 Red. masses --      3.7399                 1.9361                 5.5982
 Frc consts  --      0.6782                 0.3765                 1.1211
 IR Inten    --      2.6609                 3.8208                 5.8527

                     28                     29                     30
                      A                      A                      A
 Frequencies --    613.4999               638.1697               691.1786
 Red. masses --      1.3006                 4.3876                 5.9962
 Frc consts  --      0.2884                 1.0528                 1.6877
 IR Inten    --     83.5939                22.1846                 1.3653

                     31                     32                     33
                      A                      A                      A
 Frequencies --    725.0527               734.4322               759.1785
 Red. masses --      3.7479                 2.8910                 5.4772
 Frc consts  --      1.1608                 0.9187                 1.8599
 IR Inten    --      5.5362                 6.5002                25.5432

                     34                     35                     36
                      A                      A                      A
 Frequencies --    770.1967               816.0553               817.3606
 Red. masses --      5.5635                 5.6528                 2.0827
 Frc consts  --      1.9445                 2.2180                 0.8198
 IR Inten    --     23.8724                20.2202                22.6011

                     37                     38                     39
                      A                      A                      A
 Frequencies --    862.6364               870.7912               888.4297
 Red. masses --      2.6441                 2.0543                 1.4193
 Frc consts  --      1.1593                 0.9178                 0.6600
 IR Inten    --     21.2440                 2.5512                 7.9573

                     40                     41                     42
                      A                      A                      A
 Frequencies --    899.7877               921.9099               931.5505
 Red. masses --      2.4524                 2.5038                 1.4657
 Frc consts  --      1.1698                 1.2538                 0.7494
 IR Inten    --     29.3183                 7.1425                11.1726

                     43                     44                     45
                      A                      A                      A
 Frequencies --    936.7177               958.2251               964.5520
 Red. masses --      1.5046                 3.1099                 2.6752
 Frc consts  --      0.7778                 1.6824                 1.4664
 IR Inten    --     51.4941                19.8588                 1.4301

                     46                     47                     48
                      A                      A                      A
 Frequencies --   1003.2390              1029.2505              1031.2243
 Red. masses --      2.0544                 1.5110                 1.3145
 Frc consts  --      1.2183                 0.9431                 0.8236
 IR Inten    --     38.6126                 8.0057                12.6728

                     49                     50                     51
                      A                      A                      A
 Frequencies --   1041.0244              1058.2989              1067.0044
 Red. masses --      1.5196                 1.7664                 1.9103
 Frc consts  --      0.9703                 1.1656                 1.2814
 IR Inten    --      0.1371                 7.1643                 1.6152

                     52                     53                     54
                      A                      A                      A
 Frequencies --   1076.1148              1119.8528              1130.6112
 Red. masses --      1.4984                 1.8235                 2.1459
 Frc consts  --      1.0223                 1.3473                 1.6162
 IR Inten    --      4.8471                18.2286               138.9718

                     55                     56                     57
                      A                      A                      A
 Frequencies --   1167.1792              1195.7423              1216.8683
 Red. masses --      2.0499                 1.4623                 1.9763
 Frc consts  --      1.6453                 1.2318                 1.7242
 IR Inten    --      3.0659                 6.1760                28.0218

                     58                     59                     60
                      A                      A                      A
 Frequencies --   1239.8658              1254.3368              1275.0219
 Red. masses --      1.8292                 1.5085                 2.0738
 Frc consts  --      1.6568                 1.3984                 1.9863
 IR Inten    --     18.8940                14.1666                28.6988

                     61                     62                     63
                      A                      A                      A
 Frequencies --   1295.7327              1309.7514              1328.4628
 Red. masses --      1.5137                 1.6789                 1.3754
 Frc consts  --      1.4973                 1.6969                 1.4301
 IR Inten    --     35.7474               141.3582                31.2627

                     64                     65                     66
                      A                      A                      A
 Frequencies --   1331.2188              1352.7195              1355.9398
 Red. masses --      1.5661                 1.3545                 1.5915
 Frc consts  --      1.6352                 1.4603                 1.7240
 IR Inten    --     33.6881               125.5342                53.3915

                     67                     68                     69
                      A                      A                      A
 Frequencies --   1372.6309              1375.7955              1393.8399
 Red. masses --      1.9041                 4.2848                 4.7328
 Frc consts  --      2.1137                 4.7785                 5.4174
 IR Inten    --     65.3310                84.5585               445.2458

                     70                     71                     72
                      A                      A                      A
 Frequencies --   1406.6793              1445.8152              1465.7316
 Red. masses --      2.9264                 1.2690                 3.5416
 Frc consts  --      3.4117                 1.5629                 4.4829
 IR Inten    --     20.4753                 2.7084                 4.9138

                     73                     74                     75
                      A                      A                      A
 Frequencies --   1486.2287              1512.1952              1514.8836
 Red. masses --      1.6722                 1.0927                 1.0629
 Frc consts  --      2.1763                 1.4722                 1.4371
 IR Inten    --     16.9225                 2.7825                 8.2059

                     76                     77                     78
                      A                      A                      A
 Frequencies --   1515.7752              1526.8470              1533.8550
 Red. masses --      1.0777                 1.0859                 1.1534
 Frc consts  --      1.4588                 1.4915                 1.5987
 IR Inten    --      2.0680                 6.1482                 3.3182

                     79                     80                     81
                      A                      A                      A
 Frequencies --   1543.8263              1554.1094              1615.2921
 Red. masses --      1.1086                 2.6292                 8.8938
 Frc consts  --      1.5568                 3.7415                13.6722
 IR Inten    --      0.8649               128.4515               112.6471

                     82                     83                     84
                      A                      A                      A
 Frequencies --   1651.1211              1675.4413              1686.3811
 Red. masses --      6.7255                 7.3830                 1.1079
 Frc consts  --     10.8026                12.2107                 1.8564
 IR Inten    --    135.0860                52.7008                53.8598

                     85                     86                     87
                      A                      A                      A
 Frequencies --   1768.6291              3032.7900              3034.3734
 Red. masses --      7.3415                 1.0461                 1.0716
 Frc consts  --     13.5304                 5.6692                 5.8133
 IR Inten    --    354.6225                21.8483                30.6873

                     88                     89                     90
                      A                      A                      A
 Frequencies --   3059.6328              3073.6140              3090.1562
 Red. masses --      1.0646                 1.0636                 1.0926
 Frc consts  --      5.8716                 5.9203                 6.1473
 IR Inten    --     28.7816                15.0586                13.8126

                     91                     92                     93
                      A                      A                      A
 Frequencies --   3092.8211              3106.6282              3111.3834
 Red. masses --      1.0640                 1.0937                 1.0977
 Frc consts  --      5.9966                 6.2193                 6.2610
 IR Inten    --     29.3675                21.9322                37.8349

                     94                     95                     96
                      A                      A                      A
 Frequencies --   3125.7208              3137.8636              3143.1316
 Red. masses --      1.1031                 1.1055                 1.0996
 Frc consts  --      6.3499                 6.4133                 6.4003
 IR Inten    --     23.2090                21.5782                11.8638

                     97                     98                     99
                      A                      A                      A
 Frequencies --   3196.1849              3243.6105              3252.5320
 Red. masses --      1.0942                 1.0910                 1.0920
 Frc consts  --      6.5856                 6.7626                 6.8065
 IR Inten    --     52.7254                 0.6232                 1.0893

                    100                    101                    102
                      A                      A                      A
 Frequencies --   3454.2926              3542.7572              3567.0784
 Red. masses --      1.0493                 1.0927                 1.0746
 Frc consts  --      7.3765                 8.0803                 8.0562
 IR Inten    --      0.1690                 0.4974                25.1389

 - Thermochemistry -
 -------------------
 Temperature   298.150 Kelvin.  Pressure   1.00000 Atm.
 Atom     1 has atomic number  6 and mass  12.00000

 Molecular mass:   263.12699 amu.
 Principal axes and moments of inertia in atomic units:
                           1         2         3
     Eigenvalues --  2575.947638858.338189993.82669
           X            0.99965  -0.02630   0.00354
           Y            0.02622   0.99939   0.02311
           Z           -0.00414  -0.02301   0.99973
 This molecule is an asymmetric top.
 Rotational symmetry number  1.
 Warning -- assumption of classical behavior for rotation
           may cause significant error
 Rotational temperatures (Kelvin)      0.03362     0.00978     0.00867
 Rotational constants (GHZ):           0.70061     0.20373     0.18059
 Zero-point vibrational energy     782958.3 (Joules/Mol)
                                  187.13152 (Kcal/Mol)
 Warning -- explicit consideration of  28 degrees of freedom as
           vibrations may cause significant error
 Vibrational temperatures:     46.05    57.04    80.70    91.72   108.28
          (Kelvin)            125.28   190.67   261.79   281.12   298.11
                              319.96   326.81   362.71   386.47   458.73
                              469.24   485.36   535.00   573.66   626.26
                              660.71   671.72   728.71   773.30   798.21
                              826.54   838.82   882.69   918.18   994.45
                             1043.19  1056.68  1092.29  1108.14  1174.12
                             1176.00  1241.14  1252.87  1278.25  1294.59
                             1326.42  1340.29  1347.73  1378.67  1387.78
                             1443.44  1480.86  1483.70  1497.80  1522.66
                             1535.18  1548.29  1611.22  1626.70  1679.31
                             1720.41  1750.80  1783.89  1804.71  1834.47
                             1864.27  1884.44  1911.36  1915.33  1946.26
                             1950.89  1974.91  1979.46  2005.42  2023.90
                             2080.21  2108.86  2138.35  2175.71  2179.58
                             2180.86  2196.79  2206.88  2221.22  2236.02
                             2324.05  2375.60  2410.59  2426.33  2544.66
                             4363.51  4365.79  4402.13  4422.25  4446.05
                             4449.88  4469.75  4476.59  4497.22  4514.69
                             4522.27  4598.60  4666.83  4679.67  4969.96
                             5097.24  5132.23

 Zero-point correction=                           0.298213 (Hartree/Particle)
 Thermal correction to Energy=                    0.315765
 Thermal correction to Enthalpy=                  0.316709
 Thermal correction to Gibbs Free Energy=         0.251814
 Sum of electronic and zero-point Energies=           -895.239903
 Sum of electronic and thermal Energies=              -895.222351
 Sum of electronic and thermal Enthalpies=            -895.221407
 Sum of electronic and thermal Free Energies=         -895.286303

                     E (Thermal)             CV                S
                      KCal/Mol        Cal/Mol-Kelvin    Cal/Mol-Kelvin
 Total                  198.146             67.483            136.585
 Electronic               0.000              0.000              0.000
 Translational            0.889              2.981             42.602
 Rotational               0.889              2.981             33.788
 Vibrational            196.368             61.521             60.194
 Vibration     1          0.594              1.983              5.701
 Vibration     2          0.594              1.981              5.277
 Vibration     3          0.596              1.975              4.590
 Vibration     4          0.597              1.972              4.338
 Vibration     5          0.599              1.966              4.011
 Vibration     6          0.601              1.958              3.725
 Vibration     7          0.613              1.921              2.909
 Vibration     8          0.630              1.864              2.308
 Vibration     9          0.636              1.846              2.176
 Vibration    10          0.641              1.830              2.068
 Vibration    11          0.648              1.807              1.940
 Vibration    12          0.651              1.800              1.901
 Vibration    13          0.664              1.759              1.716
 Vibration    14          0.673              1.731              1.605
 Vibration    15          0.705              1.638              1.316
 Vibration    16          0.710              1.623              1.279
 Vibration    17          0.718              1.601              1.225
 Vibration    18          0.744              1.530              1.072
 Vibration    19          0.765              1.473              0.967
 Vibration    20          0.796              1.393              0.842
 Vibration    21          0.817              1.341              0.768
 Vibration    22          0.824              1.324              0.746
 Vibration    23          0.862              1.236              0.642
 Vibration    24          0.892              1.167              0.571
 Vibration    25          0.910              1.129              0.534
 Vibration    26          0.931              1.086              0.496
 Vibration    27          0.940              1.068              0.480
 Vibration    28          0.973              1.003              0.427

 Optimization completed.
    -- Stationary point found.
 Normal termination of Gaussian 16 at Mon Jan  4 11:10:22 2021.

 ----------------------------------------------------------------------
 # B3LYP/6-311++G(d,p) empiricaldispersion=gd3bj scf=xqc pop=npa geom=c
 heck
 ----------------------------------------------------------------------

 --------------------------------------
 CID_60852082_JID_9741_Energie_neutraal
 --------------------------------------
 Structure from the checkpoint file:  "JID_9741.chk"
 Charge =  0 Multiplicity = 1

 SCF Done:  E(RB3LYP) =  -895.795816147     A.U. after   16 cycles
 Normal termination of Gaussian 16 at Mon Jan  4 11:17:11 2021.

 ----------------------------------------------------------------------
 # B3LYP/6-311++G(d,p) empiricaldispersion=gd3bj scf=xqc pop=npa geom=c
 heck
 ----------------------------------------------------------------------

 ------------------------------------
 CID_60852082_JID_9741_Energie_kation
 ------------------------------------
 Structure from the checkpoint file:  "JID_9741.chk"
 Charge =  1 Multiplicity = 2

 SCF Done:  E(UB3LYP) =  -895.481841517     A.U. after   27 cycles
 Normal termination of Gaussian 16 at Mon Jan  4 11:32:19 2021.
 Gaussian 16:  ES64L-G16RevA.03 25-Dec-2016

 ----------------------------------------------------------------------
 # B3LYP/6-311++G(d,p) empiricaldispersion=gd3bj scf=xqc pop=npa geom=c
 heck
 ----------------------------------------------------------------------

 -----------------------------------
 CID_60852082_JID_9741_Energie_anion
 -----------------------------------
 Structure from the checkpoint file:  "JID_9741.chk"
 Charge = -1 Multiplicity = 2

                         Standard orientation:
 ---------------------------------------------------------------------
 Center     Atomic      Atomic             Coordinates (Angstroms)
 Number     Number       Type             X           Y           Z
 ---------------------------------------------------------------------
      1          6           0       -1.208453    2.872949    1.069485
      2          6           0       -1.460931    1.552204    0.388852
      3          6           0       -0.445573    0.919593   -0.366533
      4          6           0       -0.687784   -0.302941   -1.008370
      5          6           0       -1.919475   -0.928879   -0.874775
      6          6           0       -2.911550   -0.307721   -0.120711
      7          6           0       -2.696275    0.920746    0.499469
      8          7           0       -4.214897   -0.956894    0.023230
      9          8           0       -4.373981   -2.050907   -0.520982
     10          8           0       -5.078856   -0.373816    0.681203
     11          7           0        0.784692    1.591934   -0.492613
     12          6           0        2.105891    1.183400   -0.596411
     13          8           0        2.945039    2.023275   -0.893436
     14          6           0        2.528435   -0.268082   -0.308222
     15          6           0        1.776764   -0.982796    0.860744
     16          6           0        2.866431   -1.623977    1.757777
     17          6           0        4.145763   -1.604661    0.905858
     18          6           0        4.013586   -0.284481    0.143174
     19          7           0        2.307415   -1.016222   -1.567609
     20          1           0       -0.306184    2.835406    1.691066
     21          1           0       -1.067951    3.688306    0.345765
     22          1           0       -2.052811    3.148856    1.705910
     23          1           0        0.107319   -0.747638   -1.598565
     24          1           0       -2.127481   -1.874814   -1.358352
     25          1           0       -3.497171    1.366646    1.076318
     26          1           0        0.730888    2.601218   -0.578460
     27          1           0        1.158742   -0.282585    1.427897
     28          1           0        1.096279   -1.733559    0.451878
     29          1           0        2.587563   -2.625576    2.099014
     30          1           0        3.020545   -1.010405    2.653182
     31          1           0        4.157433   -2.453928    0.208598
     32          1           0        5.061615   -1.666955    1.501404
     33          1           0        4.695126   -0.172882   -0.704475
     34          1           0        4.203239    0.555983    0.820055
     35          1           0        2.921700   -0.634750   -2.287650
     36          1           0        2.592077   -1.985611   -1.430936
 ---------------------------------------------------------------------

 SCF Done:  E(UB3LYP) =  -895.835071971     A.U. after   22 cycles

 The electronic state is 2-A.
 Alpha  occ. eigenvalues --  -18.98745 -18.94783 -18.94778 -14.32664 -14.23785
 Alpha  occ. eigenvalues --  -14.21742 -10.16868 -10.12941 -10.09228 -10.08877
 Alpha  occ. eigenvalues --  -10.08232 -10.08150 -10.07897 -10.07063 -10.06201
 Alpha  occ. eigenvalues --  -10.06074 -10.04052 -10.03974 -10.03812  -1.02756
 Alpha  occ. eigenvalues --   -0.94360  -0.85597  -0.82706  -0.81729  -0.73617
 Alpha  occ. eigenvalues --   -0.73066  -0.66444  -0.63498  -0.63201  -0.62411
 Alpha  occ. eigenvalues --   -0.57846  -0.55368  -0.52184  -0.50102  -0.48197
 Alpha  occ. eigenvalues --   -0.45400  -0.44063  -0.41951  -0.40852  -0.40078
 Alpha  occ. eigenvalues --   -0.38594  -0.37567  -0.37068  -0.35125  -0.34791
 Alpha  occ. eigenvalues --   -0.34097  -0.33635  -0.32302  -0.31763  -0.31269
 Alpha  occ. eigenvalues --   -0.29679  -0.29383  -0.28764  -0.28197  -0.27226
 Alpha  occ. eigenvalues --   -0.26555  -0.26433  -0.26113  -0.25517  -0.24695
 Alpha  occ. eigenvalues --   -0.23819  -0.22284  -0.18673  -0.16664  -0.15853
 Alpha  occ. eigenvalues --   -0.14119  -0.12699  -0.12552  -0.10916  -0.10438
 Alpha  occ. eigenvalues --    0.02266
 Alpha virt. eigenvalues --    0.05579   0.07133   0.07744   0.08278   0.08981
 Alpha virt. eigenvalues --    0.09261   0.10316   0.10750   0.10899   0.11165
 Alpha virt. eigenvalues --    0.11497   0.12191   0.12592   0.12894   0.13635

  Beta  occ. eigenvalues --  -18.98621 -18.94334 -18.94322 -14.32104 -14.23851
  Beta  occ. eigenvalues --  -14.21727 -10.16759 -10.12948 -10.09228 -10.08878
  Beta  occ. eigenvalues --  -10.08231 -10.07894 -10.07852 -10.07061 -10.06266
  Beta  occ. eigenvalues --  -10.05969 -10.04110 -10.03843 -10.03687  -1.01789
  Beta  occ. eigenvalues --   -0.94148  -0.84741  -0.82580  -0.81689  -0.73608
  Beta  occ. eigenvalues --   -0.72841  -0.66267  -0.63194  -0.63076  -0.62353
  Beta  occ. eigenvalues --   -0.57638  -0.54730  -0.51893  -0.50084  -0.48102
  Beta  occ. eigenvalues --   -0.45186  -0.43824  -0.41801  -0.40767  -0.40056
  Beta  occ. eigenvalues --   -0.38579  -0.37451  -0.36482  -0.34657  -0.34049
  Beta  occ. eigenvalues --   -0.33472  -0.32542  -0.31934  -0.31477  -0.30909
  Beta  occ. eigenvalues --   -0.29531  -0.29184  -0.28667  -0.28092  -0.27148
  Beta  occ. eigenvalues --   -0.26494  -0.26362  -0.26082  -0.25420  -0.24677
  Beta  occ. eigenvalues --   -0.23187  -0.22130  -0.18156  -0.16551  -0.15769
  Beta  occ. eigenvalues --   -0.12536  -0.12102  -0.10529  -0.10092  -0.09796
  Beta virt. eigenvalues --    0.05559   0.07110   0.07677   0.08136   0.08254
  Beta virt. eigenvalues --    0.08985   0.10217   0.10569   0.10788   0.11166
  Beta virt. eigenvalues --    0.11448   0.11671   0.12367   0.12613   0.12873

 Mulliken charges and spin densities:
               1          2
     1  C   -0.531188   0.012877
     2  C    0.358790  -0.033664
     3  C   -0.243245   0.153267
     4  C   -0.216165  -0.029130
     5  C    0.125717   0.166235
     6  C   -0.707548  -0.024163
     7  C   -0.178116   0.144969
     8  N   -0.252284   0.181974
     9  O   -0.170881   0.176447
    10  O   -0.179431   0.173985
    11  N   -0.208118  -0.031584
    12  C   -0.312778   0.046151
    13  O   -0.310767   0.043212
    14  C    0.497345   0.001424
    15  C   -0.491159  -0.008637
    16  C   -0.526118  -0.000799
    17  C   -0.277750  -0.003214
    18  C   -0.318881   0.005125
    19  N   -0.290679  -0.002405
    20  H    0.157197   0.001810
    21  H    0.133002  -0.003824
    22  H    0.142932  -0.000562
    23  H    0.349768   0.008147
    24  H    0.225438  -0.008145
    25  H    0.232267  -0.009121
    26  H    0.318447   0.011601
    27  H    0.157640  -0.000618
    28  H    0.155540   0.014757
    29  H    0.151916  -0.000037
    30  H    0.130588   0.000124
    31  H    0.091093   0.001933
    32  H    0.174683   0.001683
    33  H    0.168014  -0.001227
    34  H    0.187532   0.001176
    35  H    0.242689   0.001279
    36  H    0.214510   0.008954
 Sum of Mulliken charges =  -1.00000   1.00000

 Dipole moment (field-independent basis, Debye):
    X=             13.5072    Y=              1.2502    Z=              1.3014  Tot=             13.6272
 Quadrupole moment (field-independent basis, Debye-Ang):
   XX=           -211.8794   YY=           -130.7749   ZZ=           -121.2731
   XY=            -31.6436   XZ=              3.9364   YZ=              3.0870

 Summary of Natural Population Analysis:

                                       Natural Population
                Natural  -----------------------------------------------
    Atom  No    Charge         Core      Valence    Rydberg      Total
 -----------------------------------------------------------------------
      C    1   -0.29325      0.99964     2.28892    0.00468     3.29325
      C    2   -0.04698      0.99950     2.03997    0.00751     3.04698
      C    3    0.11512      0.99944     1.87431    0.01113     2.88488
      C    4   -0.13697      0.99953     2.12922    0.00821     3.13697
      C    5   -0.06947      0.99953     2.06083    0.00911     3.06947
      C    6    0.05195      0.99940     1.93286    0.01579     2.94805
      C    7   -0.06967      0.99949     2.06088    0.00930     3.06967
      N    8    0.29896      0.99972     2.17514    0.02619     3.20104
      O    9   -0.19456      0.99990     3.18704    0.00763     4.19456
      O   10   -0.19752      0.99990     3.18986    0.00776     4.19752
      N   11   -0.31664      0.99964     2.80540    0.01160     3.81664
      C   12    0.36241      0.99961     1.61540    0.02258     2.63759
      O   13   -0.31951      0.99988     3.31318    0.00645     4.31951
      C   14    0.02193      0.99954     1.96254    0.01599     2.97807
      C   15   -0.19862      0.99961     2.19113    0.00788     3.19862
      C   16   -0.19209      0.99965     2.18588    0.00656     3.19209
      C   17   -0.19457      0.99964     2.18810    0.00682     3.19457
      C   18   -0.19409      0.99961     2.18563    0.00885     3.19409
      N   19   -0.41749      0.99976     2.90764    0.01009     3.91749
      H   20    0.09930      0.00000     0.39957    0.00113     0.40070
      H   21    0.09404      0.00000     0.40483    0.00114     0.40596
      H   22    0.10318      0.00000     0.39596    0.00085     0.39682
      H   23    0.11704      0.00000     0.38169    0.00127     0.38296
      H   24    0.11218      0.00000     0.38669    0.00112     0.38782
      H   25    0.11320      0.00000     0.38602    0.00078     0.38680
      H   26    0.19576      0.00000     0.30238    0.00186     0.30424
      H   27    0.11272      0.00000     0.38646    0.00081     0.38728
      H   28    0.11124      0.00000     0.38773    0.00103     0.38876
      H   29    0.09803      0.00000     0.40097    0.00101     0.40197
      H   30    0.09355      0.00000     0.40531    0.00115     0.40645
      H   31    0.08854      0.00000     0.41003    0.00143     0.41146
      H   32    0.09762      0.00000     0.40136    0.00102     0.40238
      H   33    0.10264      0.00000     0.39635    0.00100     0.39736
      H   34    0.10460      0.00000     0.39435    0.00105     0.39540
      H   35    0.17559      0.00000     0.32298    0.00142     0.32441
      H   36    0.17184      0.00000     0.32655    0.00160     0.32816
 =======================================================================
   * Total *    0.00001     18.99297    50.78318    0.22383    69.99999

 Normal termination of Gaussian 16 at Mon Jan  4 11:44:42 2021.
