 Gaussian 16, Revision A.03,

 -----------------------------------------------------------
 # opt freq B3LYP/6-31G(d) empiricaldispersion=gd3bj scf=xqc
 -----------------------------------------------------------

 -------------------------------
 CID_103768356_JID_8652_neutraal
 -------------------------------
 Symbolic Z-matrix:
 Charge =  0 Multiplicity = 1

 SCF Done:  E(RB3LYP) =  -875.986476685     A.U. after   15 cycles
 SCF Done:  E(RB3LYP) =  -875.990136817     A.U. after   14 cycles
 SCF Done:  E(RB3LYP) =  -875.994183482     A.U. after   13 cycles
 SCF Done:  E(RB3LYP) =  -875.994161101     A.U. after   13 cycles
 SCF Done:  E(RB3LYP) =  -875.997329151     A.U. after   13 cycles
 SCF Done:  E(RB3LYP) =  -876.001871288     A.U. after   13 cycles
 SCF Done:  E(RB3LYP) =  -876.000599587     A.U. after   12 cycles
 SCF Done:  E(RB3LYP) =  -876.003049792     A.U. after   12 cycles
 SCF Done:  E(RB3LYP) =  -876.003288584     A.U. after   11 cycles
 SCF Done:  E(RB3LYP) =  -876.003316564     A.U. after   11 cycles
 SCF Done:  E(RB3LYP) =  -876.003446551     A.U. after    8 cycles
 SCF Done:  E(RB3LYP) =  -876.003447216     A.U. after    8 cycles
 SCF Done:  E(RB3LYP) =  -876.003447468     A.U. after    7 cycles
 SCF Done:  E(RB3LYP) =  -876.003447571     A.U. after    7 cycles
 SCF Done:  E(RB3LYP) =  -876.003447614     A.U. after    7 cycles
 Optimization completed.
    -- Stationary point found.
 Normal termination of Gaussian 16 at Fri Dec 11 21:29:05 2020.

 --------------------------------------------------------------------
 #N Geom=AllCheck Guess=TCheck SCRF=Check GenChk RB3LYP/6-31G(d) Freq
 --------------------------------------------------------------------

 Structure from the checkpoint file:  "JID_8652.chk"
 -------------------------------
 CID_103768356_JID_8652_neutraal
 -------------------------------
 Charge =  0 Multiplicity = 1

 SCF Done:  E(RB3LYP) =  -876.003447614     A.U. after    1 cycles

  Exact polarizability: 191.791  -7.879 150.338  -3.378 -12.055 112.324
 Approx polarizability: 264.359 -21.870 243.875  -6.352 -28.077 171.197

                      1                      2                      3
                      A                      A                      A
 Frequencies --     47.9015                52.5120                72.9259
 Red. masses --      3.4613                 5.3545                 4.5291
 Frc consts  --      0.0047                 0.0087                 0.0142
 IR Inten    --      1.6758                 0.0804                 2.6170

                      4                      5                      6
                      A                      A                      A
 Frequencies --    115.8791               128.6396               146.2774
 Red. masses --      3.8231                 2.9988                 4.7380
 Frc consts  --      0.0302                 0.0292                 0.0597
 IR Inten    --      0.2431                 0.5363                12.1640

                      7                      8                      9
                      A                      A                      A
 Frequencies --    156.8871               170.5058               186.2071
 Red. masses --      4.2523                 1.5187                 1.4957
 Frc consts  --      0.0617                 0.0260                 0.0306
 IR Inten    --      0.7678                 0.3731                 5.7949

                     10                     11                     12
                      A                      A                      A
 Frequencies --    197.9926               206.8213               238.0885
 Red. masses --      4.3237                 2.9552                 3.7715
 Frc consts  --      0.0999                 0.0745                 0.1260
 IR Inten    --      1.1541                 2.8026                 3.5203

                     13                     14                     15
                      A                      A                      A
 Frequencies --    242.2740               258.9018               271.2122
 Red. masses --      1.7880                 3.3721                 2.4970
 Frc consts  --      0.0618                 0.1332                 0.1082
 IR Inten    --      1.0450                 8.4739                 2.4224

                     16                     17                     18
                      A                      A                      A
 Frequencies --    304.1613               334.3872               344.4582
 Red. masses --      1.8429                 2.5344                 1.3826
 Frc consts  --      0.1005                 0.1670                 0.0967
 IR Inten    --      1.0075                52.5156                 6.5680

                     19                     20                     21
                      A                      A                      A
 Frequencies --    357.5919               367.4482               387.8050
 Red. masses --      2.3312                 2.6562                 2.1823
 Frc consts  --      0.1756                 0.2113                 0.1934
 IR Inten    --     43.4596                 3.6014                21.6176

                     22                     23                     24
                      A                      A                      A
 Frequencies --    399.8115               421.8175               445.1126
 Red. masses --      2.6263                 4.5306                 3.2078
 Frc consts  --      0.2473                 0.4750                 0.3745
 IR Inten    --     72.0869                49.0060                11.7285

                     25                     26                     27
                      A                      A                      A
 Frequencies --    452.6376               470.7941               492.5003
 Red. masses --      3.0647                 2.9807                 4.5214
 Frc consts  --      0.3699                 0.3893                 0.6462
 IR Inten    --     15.1074                 6.6797                 6.7169

                     28                     29                     30
                      A                      A                      A
 Frequencies --    544.7385               578.0046               622.7683
 Red. masses --      4.0509                 2.3283                 2.1942
 Frc consts  --      0.7082                 0.4583                 0.5014
 IR Inten    --     10.9698                34.2229                 2.9881

                     31                     32                     33
                      A                      A                      A
 Frequencies --    638.6952               666.5463               683.3635
 Red. masses --      2.8828                 1.7807                 1.9583
 Frc consts  --      0.6929                 0.4661                 0.5388
 IR Inten    --     26.4501                60.5001               105.6557

                     34                     35                     36
                      A                      A                      A
 Frequencies --    700.6532               735.7141               739.6118
 Red. masses --      3.8623                 3.3163                 4.0281
 Frc consts  --      1.1171                 1.0576                 1.2982
 IR Inten    --     37.1657                31.7460                44.6093

                     37                     38                     39
                      A                      A                      A
 Frequencies --    746.5678               754.8163               778.9720
 Red. masses --      2.7924                 2.7723                 3.5329
 Frc consts  --      0.9170                 0.9306                 1.2631
 IR Inten    --     31.9874               118.5619                48.7779

                     40                     41                     42
                      A                      A                      A
 Frequencies --    792.5949               844.3981               872.1206
 Red. masses --      1.2854                 2.0334                 2.1852
 Frc consts  --      0.4758                 0.8542                 0.9793
 IR Inten    --     23.4263                39.0801                 0.4362

                     43                     44                     45
                      A                      A                      A
 Frequencies --    913.1515               952.6278               953.3845
 Red. masses --      1.5761                 2.1141                 1.8337
 Frc consts  --      0.7743                 1.1304                 0.9820
 IR Inten    --     26.1755                11.8907                 6.4079

                     46                     47                     48
                      A                      A                      A
 Frequencies --    992.7783              1027.3224              1029.7734
 Red. masses --      1.6607                 1.7875                 2.2432
 Frc consts  --      0.9644                 1.1115                 1.4015
 IR Inten    --     12.8573                 0.5683                 9.8842

                     49                     50                     51
                      A                      A                      A
 Frequencies --   1034.9630              1062.7962              1090.0929
 Red. masses --      1.6219                 1.8670                 2.0790
 Frc consts  --      1.0236                 1.2425                 1.4555
 IR Inten    --      3.7600                 7.9681                 3.6697

                     52                     53                     54
                      A                      A                      A
 Frequencies --   1102.7128              1165.1861              1173.4205
 Red. masses --      3.0258                 1.2966                 2.1009
 Frc consts  --      2.1678                 1.0371                 1.7043
 IR Inten    --     64.3153                 0.8667                21.1821

                     55                     56                     57
                      A                      A                      A
 Frequencies --   1184.3830              1189.4018              1202.6373
 Red. masses --      1.7584                 3.0701                 2.2571
 Frc consts  --      1.4533                 2.5590                 1.9234
 IR Inten    --     11.6378                45.6540                28.4959

                     58                     59                     60
                      A                      A                      A
 Frequencies --   1220.1372              1242.2620              1282.1155
 Red. masses --      2.2676                 2.6001                 1.6067
 Frc consts  --      1.9890                 2.3641                 1.5561
 IR Inten    --     18.3634                35.6323                26.7328

                     61                     62                     63
                      A                      A                      A
 Frequencies --   1284.0869              1298.9167              1312.1657
 Red. masses --      3.7460                 2.1505                 1.9926
 Frc consts  --      3.6393                 2.1377                 2.0214
 IR Inten    --      1.4644                63.7806                52.5372

                     64                     65                     66
                      A                      A                      A
 Frequencies --   1360.8336              1397.4783              1403.0567
 Red. masses --      1.2281                 1.4227                 1.4563
 Frc consts  --      1.3400                 1.6370                 1.6891
 IR Inten    --      5.3762                 1.2399                 3.9059

                     67                     68                     69
                      A                      A                      A
 Frequencies --   1407.8243              1423.4105              1428.4884
 Red. masses --      1.9162                 2.1115                 1.3043
 Frc consts  --      2.2376                 2.5206                 1.5682
 IR Inten    --      4.8817                13.3886                13.6580

                     70                     71                     72
                      A                      A                      A
 Frequencies --   1434.0799              1438.7227              1468.3005
 Red. masses --      1.2696                 1.2306                 2.0353
 Frc consts  --      1.5383                 1.5008                 2.5853
 IR Inten    --     26.0446                 5.4844                44.6611

                     73                     74                     75
                      A                      A                      A
 Frequencies --   1471.3169              1503.7527              1510.1055
 Red. masses --      1.1906                 1.1003                 1.8636
 Frc consts  --      1.5185                 1.4660                 2.5039
 IR Inten    --     26.1736                13.0704                99.2355

                     76                     77                     78
                      A                      A                      A
 Frequencies --   1518.2706              1521.8310              1529.9800
 Red. masses --      1.0763                 1.0511                 1.0660
 Frc consts  --      1.4618                 1.4343                 1.4702
 IR Inten    --      7.1429                 4.1079                12.7388

                     79                     80                     81
                      A                      A                      A
 Frequencies --   1533.1930              1537.9185              1540.7676
 Red. masses --      1.0785                 1.0460                 1.0815
 Frc consts  --      1.4936                 1.4577                 1.5127
 IR Inten    --     28.1650                 0.7373                14.5369

                     82                     83                     84
                      A                      A                      A
 Frequencies --   1546.5201              1549.5878              1568.3493
 Red. masses --      1.0539                 1.2251                 1.4193
 Frc consts  --      1.4851                 1.7332                 2.0568
 IR Inten    --      1.8822                89.9597                26.3047

                     85                     86                     87
                      A                      A                      A
 Frequencies --   1624.6135              1680.0967              1723.7352
 Red. masses --      1.5827                 2.6524                 8.0400
 Frc consts  --      2.4612                 4.4112                14.0749
 IR Inten    --     66.3929               452.1522               535.4843

                     88                     89                     90
                      A                      A                      A
 Frequencies --   1818.9183              3032.7718              3032.9137
 Red. masses --      9.5881                 1.0636                 1.0602
 Frc consts  --     18.6900                 5.7639                 5.7457
 IR Inten    --    626.7089                 8.8419                30.6049

                     91                     92                     93
                      A                      A                      A
 Frequencies --   3037.8836              3046.0651              3056.3677
 Red. masses --      1.0668                 1.0400                 1.0425
 Frc consts  --      5.8008                 5.6856                 5.7377
 IR Inten    --     53.0045                25.3678                32.7497

                     94                     95                     96
                      A                      A                      A
 Frequencies --   3059.4667              3073.8752              3081.8012
 Red. masses --      1.0379                 1.0992                 1.1065
 Frc consts  --      5.7239                 6.1192                 6.1918
 IR Inten    --     33.5146                63.9972                51.8655

                     97                     98                     99
                      A                      A                      A
 Frequencies --   3110.9570              3112.8914              3121.4365
 Red. masses --      1.1009                 1.1016                 1.1016
 Frc consts  --      6.2773                 6.2894                 6.3238
 IR Inten    --     23.9221                39.5375                28.2645

                    100                    101                    102
                      A                      A                      A
 Frequencies --   3127.0299              3133.3800              3144.5768
 Red. masses --      1.0998                 1.0924                 1.0980
 Frc consts  --      6.3361                 6.3193                 6.3972
 IR Inten    --     16.2746                22.5729                31.4857

                    103                    104                    105
                      A                      A                      A
 Frequencies --   3205.2709              3471.1037              3517.9584
 Red. masses --      1.0990                 1.0748                 1.0665
 Frc consts  --      6.6522                 7.6299                 7.7765
 IR Inten    --      1.5524                42.0976               417.0737

                    106                    107                    108
                      A                      A                      A
 Frequencies --   3523.5898              3610.6632              3669.1897
 Red. masses --      1.0541                 1.0774                 1.0947
 Frc consts  --      7.7106                 8.2755                 8.6835
 IR Inten    --    245.6142                70.0245                49.4252

 - Thermochemistry -
 -------------------
 Temperature   298.150 Kelvin.  Pressure   1.00000 Atm.
 Atom     1 has atomic number  6 and mass  12.00000

 Molecular mass:   256.15354 amu.
 Principal axes and moments of inertia in atomic units:
                           1         2         3
     Eigenvalues --  2570.530505978.750106924.22800
           X            0.99991  -0.00864   0.00976
           Y            0.00860   0.99995   0.00444
           Z           -0.00980  -0.00436   0.99994
 This molecule is an asymmetric top.
 Rotational symmetry number  1.
 Warning -- assumption of classical behavior for rotation
           may cause significant error
 Rotational temperatures (Kelvin)      0.03369     0.01449     0.01251
 Rotational constants (GHZ):           0.70209     0.30186     0.26064
 Zero-point vibrational energy     860089.7 (Joules/Mol)
                                  205.56638 (Kcal/Mol)
 Warning -- explicit consideration of  29 degrees of freedom as
           vibrations may cause significant error
 Vibrational temperatures:     68.92    75.55   104.92   166.72   185.08
          (Kelvin)            210.46   225.73   245.32   267.91   284.87
                              297.57   342.56   348.58   372.50   390.21
                              437.62   481.11   495.60   514.50   528.68
                              557.96   575.24   606.90   640.42   651.24
                              677.37   708.60   783.76   831.62   896.02
                              918.94   959.01   983.21  1008.08  1058.53
                             1064.14  1074.14  1086.01  1120.77  1140.37
                             1214.90  1254.79  1313.82  1370.62  1371.71
                             1428.39  1478.09  1481.61  1489.08  1529.13
                             1568.40  1586.56  1676.44  1688.29  1704.06
                             1711.28  1730.33  1755.51  1787.34  1844.68
                             1847.51  1868.85  1887.91  1957.94  2010.66
                             2018.69  2025.55  2047.97  2055.28  2063.32
                             2070.00  2112.56  2116.90  2163.56  2172.71
                             2184.45  2189.58  2201.30  2205.92  2212.72
                             2216.82  2225.10  2229.51  2256.50  2337.46
                             2417.28  2480.07  2617.02  4363.48  4363.69
                             4370.84  4382.61  4397.43  4401.89  4422.62
                             4434.02  4475.97  4478.76  4491.05  4499.10
                             4508.23  4524.34  4611.67  4994.14  5061.56
                             5069.66  5194.94  5279.15

 Zero-point correction=                           0.327591 (Hartree/Particle)
 Thermal correction to Energy=                    0.345900
 Thermal correction to Enthalpy=                  0.346844
 Thermal correction to Gibbs Free Energy=         0.282884
 Sum of electronic and zero-point Energies=           -875.675857
 Sum of electronic and thermal Energies=              -875.657548
 Sum of electronic and thermal Enthalpies=            -875.656604
 Sum of electronic and thermal Free Energies=         -875.720564

                     E (Thermal)             CV                S
                      KCal/Mol        Cal/Mol-Kelvin    Cal/Mol-Kelvin
 Total                  217.055             71.416            134.615
 Electronic               0.000              0.000              0.000
 Translational            0.889              2.981             42.522
 Rotational               0.889              2.981             33.031
 Vibrational            215.278             65.455             59.062
 Vibration     1          0.595              1.978              4.902
 Vibration     2          0.596              1.977              4.720
 Vibration     3          0.599              1.967              4.073
 Vibration     4          0.608              1.936              3.168
 Vibration     5          0.611              1.925              2.966
 Vibration     6          0.617              1.907              2.720
 Vibration     7          0.621              1.895              2.587
 Vibration     8          0.626              1.879              2.430
 Vibration     9          0.632              1.859              2.265
 Vibration    10          0.637              1.843              2.152
 Vibration    11          0.641              1.830              2.072
 Vibration    12          0.656              1.782              1.817
 Vibration    13          0.658              1.776              1.786
 Vibration    14          0.668              1.748              1.669
 Vibration    15          0.675              1.726              1.588
 Vibration    16          0.695              1.666              1.394
 Vibration    17          0.716              1.607              1.239
 Vibration    18          0.723              1.587              1.191
 Vibration    19          0.733              1.560              1.133
 Vibration    20          0.740              1.539              1.090
 Vibration    21          0.756              1.496              1.009
 Vibration    22          0.766              1.471              0.963
 Vibration    23          0.784              1.423              0.886
 Vibration    24          0.804              1.372              0.811
 Vibration    25          0.811              1.355              0.788
 Vibration    26          0.828              1.315              0.735
 Vibration    27          0.848              1.267              0.677
 Vibration    28          0.900              1.151              0.555
 Vibration    29          0.935              1.079              0.489

                           ! Non-Optimized Parameters !
 Normal termination of Gaussian 16 at Fri Dec 11 21:47:33 2020.

 ----------------------------------------------------------------------
 # B3LYP/6-311++G(d,p) empiricaldispersion=gd3bj scf=xqc pop=npa geom=c
 heck
 ----------------------------------------------------------------------

 ---------------------------------------
 CID_103768356_JID_8652_Energie_neutraal
 ---------------------------------------
 Structure from the checkpoint file:  "JID_8652.chk"
 Charge =  0 Multiplicity = 1

 SCF Done:  E(RB3LYP) =  -876.272061359     A.U. after   15 cycles
 Normal termination of Gaussian 16 at Fri Dec 11 21:54:46 2020.

 ----------------------------------------------------------------------
 # B3LYP/6-311++G(d,p) empiricaldispersion=gd3bj scf=xqc pop=npa geom=c
 heck
 ----------------------------------------------------------------------

 -------------------------------------
 CID_103768356_JID_8652_Energie_kation
 -------------------------------------
 Structure from the checkpoint file:  "JID_8652.chk"
 Charge =  1 Multiplicity = 2

 SCF Done:  E(UB3LYP) =  -875.983755135     A.U. after   26 cycles
 Normal termination of Gaussian 16 at Fri Dec 11 22:11:38 2020.
 Gaussian 16:  ES64L-G16RevA.03 25-Dec-2016

 ----------------------------------------------------------------------
 # B3LYP/6-311++G(d,p) empiricaldispersion=gd3bj scf=xqc pop=npa geom=c
 heck
 ----------------------------------------------------------------------

 ------------------------------------
 CID_103768356_JID_8652_Energie_anion
 ------------------------------------
 Structure from the checkpoint file:  "JID_8652.chk"
 Charge = -1 Multiplicity = 2

                         Standard orientation:
 ---------------------------------------------------------------------
 Center     Atomic      Atomic             Coordinates (Angstroms)
 Number     Number       Type             X           Y           Z
 ---------------------------------------------------------------------
      1          6           0        0.620682    0.949059    2.431867
      2          6           0        1.729240    0.303218    1.589781
      3          6           0        1.972509    0.873073    0.166063
      4          6           0        1.950662    2.410350    0.199705
      5          6           0        3.362018    0.417739   -0.336905
      6          6           0        3.624938   -1.094979   -0.356142
      7          8           0        2.770984   -1.807745   -1.243951
      8          7           0        0.987122    0.424090   -0.881369
      9          6           0       -0.287098   -0.068603   -0.493504
     10          6           0       -1.388599    0.749472   -0.672858
     11          7           0       -2.660387    0.370569   -0.284881
     12          6           0       -2.919965   -0.899996    0.252334
     13          8           0       -4.032696   -1.255109    0.604631
     14          7           0       -1.810766   -1.711811    0.330542
     15          6           0       -0.487062   -1.407012   -0.021166
     16          8           0        0.374082   -2.289481    0.112829
     17          6           0       -3.802472    1.258045   -0.490547
     18          7           0       -1.251015    1.956880   -1.296295
     19          1           0        0.832874    2.001174    2.648924
     20          1           0        0.534908    0.428801    3.392407
     21          1           0       -0.355880    0.897670    1.943264
     22          1           0        2.672955    0.416544    2.140725
     23          1           0        1.547175   -0.770780    1.515541
     24          1           0        2.647332    2.805926    0.948714
     25          1           0        2.235597    2.809151   -0.779960
     26          1           0        0.951343    2.784950    0.444379
     27          1           0        3.499657    0.802941   -1.356419
     28          1           0        4.131170    0.892718    0.286429
     29          1           0        4.652893   -1.256465   -0.702574
     30          1           0        3.562379   -1.509040    0.659324
     31          1           0        1.981388   -2.097880   -0.736570
     32          1           0        1.450916   -0.262039   -1.474091
     33          1           0       -1.978332   -2.646441    0.683847
     34          1           0       -3.844811    1.576398   -1.535684
     35          1           0       -4.696672    0.694472   -0.232533
     36          1           0       -3.737212    2.137009    0.161494
     37          1           0       -0.271499    2.155947   -1.482875
     38          1           0       -1.818932    2.737332   -1.000158
 ---------------------------------------------------------------------

 SCF Done:  E(UB3LYP) =  -876.269914423     A.U. after   33 cycles
 SCF Done:  E(UB3LYP) =  -876.269914423     a.u. after    1 cycles

 The electronic state is 2-A.
 Alpha  occ. eigenvalues --  -19.01799 -19.01363 -19.00677 -14.28871 -14.27454
 Alpha  occ. eigenvalues --  -14.23696 -14.20692 -10.23080 -10.19020 -10.17902
 Alpha  occ. eigenvalues --  -10.12693 -10.11934 -10.11053 -10.10012 -10.07933
 Alpha  occ. eigenvalues --  -10.07202 -10.06320 -10.06051  -0.98986  -0.95332
 Alpha  occ. eigenvalues --   -0.92133  -0.90555  -0.84941  -0.82827  -0.80547
 Alpha  occ. eigenvalues --   -0.71573  -0.66852  -0.65596  -0.63044  -0.61682
 Alpha  occ. eigenvalues --   -0.58056  -0.55556  -0.54289  -0.52652  -0.50106
 Alpha  occ. eigenvalues --   -0.47031  -0.44532  -0.42757  -0.42169  -0.40962
 Alpha  occ. eigenvalues --   -0.40177  -0.39641  -0.38244  -0.36929  -0.36261
 Alpha  occ. eigenvalues --   -0.35836  -0.35705  -0.34605  -0.33429  -0.32748
 Alpha  occ. eigenvalues --   -0.31460  -0.31160  -0.30365  -0.29548  -0.28981
 Alpha  occ. eigenvalues --   -0.28551  -0.28267  -0.27453  -0.25200  -0.24660
 Alpha  occ. eigenvalues --   -0.24177  -0.22437  -0.21113  -0.20056  -0.19270
 Alpha  occ. eigenvalues --   -0.18705  -0.18301  -0.14831  -0.12070   0.03941
 Alpha virt. eigenvalues --    0.06336   0.06589   0.07627   0.07860   0.08576
 Alpha virt. eigenvalues --    0.09057   0.09468   0.09681   0.09937   0.10671
 Alpha virt. eigenvalues --    0.11063   0.11312   0.11787   0.12249   0.12979

  Beta  occ. eigenvalues --  -19.01798 -19.01358 -19.00661 -14.28865 -14.27446
  Beta  occ. eigenvalues --  -14.23606 -14.20684 -10.23079 -10.18992 -10.17841
  Beta  occ. eigenvalues --  -10.12692 -10.11934 -10.10977 -10.10023 -10.07929
  Beta  occ. eigenvalues --  -10.07197 -10.06299 -10.06020  -0.98968  -0.95299
  Beta  occ. eigenvalues --   -0.92128  -0.90495  -0.84902  -0.82800  -0.80480
  Beta  occ. eigenvalues --   -0.71549  -0.66791  -0.65572  -0.62980  -0.61637
  Beta  occ. eigenvalues --   -0.57988  -0.55509  -0.54237  -0.52630  -0.50039
  Beta  occ. eigenvalues --   -0.46992  -0.44471  -0.42668  -0.42152  -0.40896
  Beta  occ. eigenvalues --   -0.40094  -0.39618  -0.38218  -0.36880  -0.36242
  Beta  occ. eigenvalues --   -0.35814  -0.35688  -0.34540  -0.33399  -0.32713
  Beta  occ. eigenvalues --   -0.31404  -0.31136  -0.30294  -0.29524  -0.28933
  Beta  occ. eigenvalues --   -0.28503  -0.28148  -0.27427  -0.25170  -0.24650
  Beta  occ. eigenvalues --   -0.24155  -0.22427  -0.21100  -0.20001  -0.19179
  Beta  occ. eigenvalues --   -0.18691  -0.18270  -0.14797  -0.12004
  Beta virt. eigenvalues --    0.06254   0.06915   0.07322   0.07856   0.08110
  Beta virt. eigenvalues --    0.08769   0.09467   0.09694   0.09903   0.10403
  Beta virt. eigenvalues --    0.10821   0.11328   0.11884   0.12158   0.12293

 Mulliken charges and spin densities:
               1          2
     1  C   -0.119776  -0.633612
     2  C   -0.177876  -0.024229
     3  C   -0.429684   0.917748
     4  C    0.785124  -1.447467
     5  C   -0.333232   0.045269
     6  C   -0.514367   0.057634
     7  O   -0.308768   0.002042
     8  N   -0.127676  -0.035723
     9  C   -0.208636  -0.014822
    10  C    0.482966  -0.311321
    11  N   -0.365930   0.211907
    12  C    0.323943  -0.018838
    13  O   -0.347407   0.000712
    14  N   -0.415065   0.023973
    15  C   -0.186584   0.015771
    16  O   -0.360362   0.008493
    17  C    1.631975  -1.952123
    18  N   -0.234726  -0.027022
    19  H   -0.144339   0.303502
    20  H    0.073792   0.071655
    21  H    0.006045   0.179584
    22  H    0.092133   0.077792
    23  H    0.223258  -0.052279
    24  H   -0.083312   0.223439
    25  H   -0.022193   0.174091
    26  H   -0.157595   0.315992
    27  H    0.168606   0.015740
    28  H    0.092343   0.023059
    29  H    0.138292   0.024311
    30  H    0.135607   0.012843
    31  H    0.315052   0.004623
    32  H    0.303692   0.012764
    33  H    0.332869   0.017026
    34  H   -0.460930   0.649778
    35  H    0.108673   0.085608
    36  H   -0.711207   0.923359
    37  H    0.088111   0.230942
    38  H   -0.592814   0.887780
 Sum of Mulliken charges =  -1.00000   1.00000

 Dipole moment (field-independent basis, Debye):
    X=              6.2755    Y=             -6.8709    Z=              1.2171  Tot=              9.3847
 Quadrupole moment (field-independent basis, Debye-Ang):
   XX=           -173.4478   YY=           -177.0743   ZZ=           -141.3213
   XY=             19.8853   XZ=              1.9277   YZ=             -1.3599

 Summary of Natural Population Analysis:

                                       Natural Population
                Natural  -----------------------------------------------
    Atom  No    Charge         Core      Valence    Rydberg      Total
 -----------------------------------------------------------------------
      C    1   -0.28618      0.99966     2.28098    0.00554     3.28618
      C    2   -0.20642      0.99958     2.19757    0.00927     3.20642
      C    3    0.06615      0.99955     1.91893    0.01537     2.93385
      C    4   -0.29176      0.99961     2.28411    0.00803     3.29176
      C    5   -0.20624      0.99957     2.19779    0.00888     3.20624
      C    6   -0.01216      0.99960     2.00013    0.01243     3.01216
      O    7   -0.39192      0.99989     3.38562    0.00640     4.39192
      N    8   -0.36156      0.99969     2.84934    0.01253     3.86156
      C    9   -0.04434      0.99940     2.03161    0.01333     3.04434
      C   10    0.24016      0.99948     1.74657    0.01379     2.75984
      N   11   -0.23843      0.99961     2.72990    0.00893     3.73843
      C   12    0.41301      0.99969     1.56455    0.02275     2.58699
      O   13   -0.32571      0.99987     3.32060    0.00524     4.32571
      N   14   -0.31366      0.99964     2.80720    0.00683     3.81366
      C   15    0.32015      0.99956     1.65867    0.02163     2.67985
      O   16   -0.35541      0.99986     3.34941    0.00613     4.35541
      C   17   -0.18505      0.99964     2.17701    0.00841     3.18505
      N   18   -0.38522      0.99969     2.87675    0.00878     3.88522
      H   19    0.09909      0.00000     0.39992    0.00098     0.40091
      H   20    0.09695      0.00000     0.40236    0.00070     0.40305
      H   21    0.09958      0.00000     0.39874    0.00168     0.40042
      H   22    0.09528      0.00000     0.40372    0.00100     0.40472
      H   23    0.10856      0.00000     0.38993    0.00151     0.39144
      H   24    0.09713      0.00000     0.40198    0.00089     0.40287
      H   25    0.10065      0.00000     0.39811    0.00124     0.39935
      H   26    0.10673      0.00000     0.39153    0.00175     0.39327
      H   27    0.10001      0.00000     0.39887    0.00112     0.39999
      H   28    0.10127      0.00000     0.39766    0.00107     0.39873
      H   29    0.08075      0.00000     0.41790    0.00135     0.41925
      H   30    0.07928      0.00000     0.41962    0.00111     0.42072
      H   31    0.25021      0.00000     0.24670    0.00309     0.24979
      H   32    0.19713      0.00000     0.30021    0.00266     0.30287
      H   33    0.20447      0.00000     0.29311    0.00242     0.29553
      H   34    0.10541      0.00000     0.39270    0.00189     0.39459
      H   35    0.11859      0.00000     0.38027    0.00114     0.38141
      H   36    0.10559      0.00000     0.39111    0.00330     0.39441
      H   37    0.20775      0.00000     0.28960    0.00264     0.29225
      H   38    0.21015      0.00000     0.26609    0.02376     0.28985
 =======================================================================
   * Total *   -0.00000     17.99359    50.75685    0.24956    69.00000

 Normal termination of Gaussian 16 at Fri Dec 11 22:32:47 2020.
