 Gaussian 16, Revision A.03,

 -----------------------------------------------------------
 # opt freq B3LYP/6-31G(d) empiricaldispersion=gd3bj scf=xqc
 -----------------------------------------------------------

 -------------------------------
 CID_152733976_JID_2420_neutraal
 -------------------------------
 Symbolic Z-matrix:
 Charge =  0 Multiplicity = 1

 SCF Done:  E(RB3LYP) =  -567.038609977     A.U. after   15 cycles
 SCF Done:  E(RB3LYP) =  -567.047374930     A.U. after   14 cycles
 SCF Done:  E(RB3LYP) =  -567.051124209     A.U. after   14 cycles
 SCF Done:  E(RB3LYP) =  -567.052704123     A.U. after   13 cycles
 SCF Done:  E(RB3LYP) =  -567.051844911     A.U. after   13 cycles
 SCF Done:  E(RB3LYP) =  -567.054754869     A.U. after   12 cycles
 SCF Done:  E(RB3LYP) =  -567.054983983     A.U. after   12 cycles
 SCF Done:  E(RB3LYP) =  -567.055162007     A.U. after   12 cycles
 SCF Done:  E(RB3LYP) =  -567.055230418     A.U. after   12 cycles
 SCF Done:  E(RB3LYP) =  -567.055263221     A.U. after   12 cycles
 SCF Done:  E(RB3LYP) =  -567.055272940     A.U. after   10 cycles
 SCF Done:  E(RB3LYP) =  -567.055283635     A.U. after   10 cycles
 SCF Done:  E(RB3LYP) =  -567.055287670     A.U. after    9 cycles
 SCF Done:  E(RB3LYP) =  -567.055288386     A.U. after    9 cycles
 Optimization completed.
    -- Stationary point found.
 Normal termination of Gaussian 16 at Wed Dec  9 17:20:12 2020.

 --------------------------------------------------------------------
 #N Geom=AllCheck Guess=TCheck SCRF=Check GenChk RB3LYP/6-31G(d) Freq
 --------------------------------------------------------------------

 Structure from the checkpoint file:  "JID_2420.chk"
 -------------------------------
 CID_152733976_JID_2420_neutraal
 -------------------------------
 Charge =  0 Multiplicity = 1

 SCF Done:  E(RB3LYP) =  -567.055288386     A.U. after    1 cycles

  Exact polarizability: 148.323   5.008 135.816   1.124  -0.650  44.076
 Approx polarizability: 252.822  19.824 205.310   2.529  -2.994  66.865

                      1                      2                      3
                      A                      A                      A
 Frequencies --     62.2776               107.7587               141.3371
 Red. masses --      5.5305                 3.1602                 1.1176
 Frc consts  --      0.0126                 0.0216                 0.0132
 IR Inten    --      0.1785                10.4017                 1.9660

                      4                      5                      6
                      A                      A                      A
 Frequencies --    184.0448               188.2067               222.8043
 Red. masses --      3.4025                 5.1169                 2.5403
 Frc consts  --      0.0679                 0.1068                 0.0743
 IR Inten    --      0.3282                 9.1947                 2.1418

                      7                      8                      9
                      A                      A                      A
 Frequencies --    229.0659               258.3544               291.5782
 Red. masses --      3.9521                 3.1106                 2.1975
 Frc consts  --      0.1222                 0.1223                 0.1101
 IR Inten    --      8.2417                18.5823                24.9799

                     10                     11                     12
                      A                      A                      A
 Frequencies --    324.7540               361.3819               377.1529
 Red. masses --      1.5627                 2.4249                 2.3678
 Frc consts  --      0.0971                 0.1866                 0.1984
 IR Inten    --    232.0642                27.4277                 5.5958

                     13                     14                     15
                      A                      A                      A
 Frequencies --    413.3297               417.2815               435.7464
 Red. masses --      1.3128                 4.2338                 2.2681
 Frc consts  --      0.1321                 0.4343                 0.2537
 IR Inten    --     71.8773                50.4724               104.9193

                     16                     17                     18
                      A                      A                      A
 Frequencies --    493.3948               503.7184               548.4485
 Red. masses --      1.2228                 3.7029                 6.3590
 Frc consts  --      0.1754                 0.5536                 1.1270
 IR Inten    --    260.6577                18.5644                 2.4900

                     19                     20                     21
                      A                      A                      A
 Frequencies --    649.1612               662.8028               698.2190
 Red. masses --      4.0029                 1.9975                 3.0962
 Frc consts  --      0.9939                 0.5170                 0.8893
 IR Inten    --      5.3523                22.3593                11.8507

                     22                     23                     24
                      A                      A                      A
 Frequencies --    717.1181               728.5754               757.9122
 Red. masses --      2.1747                 3.7483                 1.9124
 Frc consts  --      0.6589                 1.1723                 0.6472
 IR Inten    --     20.4969                 3.4448                 4.7927

                     25                     26                     27
                      A                      A                      A
 Frequencies --    785.1346               820.5943              1000.3742
 Red. masses --      3.8462                 4.3778                 1.7430
 Frc consts  --      1.3969                 1.7368                 1.0277
 IR Inten    --     57.2922                29.4491                 0.9176

                     28                     29                     30
                      A                      A                      A
 Frequencies --   1020.0711              1045.8812              1092.4685
 Red. masses --      2.8694                 3.8592                 1.5788
 Frc consts  --      1.7592                 2.4872                 1.1102
 IR Inten    --      2.1440                 5.7996                 8.3628

                     31                     32                     33
                      A                      A                      A
 Frequencies --   1136.5482              1160.8915              1201.2882
 Red. masses --      1.3110                 1.2789                 2.1095
 Frc consts  --      0.9978                 1.0155                 1.7936
 IR Inten    --     18.5094                14.1285                 6.2131

                     34                     35                     36
                      A                      A                      A
 Frequencies --   1217.0401              1277.1844              1292.9655
 Red. masses --      2.7592                 3.6186                 2.0596
 Frc consts  --      2.4080                 3.4777                 2.0286
 IR Inten    --     30.1395               135.8145                17.4438

                     37                     38                     39
                      A                      A                      A
 Frequencies --   1380.1511              1421.3420              1467.7897
 Red. masses --      3.6007                 2.7325                 1.5328
 Frc consts  --      4.0411                 3.2525                 1.9457
 IR Inten    --      9.8455               121.8467               118.1296

                     40                     41                     42
                      A                      A                      A
 Frequencies --   1475.2200              1485.7878              1504.8231
 Red. masses --      1.3818                 2.6428                 1.0652
 Frc consts  --      1.7718                 3.4373                 1.4212
 IR Inten    --     31.1586               187.5920                18.4150

                     43                     44                     45
                      A                      A                      A
 Frequencies --   1532.9559              1542.6904              1572.9606
 Red. masses --      1.7856                 1.4485                 2.0112
 Frc consts  --      2.4723                 2.0311                 2.9319
 IR Inten    --      6.6593                 3.3573               120.0346

                     46                     47                     48
                      A                      A                      A
 Frequencies --   1619.2131              1646.7990              1667.5749
 Red. masses --      3.5868                 2.2349                 1.8468
 Frc consts  --      5.5407                 3.5710                 3.0257
 IR Inten    --    338.9450               208.0232               343.3159

                     49                     50                     51
                      A                      A                      A
 Frequencies --   1675.6381              1721.9308              2924.5711
 Red. masses --      1.9876                 4.3077                 1.0816
 Frc consts  --      3.2880                 7.5254                 5.4505
 IR Inten    --    708.5299               331.7233               145.3346

                     52                     53                     54
                      A                      A                      A
 Frequencies --   3042.8994              3116.8501              3154.6350
 Red. masses --      1.0445                 1.0910                 1.1048
 Frc consts  --      5.6980                 6.2444                 6.4781
 IR Inten    --     66.2316                34.2524                17.5472

                     55                     56                     57
                      A                      A                      A
 Frequencies --   3190.1590              3474.2651              3582.0901
 Red. masses --      1.0909                 1.0568                 1.0463
 Frc consts  --      6.5412                 7.5160                 7.9102
 IR Inten    --     14.9812               121.6858                48.8674

                     58                     59                     60
                      A                      A                      A
 Frequencies --   3666.2083              3687.0555              3698.3701
 Red. masses --      1.0766                 1.0941                 1.1014
 Frc consts  --      8.5258                 8.7636                 8.8760
 IR Inten    --     25.4234                47.7205                22.7099

 - Thermochemistry -
 -------------------
 Temperature   298.150 Kelvin.  Pressure   1.00000 Atm.
 Atom     1 has atomic number  6 and mass  12.00000

 Molecular mass:   166.08546 amu.
 Principal axes and moments of inertia in atomic units:
                           1         2         3
     Eigenvalues --  1550.417862037.905033567.49620
           X            0.99502  -0.09963   0.00120
           Y            0.09962   0.99501   0.00516
           Z           -0.00170  -0.00502   0.99999
 This molecule is an asymmetric top.
 Rotational symmetry number  1.
 Warning -- assumption of classical behavior for rotation
           may cause significant error
 Rotational temperatures (Kelvin)      0.05586     0.04250     0.02428
 Rotational constants (GHZ):           1.16404     0.88559     0.50588
 Zero-point vibrational energy     467003.2 (Joules/Mol)
                                  111.61645 (Kcal/Mol)
 Warning -- explicit consideration of  18 degrees of freedom as
           vibrations may cause significant error
 Vibrational temperatures:     89.60   155.04   203.35   264.80   270.79
          (Kelvin)            320.57   329.57   371.71   419.52   467.25
                              519.95   542.64   594.69   600.37   626.94
                              709.89   724.74   789.10   934.00   953.63
                             1004.58  1031.77  1048.26  1090.47  1129.63
                             1180.65  1439.32  1467.65  1504.79  1571.82
                             1635.24  1670.26  1728.39  1751.05  1837.58
                             1860.29  1985.73  2044.99  2111.82  2122.51
                             2137.72  2165.10  2205.58  2219.59  2263.14
                             2329.69  2369.38  2399.27  2410.87  2477.47
                             4207.81  4378.05  4484.45  4538.82  4589.93
                             4998.69  5153.83  5274.86  5304.85  5321.13

 Zero-point correction=                           0.177872 (Hartree/Particle)
 Thermal correction to Energy=                    0.189701
 Thermal correction to Enthalpy=                  0.190645
 Thermal correction to Gibbs Free Energy=         0.140786
 Sum of electronic and zero-point Energies=           -566.877416
 Sum of electronic and thermal Energies=              -566.865588
 Sum of electronic and thermal Enthalpies=            -566.864644
 Sum of electronic and thermal Free Energies=         -566.914503

                     E (Thermal)             CV                S
                      KCal/Mol        Cal/Mol-Kelvin    Cal/Mol-Kelvin
 Total                  119.039             44.880            104.938
 Electronic               0.000              0.000              0.000
 Translational            0.889              2.981             41.230
 Rotational               0.889              2.981             30.800
 Vibrational            117.261             38.918             32.907
 Vibration     1          0.597              1.972              4.384
 Vibration     2          0.606              1.943              3.309
 Vibration     3          0.615              1.912              2.786
 Vibration     4          0.631              1.862              2.287
 Vibration     5          0.633              1.856              2.245
 Vibration     6          0.648              1.806              1.936
 Vibration     7          0.652              1.797              1.886
 Vibration     8          0.667              1.749              1.673
 Vibration     9          0.687              1.689              1.465
 Vibration    10          0.709              1.626              1.286
 Vibration    11          0.736              1.552              1.116
 Vibration    12          0.748              1.519              1.051
 Vibration    13          0.777              1.441              0.915
 Vibration    14          0.780              1.433              0.901
 Vibration    15          0.796              1.392              0.840
 Vibration    16          0.849              1.265              0.675
 Vibration    17          0.859              1.242              0.649
 Vibration    18          0.904              1.143              0.547

                           ! Non-Optimized Parameters !
 Normal termination of Gaussian 16 at Wed Dec  9 17:25:02 2020.

 ----------------------------------------------------------------------
 # B3LYP/6-311++G(d,p) empiricaldispersion=gd3bj scf=xqc pop=npa geom=c
 heck
 ----------------------------------------------------------------------

 ---------------------------------------
 CID_152733976_JID_2420_Energie_neutraal
 ---------------------------------------
 Structure from the checkpoint file:  "JID_2420.chk"
 Charge =  0 Multiplicity = 1

 SCF Done:  E(RB3LYP) =  -567.230253985     A.U. after   15 cycles
 Normal termination of Gaussian 16 at Wed Dec  9 17:26:57 2020.

 ----------------------------------------------------------------------
 # B3LYP/6-311++G(d,p) empiricaldispersion=gd3bj scf=xqc pop=npa geom=c
 heck
 ----------------------------------------------------------------------

 -------------------------------------
 CID_152733976_JID_2420_Energie_kation
 -------------------------------------
 Structure from the checkpoint file:  "JID_2420.chk"
 Charge =  1 Multiplicity = 2

 SCF Done:  E(UB3LYP) =  -566.952547133     A.U. after   25 cycles
 Normal termination of Gaussian 16 at Wed Dec  9 17:31:03 2020.
 Gaussian 16:  ES64L-G16RevA.03 25-Dec-2016

 ----------------------------------------------------------------------
 # B3LYP/6-311++G(d,p) empiricaldispersion=gd3bj scf=xqc pop=npa geom=c
 heck
 ----------------------------------------------------------------------

 ------------------------------------
 CID_152733976_JID_2420_Energie_anion
 ------------------------------------
 Structure from the checkpoint file:  "JID_2420.chk"
 Charge = -1 Multiplicity = 2

                         Standard orientation:
 ---------------------------------------------------------------------
 Center     Atomic      Atomic             Coordinates (Angstroms)
 Number     Number       Type             X           Y           Z
 ---------------------------------------------------------------------
      1          6           0        2.376552   -2.399815   -0.093162
      2          7           0        0.974045   -2.035636    0.005647
      3          6           0        0.572452   -0.726430    0.004465
      4          6           0       -0.820921   -0.381704   -0.008344
      5          6           0       -1.133393    1.018823   -0.070255
      6          6           0       -0.088064    1.950119   -0.044926
      7          6           0        1.223055    1.476504    0.026554
      8          7           0        1.558722    0.170818    0.036749
      9          7           0        2.290914    2.343326    0.034875
     10          7           0       -2.425523    1.412177   -0.151663
     11          6           0       -1.857427   -1.367445    0.123486
     12          8           0       -3.079678   -1.166414    0.096201
     13          1           0        2.938739   -1.945819    0.725753
     14          1           0        2.830399   -2.065934   -1.035407
     15          1           0        2.452751   -3.487774   -0.019881
     16          1           0        0.306876   -2.721526   -0.307074
     17          1           0       -0.295987    3.014790   -0.093776
     18          1           0        2.131081    3.286669    0.357312
     19          1           0        3.167707    1.927025    0.317610
     20          1           0       -3.137917    0.690689   -0.066835
     21          1           0       -2.660459    2.387036   -0.050517
     22          1           0       -1.516401   -2.408947    0.297038
 ---------------------------------------------------------------------

 SCF Done:  E(UB3LYP) =  -567.224189014     A.U. after   33 cycles
 SCF Done:  E(UB3LYP) =  -567.224189014     a.u. after    1 cycles

 The electronic state is 2-A.
 Alpha  occ. eigenvalues --  -18.94790 -14.20612 -14.19320 -14.19200 -14.15701
 Alpha  occ. eigenvalues --  -10.11237 -10.10484 -10.09487 -10.08925 -10.08742
 Alpha  occ. eigenvalues --  -10.03209 -10.02578  -0.88017  -0.84986  -0.80968
 Alpha  occ. eigenvalues --   -0.79846  -0.74212  -0.64873  -0.62301  -0.57148
 Alpha  occ. eigenvalues --   -0.52544  -0.49000  -0.45396  -0.43553  -0.41627
 Alpha  occ. eigenvalues --   -0.38258  -0.37003  -0.34807  -0.33666  -0.33398
 Alpha  occ. eigenvalues --   -0.30745  -0.30627  -0.29098  -0.28455  -0.27748
 Alpha  occ. eigenvalues --   -0.25539  -0.25043  -0.22287  -0.20949  -0.14462
 Alpha  occ. eigenvalues --   -0.12705  -0.10755  -0.09785  -0.07848   0.04932
 Alpha virt. eigenvalues --    0.06985   0.07307   0.08594   0.09792   0.10704
 Alpha virt. eigenvalues --    0.11541   0.12334   0.13179   0.13248   0.14411
 Alpha virt. eigenvalues --    0.15150   0.15333   0.16459   0.17170   0.17893

  Beta  occ. eigenvalues --  -18.94448 -14.20581 -14.19275 -14.19110 -14.15768
  Beta  occ. eigenvalues --  -10.11071 -10.10253 -10.09367 -10.08734 -10.08679
  Beta  occ. eigenvalues --  -10.03284 -10.02629  -0.87410  -0.84823  -0.80806
  Beta  occ. eigenvalues --   -0.79694  -0.74138  -0.64779  -0.62147  -0.57069
  Beta  occ. eigenvalues --   -0.52129  -0.48818  -0.45076  -0.43412  -0.41454
  Beta  occ. eigenvalues --   -0.38159  -0.36951  -0.34683  -0.33498  -0.33267
  Beta  occ. eigenvalues --   -0.30626  -0.30496  -0.28647  -0.28369  -0.27438
  Beta  occ. eigenvalues --   -0.25428  -0.23972  -0.21634  -0.19983  -0.14471
  Beta  occ. eigenvalues --   -0.12495  -0.10502  -0.09544  -0.07448
  Beta virt. eigenvalues --    0.07366   0.08095   0.08994   0.09568   0.10299
  Beta virt. eigenvalues --    0.11092   0.11473   0.12502   0.13575   0.13641
  Beta virt. eigenvalues --    0.14491   0.15275   0.15496   0.16874   0.17188

 Mulliken charges and spin densities:
               1          2
     1  C   -0.084361  -0.273452
     2  N   -0.100236  -0.009675
     3  C    0.155943  -0.241102
     4  C    0.394226  -0.089960
     5  C    0.003011  -0.085603
     6  C   -0.020773   0.351951
     7  C   -0.027719  -0.227031
     8  N   -0.180070  -0.096149
     9  N   -0.344255   0.062485
    10  N   -0.395333   0.038183
    11  C   -0.031045  -0.353060
    12  O   -0.435310   0.107365
    13  H    0.064437   0.107316
    14  H    0.130471   0.035768
    15  H   -0.029404   0.138108
    16  H    0.011250   0.233708
    17  H   -0.290131   0.420658
    18  H   -0.430558   0.681163
    19  H    0.054309   0.195452
    20  H    0.303321  -0.011394
    21  H    0.186126   0.047658
    22  H    0.066101  -0.032389
 Sum of Mulliken charges =  -1.00000   1.00000

 Dipole moment (field-independent basis, Debye):
    X=             -0.0027    Y=             -2.3417    Z=             -0.3205  Tot=              2.3635
 Quadrupole moment (field-independent basis, Debye-Ang):
   XX=           -112.2973   YY=           -110.8298   ZZ=            -86.6349
   XY=            -19.8472   XZ=             -1.8433   YZ=             -2.3159

 Summary of Natural Population Analysis:

                                       Natural Population
                Natural  -----------------------------------------------
    Atom  No    Charge         Core      Valence    Rydberg      Total
 -----------------------------------------------------------------------
      C    1   -0.17610      0.99966     2.16895    0.00750     3.17610
      N    2   -0.30769      0.99967     2.79869    0.00933     3.80769
      C    3    0.26265      0.99955     1.72427    0.01353     2.73735
      C    4   -0.16964      0.99945     2.16193    0.00827     3.16964
      C    5    0.15081      0.99952     1.83514    0.01453     2.84919
      C    6   -0.21693      0.99949     2.20743    0.01002     3.21693
      C    7    0.25162      0.99956     1.73391    0.01492     2.74838
      N    8   -0.32391      0.99964     2.81458    0.00968     3.82391
      N    9   -0.38792      0.99971     2.87795    0.01027     3.88792
      N   10   -0.38465      0.99968     2.87763    0.00734     3.88465
      C   11    0.22562      0.99965     1.75534    0.01938     2.77438
      O   12   -0.29891      0.99988     3.29222    0.00681     4.29891
      H   13    0.09966      0.00000     0.39864    0.00169     0.40034
      H   14    0.08808      0.00000     0.40983    0.00209     0.41192
      H   15    0.08814      0.00000     0.41082    0.00104     0.41186
      H   16    0.19000      0.00000     0.30662    0.00339     0.31000
      H   17    0.09634      0.00000     0.40200    0.00166     0.40366
      H   18    0.18933      0.00000     0.30272    0.00796     0.31067
      H   19    0.18918      0.00000     0.30830    0.00253     0.31082
      H   20    0.21277      0.00000     0.28500    0.00223     0.28723
      H   21    0.18237      0.00000     0.31627    0.00137     0.31763
      H   22    0.03920      0.00000     0.45834    0.00246     0.46080
 =======================================================================
   * Total *    0.00000     11.99545    31.84654    0.15801    44.00000

 Normal termination of Gaussian 16 at Wed Dec  9 17:35:58 2020.
