 Gaussian 16, Revision A.03,

 -----------------------------------------------------------
 # opt freq B3LYP/6-31G(d) empiricaldispersion=gd3bj scf=xqc
 -----------------------------------------------------------

 -------------------------------
 CID_119098504_JID_2154_neutraal
 -------------------------------
 Symbolic Z-matrix:
 Charge =  0 Multiplicity = 1

 SCF Done:  E(RB3LYP) =  -580.586438874     A.U. after   15 cycles
 SCF Done:  E(RB3LYP) =  -580.603201018     A.U. after   13 cycles
 SCF Done:  E(RB3LYP) =  -580.604718422     A.U. after   12 cycles
 SCF Done:  E(RB3LYP) =  -580.604910927     A.U. after   11 cycles
 SCF Done:  E(RB3LYP) =  -580.604939020     A.U. after   10 cycles
 SCF Done:  E(RB3LYP) =  -580.604942972     A.U. after    9 cycles
 SCF Done:  E(RB3LYP) =  -580.604943855     A.U. after    9 cycles
 Optimization completed.
    -- Stationary point found.
 Normal termination of Gaussian 16 at Wed Dec  9 16:47:16 2020.

 --------------------------------------------------------------------
 #N Geom=AllCheck Guess=TCheck SCRF=Check GenChk RB3LYP/6-31G(d) Freq
 --------------------------------------------------------------------

 Structure from the checkpoint file:  "JID_2154.chk"
 -------------------------------
 CID_119098504_JID_2154_neutraal
 -------------------------------
 Charge =  0 Multiplicity = 1

 SCF Done:  E(RB3LYP) =  -580.604943855     A.U. after    1 cycles

  Exact polarizability: 159.676   2.405  88.757   0.002  -0.001  42.216
 Approx polarizability: 260.532  10.235 182.739   0.010  -0.001  65.718

                      1                      2                      3
                      A                      A                      A
 Frequencies --     79.8517               121.3838               181.2050
 Red. masses --      4.0974                 3.4209                 1.3088
 Frc consts  --      0.0154                 0.0297                 0.0253
 IR Inten    --      2.4967                 0.0578                 0.0550

                      4                      5                      6
                      A                      A                      A
 Frequencies --    188.3750               220.9980               272.8888
 Red. masses --      4.9153                 3.8353                 5.9477
 Frc consts  --      0.1028                 0.1104                 0.2610
 IR Inten    --      2.7989                 3.7393                 3.4169

                      7                      8                      9
                      A                      A                      A
 Frequencies --    379.9134               421.9974               453.9139
 Red. masses --      5.2887                 7.8734                 7.7814
 Frc consts  --      0.4497                 0.8261                 0.9446
 IR Inten    --      3.5782                 6.3816                 0.2505

                     10                     11                     12
                      A                      A                      A
 Frequencies --    478.7321               540.7615               586.4931
 Red. masses --      4.5472                11.2131                 5.7963
 Frc consts  --      0.6140                 1.9319                 1.1747
 IR Inten    --      9.3965                 0.4725                 9.2218

                     13                     14                     15
                      A                      A                      A
 Frequencies --    618.5244               662.3458               769.4352
 Red. masses --      6.5974                 9.2526                 7.8179
 Frc consts  --      1.4871                 2.3916                 2.7270
 IR Inten    --     29.3609                 7.4977                15.8368

                     16                     17                     18
                      A                      A                      A
 Frequencies --    775.9053               812.1030               839.8254
 Red. masses --      7.0902                 9.5689                 8.1667
 Frc consts  --      2.5149                 3.7182                 3.3937
 IR Inten    --      5.1948                 0.9468                 4.8213

                     19                     20                     21
                      A                      A                      A
 Frequencies --    924.4717               943.9630               977.9606
 Red. masses --      9.0008                 1.4007                 7.0612
 Frc consts  --      4.5323                 0.7354                 3.9790
 IR Inten    --     13.9139                 0.0240                 9.5852

                     22                     23                     24
                      A                      A                      A
 Frequencies --    980.0041              1062.1849              1118.8085
 Red. masses --      1.4878                 9.1010                 7.1429
 Frc consts  --      0.8419                 6.0498                 5.2679
 IR Inten    --     11.4245                 0.2757               128.9156

                     25                     26                     27
                      A                      A                      A
 Frequencies --   1157.5040              1184.4693              1207.9462
 Red. masses --      5.9197                 1.2622                 1.4455
 Frc consts  --      4.6730                 1.0433                 1.2427
 IR Inten    --     22.7578                 0.7270                 3.4793

                     28                     29                     30
                      A                      A                      A
 Frequencies --   1259.0847              1317.3170              1364.8730
 Red. masses --      4.3216                 1.6492                 6.1239
 Frc consts  --      4.0365                 1.6861                 6.7215
 IR Inten    --     58.7635                52.6347               229.5648

                     31                     32                     33
                      A                      A                      A
 Frequencies --   1392.4485              1440.6169              1453.1942
 Red. masses --      2.1070                 3.4961                 4.1010
 Frc consts  --      2.4070                 4.2750                 5.1026
 IR Inten    --     17.8865               248.9115                32.8225

                     34                     35                     36
                      A                      A                      A
 Frequencies --   1497.2196              1514.9536              1520.8334
 Red. masses --      2.6691                 1.0481                 1.0671
 Frc consts  --      3.5253                 1.4173                 1.4541
 IR Inten    --     44.8607                 6.7441                29.4264

                     37                     38                     39
                      A                      A                      A
 Frequencies --   1529.2882              1568.3955              1575.9548
 Red. masses --      2.1413                 8.1401                 7.5187
 Frc consts  --      2.9506                11.7975                11.0022
 IR Inten    --    114.0032                15.1619               138.3326

                     40                     41                     42
                      A                      A                      A
 Frequencies --   1665.1255              3076.5049              3152.8123
 Red. masses --      7.8194                 1.0297                 1.1079
 Frc consts  --     12.7738                 5.7420                 6.4885
 IR Inten    --    386.3301                45.0500                21.1154

                     43                     44                     45
                      A                      A                      A
 Frequencies --   3183.8061              3184.7971              3224.7006
 Red. masses --      1.0962                 1.1033                 1.0923
 Frc consts  --      6.5471                 6.5934                 6.6924
 IR Inten    --     19.5709                 9.5384                11.4195

 - Thermochemistry -
 -------------------
 Temperature   298.150 Kelvin.  Pressure   1.00000 Atm.
 Atom     1 has atomic number  6 and mass  12.00000

 Molecular mass:   163.04941 amu.
 Principal axes and moments of inertia in atomic units:
                           1         2         3
     Eigenvalues --   605.605982863.734823457.92545
           X            1.00000   0.00013  -0.00000
           Y           -0.00013   1.00000  -0.00000
           Z            0.00000   0.00000   1.00000
 This molecule is an asymmetric top.
 Rotational symmetry number  1.
 Warning -- assumption of classical behavior for rotation
           may cause significant error
 Rotational temperatures (Kelvin)      0.14302     0.03025     0.02505
 Rotational constants (GHZ):           2.98006     0.63021     0.52191
 Zero-point vibrational energy     316315.9 (Joules/Mol)
                                   75.60132 (Kcal/Mol)
 Warning -- explicit consideration of  13 degrees of freedom as
           vibrations may cause significant error
 Vibrational temperatures:    114.89   174.64   260.71   271.03   317.97
          (Kelvin)            392.63   546.61   607.16   653.08   688.79
                              778.04   843.83   889.92   952.97  1107.05
                             1116.35  1168.44  1208.32  1330.11  1358.15
                             1407.07  1410.01  1528.25  1609.72  1665.39
                             1704.19  1737.97  1811.54  1895.33  1963.75
                             2003.42  2072.73  2090.82  2154.17  2179.68
                             2188.14  2200.30  2256.57  2267.45  2395.74
                             4426.40  4536.19  4580.79  4582.21  4639.62

 Zero-point correction=                           0.120478 (Hartree/Particle)
 Thermal correction to Energy=                    0.129371
 Thermal correction to Enthalpy=                  0.130315
 Thermal correction to Gibbs Free Energy=         0.085946
 Sum of electronic and zero-point Energies=           -580.484465
 Sum of electronic and thermal Energies=              -580.475573
 Sum of electronic and thermal Enthalpies=            -580.474629
 Sum of electronic and thermal Free Energies=         -580.518998

                     E (Thermal)             CV                S
                      KCal/Mol        Cal/Mol-Kelvin    Cal/Mol-Kelvin
 Total                   81.181             33.521             93.384
 Electronic               0.000              0.000              0.000
 Translational            0.889              2.981             41.175
 Rotational               0.889              2.981             30.173
 Vibrational             79.404             27.559             22.035
 Vibration     1          0.600              1.963              3.895
 Vibration     2          0.609              1.931              3.078
 Vibration     3          0.630              1.865              2.316
 Vibration     4          0.633              1.856              2.244
 Vibration     5          0.648              1.809              1.951
 Vibration     6          0.676              1.723              1.578
 Vibration     7          0.750              1.513              1.040
 Vibration     8          0.784              1.422              0.885
 Vibration     9          0.812              1.352              0.784
 Vibration    10          0.835              1.297              0.713
 Vibration    11          0.896              1.160              0.564
 Vibration    12          0.944              1.061              0.473
 Vibration    13          0.978              0.993              0.419

 Optimization completed.
    -- Stationary point found.
 Normal termination of Gaussian 16 at Wed Dec  9 16:50:17 2020.

 ----------------------------------------------------------------------
 # B3LYP/6-311++G(d,p) empiricaldispersion=gd3bj scf=xqc pop=npa geom=c
 heck
 ----------------------------------------------------------------------

 ---------------------------------------
 CID_119098504_JID_2154_Energie_neutraal
 ---------------------------------------
 Structure from the checkpoint file:  "JID_2154.chk"
 Charge =  0 Multiplicity = 1

 SCF Done:  E(RB3LYP) =  -580.755024209     A.U. after   15 cycles
 Normal termination of Gaussian 16 at Wed Dec  9 16:51:28 2020.

 ----------------------------------------------------------------------
 # B3LYP/6-311++G(d,p) empiricaldispersion=gd3bj scf=xqc pop=npa geom=c
 heck
 ----------------------------------------------------------------------

 -------------------------------------
 CID_119098504_JID_2154_Energie_kation
 -------------------------------------
 Structure from the checkpoint file:  "JID_2154.chk"
 Charge =  1 Multiplicity = 2

 SCF Done:  E(UB3LYP) =  -580.425797085     A.U. after   23 cycles
 Normal termination of Gaussian 16 at Wed Dec  9 16:53:57 2020.
 Gaussian 16:  ES64L-G16RevA.03 25-Dec-2016

 ----------------------------------------------------------------------
 # B3LYP/6-311++G(d,p) empiricaldispersion=gd3bj scf=xqc pop=npa geom=c
 heck
 ----------------------------------------------------------------------

 ------------------------------------
 CID_119098504_JID_2154_Energie_anion
 ------------------------------------
 Structure from the checkpoint file:  "JID_2154.chk"
 Charge = -1 Multiplicity = 2

                         Standard orientation:
 ---------------------------------------------------------------------
 Center     Atomic      Atomic             Coordinates (Angstroms)
 Number     Number       Type             X           Y           Z
 ---------------------------------------------------------------------
      1          6           0        3.864644    0.062007   -0.000242
      2          8           0        2.734565   -0.822358   -0.000150
      3          6           0        1.513063   -0.290526    0.000413
      4          7           0        1.424939    1.079378    0.000155
      5          6           0        0.218975    1.592376    0.000069
      6          6           0       -0.941791    0.771161    0.000024
      7          6           0       -0.716893   -0.627471    0.000034
      8          7           0        0.521241   -1.160317    0.000193
      9          7           0       -1.781739   -1.493829   -0.000008
     10          7           0       -2.980694   -0.984123   -0.000095
     11          6           0       -3.142150    0.376257   -0.000123
     12          7           0       -2.191066    1.286972   -0.000072
     13          1           0        4.732841   -0.597198    0.000171
     14          1           0        3.864306    0.695953    0.889963
     15          1           0        3.864685    0.695222   -0.890989
     16          1           0        0.113286    2.676223    0.000041
     17          1           0       -4.175499    0.709266   -0.000250
 ---------------------------------------------------------------------

 SCF Done:  E(UB3LYP) =  -580.819633669     A.U. after   20 cycles

 The electronic state is 2-A.
 Alpha  occ. eigenvalues --  -19.03633 -14.17508 -14.17036 -14.16646 -14.16107
 Alpha  occ. eigenvalues --  -14.15746 -10.15098 -10.11565 -10.09013 -10.07886
 Alpha  occ. eigenvalues --  -10.06574 -10.06386  -0.96762  -0.87790  -0.82542
 Alpha  occ. eigenvalues --   -0.78024  -0.74955  -0.66074  -0.60712  -0.56762
 Alpha  occ. eigenvalues --   -0.51765  -0.49965  -0.43609  -0.40923  -0.39385
 Alpha  occ. eigenvalues --   -0.36469  -0.36432  -0.32690  -0.31139  -0.30771
 Alpha  occ. eigenvalues --   -0.28767  -0.27076  -0.23330  -0.22045  -0.19752
 Alpha  occ. eigenvalues --   -0.18939  -0.17271  -0.16724  -0.16168  -0.11837
 Alpha  occ. eigenvalues --   -0.11221  -0.06397   0.00352
 Alpha virt. eigenvalues --    0.07983   0.10371   0.11088   0.11321   0.12042
 Alpha virt. eigenvalues --    0.12161   0.12276   0.13427   0.16286   0.16410
 Alpha virt. eigenvalues --    0.16867   0.18183   0.18547   0.19105   0.19328

  Beta  occ. eigenvalues --  -19.03633 -14.17107 -14.16486 -14.16381 -14.15603
  Beta  occ. eigenvalues --  -14.15550 -10.15100 -10.11563 -10.09085 -10.07958
  Beta  occ. eigenvalues --  -10.06611 -10.06054  -0.96722  -0.87034  -0.82077
  Beta  occ. eigenvalues --   -0.77199  -0.74374  -0.65683  -0.60525  -0.55831
  Beta  occ. eigenvalues --   -0.51641  -0.49572  -0.43409  -0.40747  -0.39083
  Beta  occ. eigenvalues --   -0.36290  -0.36243  -0.32573  -0.30578  -0.30115
  Beta  occ. eigenvalues --   -0.28577  -0.25933  -0.23281  -0.20209  -0.18652
  Beta  occ. eigenvalues --   -0.18501  -0.16753  -0.15582  -0.14580  -0.11462
  Beta  occ. eigenvalues --   -0.09883  -0.05819
  Beta virt. eigenvalues --    0.07411   0.07978   0.10369   0.11080   0.11621
  Beta virt. eigenvalues --    0.12084   0.12282   0.13433   0.14098   0.16311
  Beta virt. eigenvalues --    0.16624   0.16882   0.18196   0.18579   0.19110

 Mulliken charges and spin densities:
               1          2
     1  C   -0.211150  -0.001676
     2  O   -0.072139   0.001728
     3  C    0.111442  -0.025722
     4  N   -0.199509   0.116212
     5  C   -0.150391   0.232868
     6  C   -0.010751  -0.012940
     7  C   -0.460497  -0.033504
     8  N   -0.305570   0.097684
     9  N   -0.104471   0.248105
    10  N   -0.185035   0.195978
    11  C    0.001263  -0.036066
    12  N   -0.164089   0.234921
    13  H    0.126542  -0.000354
    14  H    0.161111   0.001980
    15  H    0.161054   0.001968
    16  H    0.133352  -0.020201
    17  H    0.168836  -0.000981
 Sum of Mulliken charges =  -1.00000   1.00000

 Dipole moment (field-independent basis, Debye):
    X=              5.3925    Y=              3.4753    Z=              0.0001  Tot=              6.4153
 Quadrupole moment (field-independent basis, Debye-Ang):
   XX=            -92.7819   YY=            -92.6174   ZZ=            -71.7342
   XY=             -4.3100   XZ=             -0.0001   YZ=             -0.0003

 Summary of Natural Population Analysis:

                                       Natural Population
                Natural  -----------------------------------------------
    Atom  No    Charge         Core      Valence    Rydberg      Total
 -----------------------------------------------------------------------
      C    1   -0.09998      0.99960     2.09203    0.00835     3.09998
      O    2   -0.27225      0.99984     3.26222    0.01019     4.27225
      C    3    0.35168      0.99956     1.62688    0.02188     2.64832
      N    4   -0.24845      0.99967     2.73928    0.00950     3.74845
      C    5    0.12250      0.99961     1.86288    0.01501     2.87750
      C    6    0.01722      0.99947     1.96850    0.01481     2.98278
      C    7    0.14712      0.99948     1.83358    0.01982     2.85288
      N    8   -0.23290      0.99962     2.71836    0.01492     3.73290
      N    9   -0.03447      0.99971     2.51677    0.01798     3.53447
      N   10   -0.08477      0.99976     2.56752    0.01749     3.58477
      C   11    0.08279      0.99968     1.89746    0.02007     2.91721
      N   12   -0.16088      0.99968     2.64885    0.01234     3.66088
      H   13    0.08205      0.00000     0.41710    0.00085     0.41795
      H   14    0.08801      0.00000     0.41081    0.00118     0.41199
      H   15    0.08798      0.00000     0.41083    0.00118     0.41202
      H   16    0.07928      0.00000     0.41846    0.00226     0.42072
      H   17    0.07506      0.00000     0.42342    0.00152     0.42494
 =======================================================================
   * Total *   -0.00000     11.99569    29.81496    0.18935    42.00000

 Normal termination of Gaussian 16 at Wed Dec  9 16:56:19 2020.
