 Gaussian 16, Revision A.03,

 -----------------------------------------------------------
 # opt freq B3LYP/6-31G(d) empiricaldispersion=gd3bj scf=xqc
 -----------------------------------------------------------

 -----------------------------
 CID_5073334_JID_9924_neutraal
 -----------------------------
 Symbolic Z-matrix:
 Charge =  0 Multiplicity = 1

 SCF Done:  E(RB3LYP) =  -915.511624400     A.U. after   15 cycles
 SCF Done:  E(RB3LYP) =  -915.515484486     A.U. after   13 cycles
 SCF Done:  E(RB3LYP) =  -915.516053638     A.U. after   13 cycles
 SCF Done:  E(RB3LYP) =  -915.516623256     A.U. after   13 cycles
 SCF Done:  E(RB3LYP) =  -915.516741483     A.U. after   12 cycles
 SCF Done:  E(RB3LYP) =  -915.517002734     A.U. after   11 cycles
 SCF Done:  E(RB3LYP) =  -915.517088343     A.U. after   12 cycles
 SCF Done:  E(RB3LYP) =  -915.517163426     A.U. after   11 cycles
 SCF Done:  E(RB3LYP) =  -915.517191440     A.U. after   11 cycles
 SCF Done:  E(RB3LYP) =  -915.517208599     A.U. after   10 cycles
 SCF Done:  E(RB3LYP) =  -915.519263328     A.U. after    9 cycles
 SCF Done:  E(RB3LYP) =  -915.519264703     A.U. after    8 cycles
 SCF Done:  E(RB3LYP) =  -915.519265873     A.U. after    8 cycles
 SCF Done:  E(RB3LYP) =  -915.519266196     A.U. after    8 cycles
 SCF Done:  E(RB3LYP) =  -915.519266353     A.U. after    8 cycles
 SCF Done:  E(RB3LYP) =  -915.519266396     A.U. after    7 cycles
 Optimization completed.
    -- Stationary point found.
 Normal termination of Gaussian 16 at Mon Dec 14 13:47:30 2020.

 --------------------------------------------------------------------
 #N Geom=AllCheck Guess=TCheck SCRF=Check GenChk RB3LYP/6-31G(d) Freq
 --------------------------------------------------------------------

 Structure from the checkpoint file:  "JID_9924.chk"
 -----------------------------
 CID_5073334_JID_9924_neutraal
 -----------------------------
 Charge =  0 Multiplicity = 1

 SCF Done:  E(RB3LYP) =  -915.519266396     A.U. after    1 cycles

  Exact polarizability: 238.018  -4.052 160.911  -6.951  10.470 100.169
 Approx polarizability: 337.751  -1.095 252.080 -17.442  21.691 155.465

                      1                      2                      3
                      A                      A                      A
 Frequencies --     23.5729                28.9353                41.3730
 Red. masses --      4.9124                 4.1102                 4.2644
 Frc consts  --      0.0016                 0.0020                 0.0043
 IR Inten    --      0.1707                 0.7954                 0.0812

                      4                      5                      6
                      A                      A                      A
 Frequencies --     49.3208                65.4386                74.4678
 Red. masses --      4.5730                 5.5313                 4.4175
 Frc consts  --      0.0066                 0.0140                 0.0144
 IR Inten    --      0.2148                 3.6323                 0.0324

                      7                      8                      9
                      A                      A                      A
 Frequencies --     97.7199               109.6619               137.2146
 Red. masses --      4.7970                 4.1296                 1.2413
 Frc consts  --      0.0270                 0.0293                 0.0138
 IR Inten    --      3.2203                 1.8118                 0.2390

                     10                     11                     12
                      A                      A                      A
 Frequencies --    142.4303               157.7552               172.1832
 Red. masses --      1.9782                 5.5479                 4.2845
 Frc consts  --      0.0236                 0.0813                 0.0748
 IR Inten    --      0.1600                 1.4759                 4.2090

                     13                     14                     15
                      A                      A                      A
 Frequencies --    205.0019               235.3721               248.7257
 Red. masses --      2.7481                 2.1412                 2.5928
 Frc consts  --      0.0680                 0.0699                 0.0945
 IR Inten    --      4.1207                 5.1163                 2.0532

                     16                     17                     18
                      A                      A                      A
 Frequencies --    277.9648               302.7124               323.4877
 Red. masses --      7.5292                 3.1784                 4.6589
 Frc consts  --      0.3428                 0.1716                 0.2872
 IR Inten    --      0.2206                11.1894                11.2821

                     19                     20                     21
                      A                      A                      A
 Frequencies --    337.8713               352.6054               406.1452
 Red. masses --      5.7101                 4.2627                 2.7133
 Frc consts  --      0.3841                 0.3123                 0.2637
 IR Inten    --      0.4866                10.0646                10.9387

                     22                     23                     24
                      A                      A                      A
 Frequencies --    422.6438               459.5686               471.0395
 Red. masses --      3.1332                 3.9121                 3.6622
 Frc consts  --      0.3297                 0.4868                 0.4787
 IR Inten    --      0.7006                19.9644                 6.3531

                     25                     26                     27
                      A                      A                      A
 Frequencies --    496.5014               519.3471               555.7016
 Red. masses --      4.5836                 3.0435                 2.1453
 Frc consts  --      0.6657                 0.4837                 0.3903
 IR Inten    --     20.7798                 3.5018                21.9437

                     28                     29                     30
                      A                      A                      A
 Frequencies --    576.9922               627.1211               646.8859
 Red. masses --      1.5588                 1.5719                 6.1671
 Frc consts  --      0.3058                 0.3642                 1.5205
 IR Inten    --     30.1148               108.0411                 6.1757

                     31                     32                     33
                      A                      A                      A
 Frequencies --    673.3021               705.4947               718.1583
 Red. masses --      5.0189                 3.9244                 4.5829
 Frc consts  --      1.3405                 1.1508                 1.3926
 IR Inten    --      5.3206                37.3850                16.1903

                     34                     35                     36
                      A                      A                      A
 Frequencies --    747.5866               770.9876               792.6581
 Red. masses --      6.5174                 4.8265                 1.4221
 Frc consts  --      2.1461                 1.6903                 0.5264
 IR Inten    --     34.9604                32.0320                13.1671

                     37                     38                     39
                      A                      A                      A
 Frequencies --    813.4488               835.5753               844.5662
 Red. masses --      6.7157                 2.9749                 1.5537
 Frc consts  --      2.6182                 1.2238                 0.6530
 IR Inten    --     19.0180                 7.3772                 9.1523

                     40                     41                     42
                      A                      A                      A
 Frequencies --    862.4215               875.5136               904.5464
 Red. masses --      1.7955                 2.8871                 1.5867
 Frc consts  --      0.7868                 1.3039                 0.7649
 IR Inten    --     17.9233                 2.1793                 8.1453

                     43                     44                     45
                      A                      A                      A
 Frequencies --    921.1450               972.4706               984.1772
 Red. masses --      2.8509                 1.3223                 1.3121
 Frc consts  --      1.4252                 0.7368                 0.7488
 IR Inten    --      7.3402                 0.1804                 0.2447

                     46                     47                     48
                      A                      A                      A
 Frequencies --   1008.0897              1018.1270              1042.3855
 Red. masses --      7.2155                 1.6553                 2.6840
 Frc consts  --      4.3203                 1.0109                 1.7182
 IR Inten    --      4.8302                10.7949                10.3074

                     49                     50                     51
                      A                      A                      A
 Frequencies --   1086.4570              1125.8399              1146.1990
 Red. masses --      2.3696                 1.7796                 1.9985
 Frc consts  --      1.6480                 1.3290                 1.5469
 IR Inten    --     21.7474                 3.4197               107.0883

                     52                     53                     54
                      A                      A                      A
 Frequencies --   1155.9907              1186.6205              1187.0834
 Red. masses --      1.8624                 1.2730                 2.3641
 Frc consts  --      1.4664                 1.0561                 1.9628
 IR Inten    --     31.8176                 0.8754                 4.1162

                     55                     56                     57
                      A                      A                      A
 Frequencies --   1216.7783              1224.8542              1247.9375
 Red. masses --      1.1728                 1.6243                 2.9324
 Frc consts  --      1.0231                 1.4357                 2.6907
 IR Inten    --    128.5256                64.9939                91.7579

                     58                     59                     60
                      A                      A                      A
 Frequencies --   1282.9506              1311.7392              1321.4836
 Red. masses --      1.6556                 1.5769                 3.8665
 Frc consts  --      1.6055                 1.5986                 3.9782
 IR Inten    --    126.4374               326.5165               452.3705

                     61                     62                     63
                      A                      A                      A
 Frequencies --   1335.3055              1347.8188              1367.6315
 Red. masses --      1.3731                 1.3997                 7.9739
 Frc consts  --      1.4425                 1.4982                 8.7874
 IR Inten    --     50.8009                25.9031                 6.2762

                     64                     65                     66
                      A                      A                      A
 Frequencies --   1397.3567              1406.6574              1437.8922
 Red. masses --      1.3985                 1.5740                 1.4930
 Frc consts  --      1.6089                 1.8350                 1.8188
 IR Inten    --     18.6121                42.9201                38.8747

                     67                     68                     69
                      A                      A                      A
 Frequencies --   1447.0991              1453.0345              1488.5077
 Red. masses --      2.5505                 1.5098                 1.8719
 Frc consts  --      3.1468                 1.8781                 2.4437
 IR Inten    --     11.5414                 9.1080                26.7603

                     70                     71                     72
                      A                      A                      A
 Frequencies --   1492.8545              1511.8644              1511.8895
 Red. masses --      1.2145                 1.5715                 1.2777
 Frc consts  --      1.5947                 2.1164                 1.7208
 IR Inten    --     16.4810                47.9689                34.7103

                     73                     74                     75
                      A                      A                      A
 Frequencies --   1516.7028              1525.1016              1525.5105
 Red. masses --      1.0723                 1.1423                 1.0593
 Frc consts  --      1.4533                 1.5654                 1.4524
 IR Inten    --      1.4938                 6.4854                 4.9680

                     76                     77                     78
                      A                      A                      A
 Frequencies --   1533.0607              1538.8514              1568.2398
 Red. masses --      1.1272                 1.0657                 2.7512
 Frc consts  --      1.5608                 1.4869                 3.9865
 IR Inten    --     23.2022                 4.3633                53.9068

                     79                     80                     81
                      A                      A                      A
 Frequencies --   1639.2442              1671.4822              1767.0418
 Red. masses --      6.3440                 5.8475                 8.9975
 Frc consts  --     10.0438                 9.6256                16.5526
 IR Inten    --      2.7388               194.1042               653.0608

                     82                     83                     84
                      A                      A                      A
 Frequencies --   1786.2209              1801.2434              3044.2476
 Red. masses --      8.5252                11.6433                 1.0590
 Frc consts  --     16.0260                22.2572                 5.7823
 IR Inten    --    239.5743               228.0623                 9.0536

                     85                     86                     87
                      A                      A                      A
 Frequencies --   3047.1500              3071.7030              3075.3416
 Red. masses --      1.0392                 1.0890                 1.0295
 Frc consts  --      5.6853                 6.0540                 5.7365
 IR Inten    --     29.2262                 3.9925                42.5914

                     88                     89                     90
                      A                      A                      A
 Frequencies --   3087.4388              3111.0966              3123.8658
 Red. masses --      1.0795                 1.1017                 1.1012
 Frc consts  --      6.0629                 6.2824                 6.3317
 IR Inten    --     40.8292                87.9187                27.7074

                     91                     92                     93
                      A                      A                      A
 Frequencies --   3149.5291              3150.8513              3181.5989
 Red. masses --      1.1074                 1.1000                 1.1071
 Frc consts  --      6.4723                 6.4340                 6.6031
 IR Inten    --     20.9692                 3.8515                17.5116

                     94                     95                     96
                      A                      A                      A
 Frequencies --   3193.5003              3231.1150              3231.5516
 Red. masses --      1.0901                 1.0892                 1.0912
 Frc consts  --      6.5499                 6.6999                 6.7140
 IR Inten    --     10.4027                 2.0177                 2.7605

                     97                     98                     99
                      A                      A                      A
 Frequencies --   3245.4740              3573.1631              3598.2210
 Red. masses --      1.0940                 1.0755                 1.0763
 Frc consts  --      6.7891                 8.0900                 8.2102
 IR Inten    --      4.1897                32.3243                29.0008

 - Thermochemistry -
 -------------------
 Temperature   298.150 Kelvin.  Pressure   1.00000 Atm.
 Atom     1 has atomic number  6 and mass  12.00000

 Molecular mass:   264.11101 amu.
 Principal axes and moments of inertia in atomic units:
                           1         2         3
     Eigenvalues --  2666.210549918.14641**********
           X            0.99992   0.01035  -0.00725
           Y           -0.01036   0.99995  -0.00142
           Z            0.00723   0.00150   0.99997
 This molecule is an asymmetric top.
 Rotational symmetry number  1.
 Warning -- assumption of classical behavior for rotation
           may cause significant error
 Rotational temperatures (Kelvin)      0.03249     0.00873     0.00759
 Rotational constants (GHZ):           0.67689     0.18196     0.15825
 Zero-point vibrational energy     746091.8 (Joules/Mol)
                                  178.32022 (Kcal/Mol)
 Warning -- explicit consideration of  28 degrees of freedom as
           vibrations may cause significant error
 Vibrational temperatures:     33.92    41.63    59.53    70.96    94.15
          (Kelvin)            107.14   140.60   157.78   197.42   204.93
                              226.97   247.73   294.95   338.65   357.86
                              399.93   435.54   465.43   486.12   507.32
                              584.35   608.09   661.22   677.72   714.35
                              747.22   799.53   830.16   902.29   930.72
                              968.73  1015.05  1033.27  1075.61  1109.28
                             1140.46  1170.37  1202.21  1215.14  1240.83
                             1259.67  1301.44  1325.32  1399.17  1416.01
                             1450.42  1464.86  1499.76  1563.17  1619.83
                             1649.12  1663.21  1707.28  1707.95  1750.67
                             1762.29  1795.50  1845.88  1887.30  1901.32
                             1921.21  1939.21  1967.72  2010.48  2023.87
                             2068.81  2082.05  2090.59  2141.63  2147.88
                             2175.24  2175.27  2182.20  2194.28  2194.87
                             2205.73  2214.06  2256.35  2358.51  2404.89
                             2542.38  2569.97  2591.59  4379.99  4384.17
                             4419.50  4424.73  4442.14  4476.17  4494.55
                             4531.47  4533.37  4577.61  4594.73  4648.85
                             4649.48  4669.51  5140.98  5177.04

 Zero-point correction=                           0.284171 (Hartree/Particle)
 Thermal correction to Energy=                    0.303311
 Thermal correction to Enthalpy=                  0.304255
 Thermal correction to Gibbs Free Energy=         0.234267
 Sum of electronic and zero-point Energies=           -915.235095
 Sum of electronic and thermal Energies=              -915.215955
 Sum of electronic and thermal Enthalpies=            -915.215011
 Sum of electronic and thermal Free Energies=         -915.284999

                     E (Thermal)             CV                S
                      KCal/Mol        Cal/Mol-Kelvin    Cal/Mol-Kelvin
 Total                  190.331             69.487            147.303
 Electronic               0.000              0.000              0.000
 Translational            0.889              2.981             42.613
 Rotational               0.889              2.981             34.066
 Vibrational            188.553             63.525             70.624
 Vibration     1          0.593              1.985              6.308
 Vibration     2          0.593              1.984              5.901
 Vibration     3          0.594              1.981              5.192
 Vibration     4          0.595              1.978              4.844
 Vibration     5          0.597              1.971              4.286
 Vibration     6          0.599              1.966              4.032
 Vibration     7          0.603              1.951              3.499
 Vibration     8          0.606              1.941              3.275
 Vibration     9          0.614              1.916              2.842
 Vibration    10          0.616              1.911              2.771
 Vibration    11          0.621              1.894              2.577
 Vibration    12          0.626              1.877              2.412
 Vibration    13          0.640              1.833              2.088
 Vibration    14          0.655              1.787              1.838
 Vibration    15          0.662              1.765              1.740
 Vibration    16          0.679              1.714              1.546
 Vibration    17          0.694              1.669              1.402
 Vibration    18          0.708              1.628              1.292
 Vibration    19          0.718              1.600              1.222
 Vibration    20          0.729              1.570              1.155
 Vibration    21          0.771              1.457              0.940
 Vibration    22          0.785              1.421              0.883
 Vibration    23          0.817              1.340              0.767
 Vibration    24          0.828              1.314              0.735
 Vibration    25          0.852              1.258              0.667
 Vibration    26          0.874              1.207              0.611
 Vibration    27          0.911              1.127              0.532
 Vibration    28          0.933              1.081              0.491

 Optimization completed.
    -- Stationary point found.
 Normal termination of Gaussian 16 at Mon Dec 14 14:04:12 2020.

 ----------------------------------------------------------------------
 # B3LYP/6-311++G(d,p) empiricaldispersion=gd3bj scf=xqc pop=npa geom=c
 heck
 ----------------------------------------------------------------------

 -------------------------------------
 CID_5073334_JID_9924_Energie_neutraal
 -------------------------------------
 Structure from the checkpoint file:  "JID_9924.chk"
 Charge =  0 Multiplicity = 1

 SCF Done:  E(RB3LYP) =  -915.786446507     A.U. after   15 cycles
 Normal termination of Gaussian 16 at Mon Dec 14 14:11:34 2020.

 ----------------------------------------------------------------------
 # B3LYP/6-311++G(d,p) empiricaldispersion=gd3bj scf=xqc pop=npa geom=c
 heck
 ----------------------------------------------------------------------

 -----------------------------------
 CID_5073334_JID_9924_Energie_kation
 -----------------------------------
 Structure from the checkpoint file:  "JID_9924.chk"
 Charge =  1 Multiplicity = 2

 SCF Done:  E(UB3LYP) =  -915.475552042     A.U. after   31 cycles
 Normal termination of Gaussian 16 at Mon Dec 14 14:33:54 2020.
 Gaussian 16:  ES64L-G16RevA.03 25-Dec-2016

 ----------------------------------------------------------------------
 # B3LYP/6-311++G(d,p) empiricaldispersion=gd3bj scf=xqc pop=npa geom=c
 heck
 ----------------------------------------------------------------------

 ----------------------------------
 CID_5073334_JID_9924_Energie_anion
 ----------------------------------
 Structure from the checkpoint file:  "JID_9924.chk"
 Charge = -1 Multiplicity = 2

                         Standard orientation:
 ---------------------------------------------------------------------
 Center     Atomic      Atomic             Coordinates (Angstroms)
 Number     Number       Type             X           Y           Z
 ---------------------------------------------------------------------
      1          6           0        2.554490    3.047143   -0.752511
      2          6           0        3.306983    1.789010   -1.188546
      3          6           0        4.119046    1.140717   -0.059884
      4          7           0        3.298410    0.710283    1.075229
      5          6           0        2.517017   -0.395799    1.156717
      6          8           0        1.837436   -0.683603    2.133064
      7          6           0        2.586511   -1.371528   -0.027377
      8          8           0        3.651873   -1.864401   -0.374369
      9          7           0        1.398619   -1.771712   -0.583880
     10          6           0        0.089724   -1.282836   -0.408172
     11          6           0       -0.977159   -2.179818   -0.557945
     12          6           0       -2.285501   -1.734959   -0.436465
     13          6           0       -2.553146   -0.389565   -0.155732
     14          6           0       -1.485251    0.505725   -0.014196
     15          6           0       -0.174462    0.069711   -0.154161
     16          6           0       -3.971323    0.028530   -0.029454
     17          8           0       -4.924517   -0.715141   -0.159950
     18          8           0       -4.097198    1.347027    0.250745
     19          6           0       -5.447324    1.810885    0.389321
     20          1           0        1.856971    2.830628    0.064948
     21          1           0        1.976271    3.470554   -1.580069
     22          1           0        3.249061    3.819331   -0.399395
     23          1           0        2.601969    1.049253   -1.590251
     24          1           0        3.997511    2.028561   -2.007316
     25          1           0        4.672143    0.277180   -0.432781
     26          1           0        4.847030    1.856621    0.335419
     27          1           0        3.258910    1.292119    1.902952
     28          1           0        1.509243   -2.580770   -1.185693
     29          1           0       -0.770969   -3.228355   -0.754373
     30          1           0       -3.119221   -2.419609   -0.546458
     31          1           0       -1.687447    1.550799    0.188172
     32          1           0        0.637870    0.781225   -0.077422
     33          1           0       -6.005371    1.649831   -0.536815
     34          1           0       -5.952312    1.282932    1.202440
     35          1           0       -5.369234    2.875348    0.611707
 ---------------------------------------------------------------------

 SCF Done:  E(UB3LYP) =  -915.803034255     A.U. after   32 cycles

 The electronic state is 2-A.
 Alpha  occ. eigenvalues --  -19.03702 -18.96971 -18.96069 -18.95909 -14.22992
 Alpha  occ. eigenvalues --  -14.22250 -10.15110 -10.14649 -10.13242 -10.11876
 Alpha  occ. eigenvalues --  -10.11203 -10.08187 -10.07843 -10.07486 -10.04114
 Alpha  occ. eigenvalues --  -10.04000 -10.03924 -10.03846 -10.03131  -0.97423
 Alpha  occ. eigenvalues --   -0.93098  -0.90470  -0.87967  -0.81968  -0.80902
 Alpha  occ. eigenvalues --   -0.71797  -0.69175  -0.63827  -0.61847  -0.60332
 Alpha  occ. eigenvalues --   -0.60023  -0.55452  -0.51571  -0.50546  -0.48546
 Alpha  occ. eigenvalues --   -0.45602  -0.43999  -0.41421  -0.40411  -0.39476
 Alpha  occ. eigenvalues --   -0.37802  -0.36742  -0.36678  -0.35000  -0.34558
 Alpha  occ. eigenvalues --   -0.32425  -0.32257  -0.31495  -0.31397  -0.30562
 Alpha  occ. eigenvalues --   -0.30172  -0.29163  -0.28718  -0.28623  -0.28140
 Alpha  occ. eigenvalues --   -0.26507  -0.26120  -0.25554  -0.25159  -0.23687
 Alpha  occ. eigenvalues --   -0.23265  -0.21428  -0.18505  -0.17535  -0.17446
 Alpha  occ. eigenvalues --   -0.15135  -0.14359  -0.12832  -0.11754  -0.09936
 Alpha  occ. eigenvalues --    0.03787
 Alpha virt. eigenvalues --    0.06331   0.07580   0.08261   0.08806   0.09258
 Alpha virt. eigenvalues --    0.09496   0.10529   0.11016   0.11384   0.11573
 Alpha virt. eigenvalues --    0.11851   0.12086   0.12419   0.12779   0.13819

  Beta  occ. eigenvalues --  -19.03640 -18.96857 -18.95837 -18.95567 -14.22975
  Beta  occ. eigenvalues --  -14.22382 -10.15044 -10.14471 -10.12939 -10.11880
  Beta  occ. eigenvalues --  -10.11202 -10.08182 -10.07843 -10.07147 -10.04144
  Beta  occ. eigenvalues --  -10.03978 -10.03884 -10.03754 -10.02962  -0.97206
  Beta  occ. eigenvalues --   -0.92754  -0.90023  -0.87609  -0.81887  -0.80706
  Beta  occ. eigenvalues --   -0.71537  -0.69157  -0.63494  -0.61626  -0.60266
  Beta  occ. eigenvalues --   -0.59809  -0.55031  -0.51365  -0.50180  -0.48435
  Beta  occ. eigenvalues --   -0.45407  -0.43815  -0.41308  -0.40366  -0.39289
  Beta  occ. eigenvalues --   -0.37537  -0.36682  -0.36390  -0.34896  -0.34436
  Beta  occ. eigenvalues --   -0.32240  -0.31950  -0.31415  -0.31139  -0.30409
  Beta  occ. eigenvalues --   -0.29855  -0.28988  -0.28489  -0.27907  -0.27277
  Beta  occ. eigenvalues --   -0.26460  -0.25923  -0.25505  -0.24950  -0.23509
  Beta  occ. eigenvalues --   -0.22319  -0.21265  -0.17736  -0.17237  -0.16478
  Beta  occ. eigenvalues --   -0.14824  -0.14117  -0.12202  -0.11491  -0.08875
  Beta virt. eigenvalues --    0.06300   0.07569   0.08332   0.08770   0.08879
  Beta virt. eigenvalues --    0.09549   0.10450   0.10974   0.11177   0.11514
  Beta virt. eigenvalues --    0.11556   0.11913   0.12082   0.12480   0.12784

 Mulliken charges and spin densities:
               1          2
     1  C   -0.616271   0.001507
     2  C   -0.036824   0.001119
     3  C   -0.360172  -0.000928
     4  N   -0.136955  -0.002982
     5  C   -0.215518   0.056218
     6  O   -0.251334   0.037946
     7  C   -0.032572   0.178709
     8  O   -0.359082   0.119347
     9  N   -0.090054  -0.075588
    10  C   -0.044965   0.073148
    11  C   -0.422089   0.022622
    12  C   -0.606494   0.115815
    13  C    0.960134   0.066750
    14  C   -0.498634   0.138529
    15  C    0.090631   0.049267
    16  C   -0.206951   0.081695
    17  O   -0.359822   0.080521
    18  O   -0.125033   0.012101
    19  C   -0.226311  -0.001759
    20  H    0.177993   0.002382
    21  H    0.125300   0.000325
    22  H    0.117360   0.000694
    23  H    0.212502  -0.001349
    24  H    0.139474   0.000628
    25  H    0.206889   0.008050
    26  H    0.130058  -0.000100
    27  H    0.294117   0.000620
    28  H    0.250194   0.031610
    29  H    0.107199   0.012768
    30  H    0.160729  -0.006225
    31  H    0.184141  -0.004357
    32  H   -0.003218  -0.002249
    33  H    0.159386   0.001695
    34  H    0.161507   0.001803
    35  H    0.114684  -0.000337
 Sum of Mulliken charges =  -1.00000   1.00000

 Dipole moment (field-independent basis, Debye):
    X=              2.6457    Y=              6.4643    Z=             -1.7551  Tot=              7.2018
 Quadrupole moment (field-independent basis, Debye-Ang):
   XX=           -174.6964   YY=           -123.1467   ZZ=           -127.1673
   XY=              6.4588   XZ=             -4.1446   YZ=              4.3974

 Summary of Natural Population Analysis:

                                       Natural Population
                Natural  -----------------------------------------------
    Atom  No    Charge         Core      Valence    Rydberg      Total
 -----------------------------------------------------------------------
      C    1   -0.28968      0.99967     2.28544    0.00457     3.28968
      C    2   -0.19677      0.99964     2.19111    0.00602     3.19677
      C    3   -0.09198      0.99962     2.08294    0.00942     3.09198
      N    4   -0.32237      0.99967     2.81018    0.01253     3.82237
      C    5    0.31455      0.99964     1.66093    0.02488     2.68545
      O    6   -0.30024      0.99988     3.29385    0.00652     4.30024
      C    7    0.34171      0.99965     1.63483    0.02382     2.65829
      O    8   -0.29358      0.99988     3.28759    0.00611     4.29358
      N    9   -0.31991      0.99965     2.80957    0.01069     3.81991
      C   10    0.13974      0.99947     1.84984    0.01094     2.86026
      C   11   -0.12893      0.99954     2.12147    0.00792     3.12893
      C   12   -0.05620      0.99955     2.04813    0.00852     3.05620
      C   13   -0.06512      0.99945     2.05616    0.00951     3.06512
      C   14   -0.05786      0.99955     2.05008    0.00823     3.05786
      C   15   -0.12568      0.99953     2.11842    0.00774     3.12568
      C   16    0.41990      0.99964     1.55684    0.02362     2.58010
      O   17   -0.30664      0.99987     3.30087    0.00590     4.30664
      O   18   -0.28131      0.99986     3.27304    0.00841     4.28131
      C   19   -0.10486      0.99961     2.09659    0.00866     3.10486
      H   20    0.10229      0.00000     0.39682    0.00089     0.39771
      H   21    0.09894      0.00000     0.40025    0.00081     0.40106
      H   22    0.08976      0.00000     0.40925    0.00099     0.41024
      H   23    0.10495      0.00000     0.39395    0.00110     0.39505
      H   24    0.09157      0.00000     0.40729    0.00114     0.40843
      H   25    0.11535      0.00000     0.38349    0.00116     0.38465
      H   26    0.08771      0.00000     0.41128    0.00101     0.41229
      H   27    0.18885      0.00000     0.30921    0.00194     0.31115
      H   28    0.19362      0.00000     0.30439    0.00199     0.30638
      H   29    0.09297      0.00000     0.40564    0.00139     0.40703
      H   30    0.10435      0.00000     0.39458    0.00107     0.39565
      H   31    0.10078      0.00000     0.39828    0.00094     0.39922
      H   32    0.09693      0.00000     0.40147    0.00161     0.40307
      H   33    0.08688      0.00000     0.41186    0.00126     0.41312
      H   34    0.08751      0.00000     0.41123    0.00125     0.41249
      H   35    0.08276      0.00000     0.41638    0.00086     0.41724
 =======================================================================
   * Total *   -0.00000     18.99337    50.78324    0.22339    70.00000

 Normal termination of Gaussian 16 at Mon Dec 14 14:56:41 2020.
