 Gaussian 16, Revision A.03,

 -----------------------------------------------------------
 # opt freq B3LYP/6-31G(d) empiricaldispersion=gd3bj scf=xqc
 -----------------------------------------------------------

 ------------------------------
 CID_60714805_JID_9167_neutraal
 ------------------------------
 Symbolic Z-matrix:
 Charge =  0 Multiplicity = 1

 SCF Done:  E(RB3LYP) =  -1197.44978220     A.U. after   15 cycles
 SCF Done:  E(RB3LYP) =  -1197.45251173     A.U. after   13 cycles
 SCF Done:  E(RB3LYP) =  -1197.44678932     A.U. after   15 cycles
 SCF Done:  E(RB3LYP) =  -1197.45387437     A.U. after   13 cycles
 SCF Done:  E(RB3LYP) =  -1197.45412776     A.U. after   15 cycles
 SCF Done:  E(RB3LYP) =  -1197.45611541     A.U. after   14 cycles
 SCF Done:  E(RB3LYP) =  -1197.45653305     A.U. after   13 cycles
 SCF Done:  E(RB3LYP) =  -1197.45734926     A.U. after   15 cycles
 SCF Done:  E(RB3LYP) =  -1197.45776068     A.U. after   15 cycles
 SCF Done:  E(RB3LYP) =  -1197.45811298     A.U. after   13 cycles
 SCF Done:  E(RB3LYP) =  -1197.46127466     A.U. after   11 cycles
 SCF Done:  E(RB3LYP) =  -1197.46128251     A.U. after    9 cycles
 SCF Done:  E(RB3LYP) =  -1197.46128427     A.U. after    8 cycles
 SCF Done:  E(RB3LYP) =  -1197.46128445     A.U. after    8 cycles
 Optimization completed.
    -- Stationary point found.
 Normal termination of Gaussian 16 at Sun Dec 13 12:44:48 2020.

 --------------------------------------------------------------------
 #N Geom=AllCheck Guess=TCheck SCRF=Check GenChk RB3LYP/6-31G(d) Freq
 --------------------------------------------------------------------

 Structure from the checkpoint file:  "JID_9167.chk"
 ------------------------------
 CID_60714805_JID_9167_neutraal
 ------------------------------
 Charge =  0 Multiplicity = 1

 SCF Done:  E(RB3LYP) =  -1197.46128445     A.U. after    1 cycles

  Exact polarizability: 207.618  25.952 151.163  -4.684  -1.130 158.987
 Approx polarizability: 280.206  51.051 250.073  -7.165 -11.664 282.751

                      1                      2                      3
                      A                      A                      A
 Frequencies --     25.2853                32.1447                40.8259
 Red. masses --      4.8739                 4.4084                 4.6085
 Frc consts  --      0.0018                 0.0027                 0.0045
 IR Inten    --      0.2427                 0.4382                 0.8629

                      4                      5                      6
                      A                      A                      A
 Frequencies --     66.3288                81.7773               113.9839
 Red. masses --      6.1062                 5.6265                 7.1974
 Frc consts  --      0.0158                 0.0222                 0.0551
 IR Inten    --      0.3619                 0.5032                 2.4216

                      7                      8                      9
                      A                      A                      A
 Frequencies --    118.4635               179.3612               190.3457
 Red. masses --      3.7291                 2.7450                 3.7586
 Frc consts  --      0.0308                 0.0520                 0.0802
 IR Inten    --      2.3693                 2.9680                 0.8491

                     10                     11                     12
                      A                      A                      A
 Frequencies --    218.5814               237.3080               277.3876
 Red. masses --      2.7848                 1.6334                 5.9762
 Frc consts  --      0.0784                 0.0542                 0.2709
 IR Inten    --     16.3132                78.9588                10.4609

                     13                     14                     15
                      A                      A                      A
 Frequencies --    319.0553               321.8855               338.3920
 Red. masses --      4.4329                 2.1812                 3.6359
 Frc consts  --      0.2659                 0.1332                 0.2453
 IR Inten    --      1.1861                 4.1999                 2.2803

                     16                     17                     18
                      A                      A                      A
 Frequencies --    367.5439               396.4230               419.2312
 Red. masses --      4.1114                 4.8095                 3.0021
 Frc consts  --      0.3272                 0.4453                 0.3109
 IR Inten    --      3.1315                 6.2107                 0.0526

                     19                     20                     21
                      A                      A                      A
 Frequencies --    430.6563               443.4082               453.9800
 Red. masses --      3.5686                 4.9229                 6.5765
 Frc consts  --      0.3900                 0.5703                 0.7986
 IR Inten    --      0.2549                 8.4981                 0.1413

                     22                     23                     24
                      A                      A                      A
 Frequencies --    484.4272               516.1058               558.2642
 Red. masses --      3.2054                 8.1424                 2.1492
 Frc consts  --      0.4432                 1.2778                 0.3946
 IR Inten    --      1.2822                 9.1709                 1.4689

                     25                     26                     27
                      A                      A                      A
 Frequencies --    566.7759               631.3500               700.6450
 Red. masses --      4.3902                 6.4906                 2.1336
 Frc consts  --      0.8309                 1.5243                 0.6171
 IR Inten    --      3.8543                 0.3019                19.3693

                     28                     29                     30
                      A                      A                      A
 Frequencies --    714.9989               715.7777               726.8698
 Red. masses --      7.2377                 5.5791                 5.9232
 Frc consts  --      2.1800                 1.6841                 1.8438
 IR Inten    --     16.3803                 6.1775                 4.6761

                     31                     32                     33
                      A                      A                      A
 Frequencies --    744.2492               776.3897               809.7303
 Red. masses --      5.6736                 1.7338                 1.8893
 Frc consts  --      1.8516                 0.6158                 0.7298
 IR Inten    --      7.0289                36.8970                 2.1213

                     34                     35                     36
                      A                      A                      A
 Frequencies --    845.8383               856.9773               884.2554
 Red. masses --      1.2491                 2.0339                 1.8180
 Frc consts  --      0.5265                 0.8801                 0.8375
 IR Inten    --      0.1199                 3.7736                 5.9937

                     37                     38                     39
                      A                      A                      A
 Frequencies --    910.6692               926.1664               957.6375
 Red. masses --      1.7634                 1.3973                 2.3172
 Frc consts  --      0.8616                 0.7062                 1.2520
 IR Inten    --      2.1465                 3.8385                 1.5215

                     40                     41                     42
                      A                      A                      A
 Frequencies --    966.7533               982.0076               996.7552
 Red. masses --      1.3477                 2.0919                 1.2622
 Frc consts  --      0.7421                 1.1885                 0.7388
 IR Inten    --      0.1558                22.0801                 0.0998

                     43                     44                     45
                      A                      A                      A
 Frequencies --   1017.0535              1025.5903              1044.0161
 Red. masses --     12.3358                 6.7050                 5.1958
 Frc consts  --      7.5180                 4.1552                 3.3367
 IR Inten    --      3.5456                 4.3305                12.4381

                     46                     47                     48
                      A                      A                      A
 Frequencies --   1057.4222              1071.2829              1073.7126
 Red. masses --      1.7092                 1.5885                 2.2136
 Frc consts  --      1.1260                 1.0741                 1.5036
 IR Inten    --      2.6305                 4.7061                 3.2753

                     49                     50                     51
                      A                      A                      A
 Frequencies --   1091.7930              1096.5398              1101.1121
 Red. masses --      6.1221                 2.5559                 2.6153
 Frc consts  --      4.2996                 1.8107                 1.8682
 IR Inten    --      8.3909                 9.6885                66.9613

                     52                     53                     54
                      A                      A                      A
 Frequencies --   1114.2026              1131.8463              1136.5174
 Red. masses --      1.9878                 2.0973                 5.4429
 Frc consts  --      1.4539                 1.5830                 4.1422
 IR Inten    --      9.9133                 0.8192                31.4827

                     55                     56                     57
                      A                      A                      A
 Frequencies --   1150.7332              1195.8821              1209.3194
 Red. masses --      1.7403                 1.1005                 1.1322
 Frc consts  --      1.3578                 0.9273                 0.9756
 IR Inten    --     18.1842                 0.0964                 2.2976

                     58                     59                     60
                      A                      A                      A
 Frequencies --   1221.1735              1244.6947              1259.9131
 Red. masses --      1.3438                 1.3858                 1.3560
 Frc consts  --      1.1807                 1.2650                 1.2682
 IR Inten    --      1.9935                11.2490                 9.7990

                     61                     62                     63
                      A                      A                      A
 Frequencies --   1263.5498              1301.9188              1314.6969
 Red. masses --      6.8299                 1.2474                 8.7491
 Frc consts  --      6.4247                 1.2458                 8.9097
 IR Inten    --     28.9131                10.2618                12.6827

                     64                     65                     66
                      A                      A                      A
 Frequencies --   1332.8573              1338.0703              1356.0031
 Red. masses --      1.2480                 1.3630                 2.0303
 Frc consts  --      1.3063                 1.4378                 2.1996
 IR Inten    --      2.0884                 6.7178                 1.1392

                     67                     68                     69
                      A                      A                      A
 Frequencies --   1367.7919              1381.5579              1385.6724
 Red. masses --      2.7682                 1.3761                 1.3659
 Frc consts  --      3.0514                 1.5475                 1.5452
 IR Inten    --      2.2119                 1.3256                 1.2223

                     70                     71                     72
                      A                      A                      A
 Frequencies --   1391.9579              1401.4777              1404.5733
 Red. masses --      1.3738                 1.4334                 1.4098
 Frc consts  --      1.5683                 1.6588                 1.6387
 IR Inten    --      1.9176                 8.6034                 7.5464

                     73                     74                     75
                      A                      A                      A
 Frequencies --   1438.2090              1448.1473              1453.4365
 Red. masses --      8.9053                 5.8071                 1.2056
 Frc consts  --     10.8528                 7.1752                 1.5005
 IR Inten    --     22.5905                33.3368                27.7224

                     76                     77                     78
                      A                      A                      A
 Frequencies --   1509.2343              1515.2262              1517.5430
 Red. masses --      2.3867                 1.0932                 1.0852
 Frc consts  --      3.2031                 1.4787                 1.4725
 IR Inten    --      4.2594                 0.4845                 4.8097

                     79                     80                     81
                      A                      A                      A
 Frequencies --   1524.3979              1535.8780              1553.1195
 Red. masses --      1.0884                 1.0961                 2.5856
 Frc consts  --      1.4901                 1.5233                 3.6748
 IR Inten    --      9.1394                 3.5237                43.9244

                     82                     83                     84
                      A                      A                      A
 Frequencies --   1655.8756              1663.3958              3016.5354
 Red. masses --      6.1713                 5.6644                 1.0721
 Frc consts  --      9.9698                 9.2342                 5.7478
 IR Inten    --      2.6507                 8.6213                 9.7452

                     85                     86                     87
                      A                      A                      A
 Frequencies --   3023.1341              3026.9034              3040.7191
 Red. masses --      1.0767                 1.0732                 1.0624
 Frc consts  --      5.7976                 5.7933                 5.7874
 IR Inten    --      9.3800                45.0996                27.1313

                     88                     89                     90
                      A                      A                      A
 Frequencies --   3066.2558              3085.2207              3086.6752
 Red. masses --      1.0629                 1.0922                 1.0898
 Frc consts  --      5.8879                 6.1250                 6.1174
 IR Inten    --      6.6584                48.6782                 7.0803

                     91                     92                     93
                      A                      A                      A
 Frequencies --   3088.4915              3100.6147              3113.2619
 Red. masses --      1.0965                 1.0952                 1.1054
 Frc consts  --      6.1622                 6.2034                 6.3123
 IR Inten    --     53.3887                26.6307                23.5137

                     94                     95                     96
                      A                      A                      A
 Frequencies --   3193.8686              3205.4242              3214.4092
 Red. masses --      1.0859                 1.0897                 1.0939
 Frc consts  --      6.5265                 6.5965                 6.6591
 IR Inten    --      0.1274                11.2979                27.8415

                     97                     98                     99
                      A                      A                      A
 Frequencies --   3224.0492              3242.0000              3735.2319
 Red. masses --      1.0961                 1.0941                 1.0660
 Frc consts  --      6.7128                 6.7752                 8.7629
 IR Inten    --      4.4117                 0.6559                12.3145

 - Thermochemistry -
 -------------------
 Temperature   298.150 Kelvin.  Pressure   1.00000 Atm.
 Atom     1 has atomic number  6 and mass  12.00000

 Molecular mass:   276.10448 amu.
 Principal axes and moments of inertia in atomic units:
                           1         2         3
     Eigenvalues --  2843.492997670.157408327.57602
           X            0.99999   0.00002  -0.00493
           Y            0.00024   0.99860   0.05286
           Z            0.00493  -0.05286   0.99859
 This molecule is an asymmetric top.
 Rotational symmetry number  1.
 Warning -- assumption of classical behavior for rotation
           may cause significant error
 Rotational temperatures (Kelvin)      0.03046     0.01129     0.01040
 Rotational constants (GHZ):           0.63469     0.23529     0.21672
 Zero-point vibrational energy     748295.3 (Joules/Mol)
                                  178.84687 (Kcal/Mol)
 Warning -- explicit consideration of  25 degrees of freedom as
           vibrations may cause significant error
 Vibrational temperatures:     36.38    46.25    58.74    95.43   117.66
          (Kelvin)            164.00   170.44   258.06   273.87   314.49
                              341.43   399.10   459.05   463.12   486.87
                              528.81   570.36   603.18   619.62   637.97
                              653.18   696.98   742.56   803.22   815.46
                              908.37  1008.07  1028.72  1029.84  1045.80
                             1070.81  1117.05  1165.02  1216.97  1233.00
                             1272.25  1310.25  1332.55  1377.83  1390.94
                             1412.89  1434.11  1463.31  1475.60  1502.11
                             1521.39  1541.34  1544.83  1570.85  1577.68
                             1584.25  1603.09  1628.47  1635.20  1655.65
                             1720.61  1739.94  1757.00  1790.84  1812.73
                             1817.97  1873.17  1891.56  1917.68  1925.18
                             1950.99  1967.95  1987.75  1993.67  2002.72
                             2016.41  2020.87  2069.26  2083.56  2091.17
                             2171.45  2180.07  2183.41  2193.27  2209.79
                             2234.59  2382.44  2393.26  4340.12  4349.62
                             4355.04  4374.92  4411.66  4438.94  4441.04
                             4443.65  4461.09  4479.29  4595.26  4611.89
                             4624.82  4638.69  4664.51  5374.17

 Zero-point correction=                           0.285011 (Hartree/Particle)
 Thermal correction to Energy=                    0.301688
 Thermal correction to Enthalpy=                  0.302632
 Thermal correction to Gibbs Free Energy=         0.238881
 Sum of electronic and zero-point Energies=          -1197.176274
 Sum of electronic and thermal Energies=             -1197.159597
 Sum of electronic and thermal Enthalpies=           -1197.158652
 Sum of electronic and thermal Free Energies=        -1197.222403

                     E (Thermal)             CV                S
                      KCal/Mol        Cal/Mol-Kelvin    Cal/Mol-Kelvin
 Total                  189.312             64.432            134.175
 Electronic               0.000              0.000              0.000
 Translational            0.889              2.981             42.745
 Rotational               0.889              2.981             33.562
 Vibrational            187.534             58.471             57.867
 Vibration     1          0.593              1.985              6.169
 Vibration     2          0.594              1.983              5.692
 Vibration     3          0.594              1.981              5.219
 Vibration     4          0.598              1.970              4.259
 Vibration     5          0.600              1.962              3.848
 Vibration     6          0.607              1.938              3.200
 Vibration     7          0.609              1.934              3.125
 Vibration     8          0.629              1.868              2.335
 Vibration     9          0.634              1.853              2.224
 Vibration    10          0.646              1.813              1.971
 Vibration    11          0.656              1.784              1.823
 Vibration    12          0.678              1.715              1.550
 Vibration    13          0.705              1.637              1.315
 Vibration    14          0.707              1.632              1.301
 Vibration    15          0.719              1.599              1.220
 Vibration    16          0.740              1.539              1.090
 Vibration    17          0.763              1.478              0.976
 Vibration    18          0.782              1.428              0.895
 Vibration    19          0.792              1.403              0.857
 Vibration    20          0.803              1.375              0.816
 Vibration    21          0.812              1.352              0.784
 Vibration    22          0.841              1.285              0.698
 Vibration    23          0.871              1.214              0.619
 Vibration    24          0.914              1.122              0.527
 Vibration    25          0.923              1.103              0.510

                           ! Non-Optimized Parameters !
 Normal termination of Gaussian 16 at Sun Dec 13 13:02:47 2020.

 ----------------------------------------------------------------------
 # B3LYP/6-311++G(d,p) empiricaldispersion=gd3bj scf=xqc pop=npa geom=c
 heck
 ----------------------------------------------------------------------

 --------------------------------------
 CID_60714805_JID_9167_Energie_neutraal
 --------------------------------------
 Structure from the checkpoint file:  "JID_9167.chk"
 Charge =  0 Multiplicity = 1

 SCF Done:  E(RB3LYP) =  -1197.70367881     A.U. after   16 cycles
 Normal termination of Gaussian 16 at Sun Dec 13 13:11:14 2020.

 ----------------------------------------------------------------------
 # B3LYP/6-311++G(d,p) empiricaldispersion=gd3bj scf=xqc pop=npa geom=c
 heck
 ----------------------------------------------------------------------

 ------------------------------------
 CID_60714805_JID_9167_Energie_kation
 ------------------------------------
 Structure from the checkpoint file:  "JID_9167.chk"
 Charge =  1 Multiplicity = 2

 SCF Done:  E(UB3LYP) =  -1197.38809662     A.U. after   33 cycles
 SCF Done:  E(UB3LYP) =  -1197.38809662     a.u. after    1 cycles
 Normal termination of Gaussian 16 at Sun Dec 13 13:36:22 2020.
 Gaussian 16:  ES64L-G16RevA.03 25-Dec-2016

 ----------------------------------------------------------------------
 # B3LYP/6-311++G(d,p) empiricaldispersion=gd3bj scf=xqc pop=npa geom=c
 heck
 ----------------------------------------------------------------------

 -----------------------------------
 CID_60714805_JID_9167_Energie_anion
 -----------------------------------
 Structure from the checkpoint file:  "JID_9167.chk"
 Charge = -1 Multiplicity = 2

                         Standard orientation:
 ---------------------------------------------------------------------
 Center     Atomic      Atomic             Coordinates (Angstroms)
 Number     Number       Type             X           Y           Z
 ---------------------------------------------------------------------
      1          6           0        4.143674   -0.914827   -0.940335
      2          6           0        4.390392   -0.351290    0.464482
      3          6           0        3.177067    0.441763    0.974948
      4          6           0        1.909324   -0.418536    0.920014
      5          6           0        1.646961   -0.922657   -0.508760
      6          6           0        2.852782   -1.743437   -0.985965
      7          8           0        0.422241   -1.628272   -0.651909
      8         16           0        0.431207    0.425917    1.673728
      9          6           0       -0.090036    1.377763    0.296310
     10          7           0        0.603395    2.314277   -0.336018
     11          7           0       -0.150891    2.691013   -1.400400
     12          7           0       -1.271773    2.042595   -1.435224
     13          7           0       -1.260229    1.197091   -0.373398
     14          6           0       -2.317677    0.271279   -0.149552
     15          6           0       -2.712079   -0.562081   -1.195495
     16          6           0       -3.747496   -1.468298   -0.981760
     17          6           0       -4.368774   -1.546319    0.266995
     18          6           0       -3.959347   -0.709304    1.305718
     19          6           0       -2.933349    0.211848    1.099468
     20          1           0        4.060795   -0.083840   -1.654244
     21          1           0        4.995052   -1.524537   -1.264430
     22          1           0        5.277987    0.291987    0.468941
     23          1           0        4.599149   -1.180127    1.156651
     24          1           0        3.015054    1.336136    0.362043
     25          1           0        3.343209    0.783913    2.001626
     26          1           0        2.028677   -1.288714    1.582518
     27          1           0        1.542512   -0.051331   -1.163570
     28          1           0        2.955019   -2.633893   -0.346892
     29          1           0        2.645253   -2.099802   -2.000737
     30          1           0        0.366601   -2.291313    0.054367
     31          1           0       -2.198475   -0.499619   -2.147220
     32          1           0       -4.062697   -2.121282   -1.789829
     33          1           0       -5.172429   -2.258439    0.429421
     34          1           0       -4.444210   -0.763068    2.275597
     35          1           0       -2.620899    0.885173    1.890267
 ---------------------------------------------------------------------

 SCF Done:  E(UB3LYP) =  -1197.70570924     A.U. after   33 cycles
 SCF Done:  E(UB3LYP) =  -1197.70570924     a.u. after    1 cycles

 The electronic state is 2-A.
 Alpha  occ. eigenvalues --  -88.74246 -19.02155 -14.28085 -14.24363 -14.23977
 Alpha  occ. eigenvalues --  -14.20852 -10.13188 -10.12256 -10.10084 -10.10018
 Alpha  occ. eigenvalues --  -10.07618 -10.07273 -10.07191 -10.06990 -10.06931
 Alpha  occ. eigenvalues --  -10.06929 -10.06750 -10.06443 -10.06110  -7.82811
 Alpha  occ. eigenvalues --   -5.79232  -5.78836  -5.78169  -1.00588  -0.92565
 Alpha  occ. eigenvalues --   -0.83065  -0.76981  -0.74530  -0.73859  -0.67755
 Alpha  occ. eigenvalues --   -0.64692  -0.64469  -0.64115  -0.60670  -0.54456
 Alpha  occ. eigenvalues --   -0.53300  -0.51903  -0.50891  -0.49695  -0.47855
 Alpha  occ. eigenvalues --   -0.46845  -0.43317  -0.40793  -0.38559  -0.38072
 Alpha  occ. eigenvalues --   -0.36537  -0.35694  -0.35209  -0.33881  -0.33678
 Alpha  occ. eigenvalues --   -0.32829  -0.32099  -0.31420  -0.30878  -0.28246
 Alpha  occ. eigenvalues --   -0.27335  -0.26876  -0.26239  -0.25576  -0.24966
 Alpha  occ. eigenvalues --   -0.24684  -0.23819  -0.23250  -0.22494  -0.21722
 Alpha  occ. eigenvalues --   -0.20414  -0.18583  -0.17674  -0.16988  -0.16315
 Alpha  occ. eigenvalues --   -0.15283  -0.14069  -0.12532   0.04046
 Alpha virt. eigenvalues --    0.06133   0.07240   0.07638   0.08120   0.08932
 Alpha virt. eigenvalues --    0.08964   0.09469   0.09860   0.10202   0.10737
 Alpha virt. eigenvalues --    0.10935   0.11412   0.11738   0.12094   0.12699

  Beta  occ. eigenvalues --  -88.74246 -19.02146 -14.27954 -14.24094 -14.23982
  Beta  occ. eigenvalues --  -14.20837 -10.12979 -10.12259 -10.09973 -10.09873
  Beta  occ. eigenvalues --  -10.07613 -10.07253 -10.07175 -10.06989 -10.06957
  Beta  occ. eigenvalues --  -10.06891 -10.06747 -10.06363 -10.05903  -7.82809
  Beta  occ. eigenvalues --   -5.79228  -5.78838  -5.78164  -1.00337  -0.92547
  Beta  occ. eigenvalues --   -0.82787  -0.76652  -0.74352  -0.73769  -0.67604
  Beta  occ. eigenvalues --   -0.64437  -0.64316  -0.64030  -0.60535  -0.54125
  Beta  occ. eigenvalues --   -0.53143  -0.51863  -0.50758  -0.49550  -0.47774
  Beta  occ. eigenvalues --   -0.46683  -0.43204  -0.40702  -0.38396  -0.37519
  Beta  occ. eigenvalues --   -0.36470  -0.35650  -0.35116  -0.33793  -0.33456
  Beta  occ. eigenvalues --   -0.32714  -0.32047  -0.31341  -0.30773  -0.28183
  Beta  occ. eigenvalues --   -0.27093  -0.26465  -0.26129  -0.25476  -0.24870
  Beta  occ. eigenvalues --   -0.24608  -0.23733  -0.23115  -0.22224  -0.21580
  Beta  occ. eigenvalues --   -0.19840  -0.18180  -0.17457  -0.16782  -0.15909
  Beta  occ. eigenvalues --   -0.14871  -0.13226  -0.12363
  Beta virt. eigenvalues --    0.06495   0.07251   0.07920   0.08244   0.08436
  Beta virt. eigenvalues --    0.08955   0.09099   0.09563   0.10170   0.10541
  Beta virt. eigenvalues --    0.11018   0.11191   0.11665   0.12095   0.12505

 Mulliken charges and spin densities:
               1          2
     1  C   -0.308556  -0.014531
     2  C    0.177718  -0.651506
     3  C   -0.600882   0.082373
     4  C    0.739920  -0.180126
     5  C   -0.630037  -0.247355
     6  C    0.034468  -0.298925
     7  O   -0.082279   0.000635
     8  S    0.099130   0.001900
     9  C   -0.950820   0.188191
    10  N   -0.058054   0.012163
    11  N    0.184210  -0.011809
    12  N   -0.092815   0.120120
    13  N    0.593271   0.032573
    14  C   -0.884656   0.069180
    15  C    0.367328   0.050193
    16  C   -0.143683  -0.008513
    17  C   -0.490594   0.139518
    18  C   -0.251313   0.018963
    19  C    0.255831   0.045258
    20  H    0.139092  -0.023273
    21  H   -0.048626   0.225062
    22  H    0.022534   0.137759
    23  H   -0.127628   0.259435
    24  H    0.208000   0.013374
    25  H    0.053607   0.087123
    26  H   -0.344104   0.623550
    27  H    0.267979  -0.022857
    28  H   -0.117065   0.252395
    29  H    0.112837   0.061129
    30  H    0.179830   0.034727
    31  H    0.147248  -0.002879
    32  H    0.146935   0.009892
    33  H    0.112359  -0.012451
    34  H    0.149059   0.000805
    35  H    0.139760   0.007908
 Sum of Mulliken charges =  -1.00000   1.00000

 Dipole moment (field-independent basis, Debye):
    X=             -0.8066    Y=             -2.7131    Z=              0.5780  Tot=              2.8889
 Quadrupole moment (field-independent basis, Debye-Ang):
   XX=           -169.8849   YY=           -157.9560   ZZ=           -143.2178
   XY=              7.9585   XZ=             -9.4851   YZ=             10.2531

 Summary of Natural Population Analysis:

                                       Natural Population
                Natural  -----------------------------------------------
    Atom  No    Charge         Core      Valence    Rydberg      Total
 -----------------------------------------------------------------------
      C    1   -0.19163      0.99963     2.18362    0.00838     3.19163
      C    2   -0.18928      0.99962     2.18123    0.00842     3.18928
      C    3   -0.20344      0.99959     2.19223    0.01162     3.20344
      C    4   -0.15441      0.99951     2.13804    0.01686     3.15441
      C    5    0.05080      0.99948     1.93527    0.01445     2.94920
      C    6   -0.19618      0.99961     2.18692    0.00965     3.19618
      O    7   -0.36488      0.99989     3.35807    0.00692     4.36488
      S    8    0.12208      4.99952     2.85927    0.01913     7.87792
      C    9    0.12904      0.99955     1.84813    0.02328     2.87096
      N   10   -0.18066      0.99967     2.66804    0.01295     3.68066
      N   11   -0.05847      0.99981     2.54017    0.01849     3.55847
      N   12   -0.00632      0.99978     2.49277    0.01378     3.50632
      N   13   -0.10777      0.99955     2.59149    0.01673     3.60777
      C   14    0.09253      0.99946     1.89601    0.01200     2.90747
      C   15   -0.07255      0.99952     2.06535    0.00767     3.07255
      C   16   -0.11095      0.99958     2.10272    0.00865     3.11095
      C   17   -0.07092      0.99958     2.06252    0.00882     3.07092
      C   18   -0.10812      0.99958     2.10019    0.00835     3.10812
      C   19   -0.09080      0.99952     2.08131    0.00997     3.09080
      H   20    0.09481      0.00000     0.40400    0.00119     0.40519
      H   21    0.09769      0.00000     0.40142    0.00089     0.40231
      H   22    0.09819      0.00000     0.40105    0.00076     0.40181
      H   23    0.09490      0.00000     0.40371    0.00140     0.40510
      H   24    0.11037      0.00000     0.38786    0.00177     0.38963
      H   25    0.10320      0.00000     0.39563    0.00117     0.39680
      H   26    0.10202      0.00000     0.39558    0.00240     0.39798
      H   27    0.09350      0.00000     0.40389    0.00261     0.40650
      H   28    0.09407      0.00000     0.40459    0.00134     0.40593
      H   29    0.10262      0.00000     0.39651    0.00087     0.39738
      H   30    0.22667      0.00000     0.27044    0.00289     0.27333
      H   31    0.10826      0.00000     0.39086    0.00088     0.39174
      H   32    0.09550      0.00000     0.40355    0.00095     0.40450
      H   33    0.09152      0.00000     0.40751    0.00097     0.40848
      H   34    0.09553      0.00000     0.40361    0.00086     0.40447
      H   35    0.10305      0.00000     0.39589    0.00106     0.39695
 =======================================================================
   * Total *   -0.00000     22.99244    49.74943    0.25814    73.00000

 Normal termination of Gaussian 16 at Sun Dec 13 14:01:29 2020.
