 Gaussian 16, Revision A.03,

 -----------------------------------------------------------
 # opt freq B3LYP/6-31G(d) empiricaldispersion=gd3bj scf=xqc
 -----------------------------------------------------------

 ------------------------------
 CID_81949462_JID_8238_neutraal
 ------------------------------
 Symbolic Z-matrix:
 Charge =  0 Multiplicity = 1

 SCF Done:  E(RB3LYP) =  -868.446738192     A.U. after   15 cycles
 SCF Done:  E(RB3LYP) =  -868.452437672     A.U. after   13 cycles
 SCF Done:  E(RB3LYP) =  -868.453177579     A.U. after   13 cycles
 SCF Done:  E(RB3LYP) =  -868.454261944     A.U. after   13 cycles
 SCF Done:  E(RB3LYP) =  -868.454826516     A.U. after   12 cycles
 SCF Done:  E(RB3LYP) =  -868.454965015     A.U. after   12 cycles
 SCF Done:  E(RB3LYP) =  -868.454976184     A.U. after   12 cycles
 SCF Done:  E(RB3LYP) =  -868.455179168     A.U. after   11 cycles
 SCF Done:  E(RB3LYP) =  -868.455438624     A.U. after   12 cycles
 SCF Done:  E(RB3LYP) =  -868.455401341     A.U. after   13 cycles
 SCF Done:  E(RB3LYP) =  -868.459316189     A.U. after   11 cycles
 SCF Done:  E(RB3LYP) =  -868.459319900     A.U. after   10 cycles
 SCF Done:  E(RB3LYP) =  -868.459321222     A.U. after   10 cycles
 SCF Done:  E(RB3LYP) =  -868.459321804     A.U. after    8 cycles
 SCF Done:  E(RB3LYP) =  -868.459321938     A.U. after    7 cycles
 Optimization completed.
    -- Stationary point found.
 Normal termination of Gaussian 16 at Fri Dec 11 19:59:26 2020.

 --------------------------------------------------------------------
 #N Geom=AllCheck Guess=TCheck SCRF=Check GenChk RB3LYP/6-31G(d) Freq
 --------------------------------------------------------------------

 Structure from the checkpoint file:  "JID_8238.chk"
 ------------------------------
 CID_81949462_JID_8238_neutraal
 ------------------------------
 Charge =  0 Multiplicity = 1

 SCF Done:  E(RB3LYP) =  -868.459321938     A.U. after    1 cycles

  Exact polarizability: 154.134  25.344 136.891 -12.201   7.369 123.031
 Approx polarizability: 223.528  49.506 215.164 -22.678  26.349 220.945

                      1                      2                      3
                      A                      A                      A
 Frequencies --      8.7840                41.8038                50.3226
 Red. masses --      5.7483                 4.0614                 5.2680
 Frc consts  --      0.0003                 0.0042                 0.0079
 IR Inten    --      0.2058                 0.2012                 0.2272

                      4                      5                      6
                      A                      A                      A
 Frequencies --     69.9279                84.9206               106.5096
 Red. masses --      9.1804                 6.5203                 5.3091
 Frc consts  --      0.0264                 0.0277                 0.0355
 IR Inten    --      0.2065                 2.5600                 2.7676

                      7                      8                      9
                      A                      A                      A
 Frequencies --    127.7676               134.4577               185.4979
 Red. masses --      3.6243                 2.8149                 3.5801
 Frc consts  --      0.0349                 0.0300                 0.0726
 IR Inten    --      2.7843                 0.9888                 0.8218

                     10                     11                     12
                      A                      A                      A
 Frequencies --    194.6117               219.2959               253.8965
 Red. masses --      3.7760                 1.4339                 1.6612
 Frc consts  --      0.0843                 0.0406                 0.0631
 IR Inten    --      2.5869                 0.6345                 0.7057

                     13                     14                     15
                      A                      A                      A
 Frequencies --    260.6037               308.1041               318.2052
 Red. masses --      2.5150                 3.3678                 2.0664
 Frc consts  --      0.1006                 0.1884                 0.1233
 IR Inten    --      0.6012                 1.0783                 0.2014

                     16                     17                     18
                      A                      A                      A
 Frequencies --    327.9953               362.1278               397.6444
 Red. masses --      2.8474                 2.5276                 5.6034
 Frc consts  --      0.1805                 0.1953                 0.5220
 IR Inten    --      0.2873                 6.7213                 1.0028

                     19                     20                     21
                      A                      A                      A
 Frequencies --    403.7396               464.8055               480.5627
 Red. masses --      7.0061                 3.4178                 3.5269
 Frc consts  --      0.6729                 0.4351                 0.4799
 IR Inten    --      2.7920                 1.5796                25.8920

                     22                     23                     24
                      A                      A                      A
 Frequencies --    512.0849               535.1562               559.6318
 Red. masses --      1.6884                 2.9525                 2.9318
 Frc consts  --      0.2609                 0.4982                 0.5410
 IR Inten    --     48.7444                12.9096                17.3118

                     25                     26                     27
                      A                      A                      A
 Frequencies --    619.4853               671.3097               697.7559
 Red. masses --      1.4760                 3.7674                 3.3465
 Frc consts  --      0.3337                 1.0003                 0.9599
 IR Inten    --     98.2375                 8.1731                14.5753

                     28                     29                     30
                      A                      A                      A
 Frequencies --    709.2154               722.4163               747.9432
 Red. masses --      4.8601                 5.9872                 9.3151
 Frc consts  --      1.4403                 1.8410                 3.0703
 IR Inten    --     22.8787                10.0632                 7.2851

                     31                     32                     33
                      A                      A                      A
 Frequencies --    766.9960               796.4583               797.7455
 Red. masses --      4.2635                 1.3835                 3.9715
 Frc consts  --      1.4778                 0.5171                 1.4891
 IR Inten    --      8.5838                10.1727                17.9000

                     34                     35                     36
                      A                      A                      A
 Frequencies --    822.3810               855.3351               896.6388
 Red. masses --      1.2626                 2.0893                 1.3418
 Frc consts  --      0.5031                 0.9006                 0.6356
 IR Inten    --     59.3312                 5.0537                 1.8670

                     37                     38                     39
                      A                      A                      A
 Frequencies --    943.7191               946.6322               977.2886
 Red. masses --      5.4112                 1.9725                 2.0232
 Frc consts  --      2.8394                 1.0414                 1.1385
 IR Inten    --     24.0126                11.3919                 0.4854

                     40                     41                     42
                      A                      A                      A
 Frequencies --    986.1073              1016.7142              1029.1552
 Red. masses --      4.7376                 2.8865                 3.0062
 Frc consts  --      2.7143                 1.7580                 1.8760
 IR Inten    --     15.0439                 2.3250                 1.1218

                     43                     44                     45
                      A                      A                      A
 Frequencies --   1041.3641              1064.8840              1086.4006
 Red. masses --      1.9644                 1.4420                 2.0272
 Frc consts  --      1.2551                 0.9634                 1.4097
 IR Inten    --      8.7395                11.8912                32.8469

                     46                     47                     48
                      A                      A                      A
 Frequencies --   1094.9916              1128.1405              1139.9711
 Red. masses --      3.0549                 4.5323                 2.7167
 Frc consts  --      2.1581                 3.3986                 2.0801
 IR Inten    --     12.4054                14.6900                22.5475

                     49                     50                     51
                      A                      A                      A
 Frequencies --   1161.8632              1182.1417              1194.0674
 Red. masses --      3.0701                 4.8247                 2.4587
 Frc consts  --      2.4418                 3.9725                 2.0655
 IR Inten    --    213.2829                11.0048                 8.7315

                     52                     53                     54
                      A                      A                      A
 Frequencies --   1221.4082              1258.9243              1269.3739
 Red. masses --      2.7755                 2.5285                 3.3891
 Frc consts  --      2.4395                 2.3611                 3.2175
 IR Inten    --      4.6450                17.9152                 5.2615

                     55                     56                     57
                      A                      A                      A
 Frequencies --   1290.2084              1317.4493              1344.1310
 Red. masses --      2.0956                 2.2235                 1.3926
 Frc consts  --      2.0553                 2.2738                 1.4824
 IR Inten    --     15.0764                10.8404                10.7064

                     58                     59                     60
                      A                      A                      A
 Frequencies --   1349.7098              1373.2500              1386.2632
 Red. masses --      3.6945                 2.1702                 1.9446
 Frc consts  --      3.9654                 2.4112                 2.2017
 IR Inten    --      4.9037                 6.4538                26.3005

                     61                     62                     63
                      A                      A                      A
 Frequencies --   1400.4642              1410.8285              1441.5373
 Red. masses --      1.4148                 1.5515                 1.2674
 Frc consts  --      1.6349                 1.8195                 1.5518
 IR Inten    --      3.1991                15.1416                 3.7692

                     64                     65                     66
                      A                      A                      A
 Frequencies --   1441.8569              1446.8000              1450.6946
 Red. masses --      3.1640                 1.2911                 4.2020
 Frc consts  --      3.8755                 1.5923                 5.2102
 IR Inten    --     41.7644                 4.8513                17.3957

                     67                     68                     69
                      A                      A                      A
 Frequencies --   1479.4318              1504.5370              1508.0144
 Red. masses --      2.6813                 1.2041                 1.0766
 Frc consts  --      3.4577                 1.6058                 1.4424
 IR Inten    --     22.3195                 7.5148                 2.5532

                     70                     71                     72
                      A                      A                      A
 Frequencies --   1524.5082              1531.1646              1541.9718
 Red. masses --      1.0514                 1.0718                 1.0495
 Frc consts  --      1.4398                 1.4804                 1.4702
 IR Inten    --      4.6557                21.7121                 5.8914

                     73                     74                     75
                      A                      A                      A
 Frequencies --   1544.3635              1547.8044              1663.8991
 Red. masses --      1.6380                 1.6764                 6.7465
 Frc consts  --      2.3018                 2.3663                11.0048
 IR Inten    --     20.3447                 5.0775                 8.4904

                     76                     77                     78
                      A                      A                      A
 Frequencies --   1846.7488              3052.2798              3061.8133
 Red. masses --     10.1871                 1.0661                 1.0382
 Frc consts  --     20.4700                 5.8521                 5.7343
 IR Inten    --    213.7141                24.4851                11.3715

                     79                     80                     81
                      A                      A                      A
 Frequencies --   3065.0561              3109.2970              3115.8805
 Red. masses --      1.0383                 1.0971                 1.0587
 Frc consts  --      5.7474                 6.2491                 6.0560
 IR Inten    --     27.0765                 3.0375                11.8274

                     82                     83                     84
                      A                      A                      A
 Frequencies --   3126.8995              3135.4397              3150.7690
 Red. masses --      1.1002                 1.0983                 1.1020
 Frc consts  --      6.3381                 6.3617                 6.4456
 IR Inten    --     34.0420                18.0141                15.8775

                     85                     86                     87
                      A                      A                      A
 Frequencies --   3154.4442              3171.6676              3268.7087
 Red. masses --      1.1029                 1.1077                 1.0947
 Frc consts  --      6.4660                 6.5653                 6.8912
 IR Inten    --     12.7481                 5.3939                 5.3344

                     88                     89                     90
                      A                      A                      A
 Frequencies --   3298.4530              3658.5605              3690.1199
 Red. masses --      1.1005                 1.0812                 1.0642
 Frc consts  --      7.0542                 8.5268                 8.5377
 IR Inten    --      0.3840                60.4384                72.2175

 - Thermochemistry -
 -------------------
 Temperature   298.150 Kelvin.  Pressure   1.00000 Atm.
 Atom     1 has atomic number  6 and mass  12.00000

 Molecular mass:   250.11782 amu.
 Principal axes and moments of inertia in atomic units:
                           1         2         3
     Eigenvalues --  2810.057585341.502186608.64144
           X            0.99978  -0.01854  -0.00990
           Y            0.01832   0.99959  -0.02190
           Z            0.01031   0.02172   0.99971
 This molecule is an asymmetric top.
 Rotational symmetry number  1.
 Warning -- assumption of classical behavior for rotation
           may cause significant error
 Rotational temperatures (Kelvin)      0.03082     0.01622     0.01311
 Rotational constants (GHZ):           0.64224     0.33787     0.27309
 Zero-point vibrational energy     673858.3 (Joules/Mol)
                                  161.05600 (Kcal/Mol)
 Warning -- explicit consideration of  25 degrees of freedom as
           vibrations may cause significant error
 Vibrational temperatures:     12.64    60.15    72.40   100.61   122.18
          (Kelvin)            153.24   183.83   193.45   266.89   280.00
                              315.52   365.30   374.95   443.29   457.83
                              471.91   521.02   572.12   580.89   668.75
                              691.42   736.78   769.97   805.19   891.30
                              965.86  1003.92  1020.40  1039.40  1076.12
                             1103.54  1145.93  1147.78  1183.22  1230.64
                             1290.06  1357.80  1361.99  1406.10  1418.79
                             1462.83  1480.72  1498.29  1532.13  1563.09
                             1575.45  1623.14  1640.16  1671.66  1700.84
                             1718.00  1757.33  1811.31  1826.35  1856.32
                             1895.52  1933.90  1941.93  1975.80  1994.52
                             2014.96  2029.87  2074.05  2074.51  2081.62
                             2087.23  2128.57  2164.69  2169.70  2193.43
                             2203.00  2218.55  2221.99  2226.95  2393.98
                             2657.06  4391.55  4405.27  4409.93  4473.58
                             4483.06  4498.91  4511.20  4533.25  4538.54
                             4563.32  4702.94  4745.74  5263.85  5309.26

 Zero-point correction=                           0.256659 (Hartree/Particle)
 Thermal correction to Energy=                    0.273379
 Thermal correction to Enthalpy=                  0.274323
 Thermal correction to Gibbs Free Energy=         0.210012
 Sum of electronic and zero-point Energies=           -868.202663
 Sum of electronic and thermal Energies=              -868.185943
 Sum of electronic and thermal Enthalpies=            -868.184999
 Sum of electronic and thermal Free Energies=         -868.249310

                     E (Thermal)             CV                S
                      KCal/Mol        Cal/Mol-Kelvin    Cal/Mol-Kelvin
 Total                  171.548             62.184            135.354
 Electronic               0.000              0.000              0.000
 Translational            0.889              2.981             42.451
 Rotational               0.889              2.981             32.961
 Vibrational            169.770             56.222             59.942
 Vibration     1          0.593              1.987              8.269
 Vibration     2          0.594              1.980              5.172
 Vibration     3          0.595              1.977              4.805
 Vibration     4          0.598              1.968              4.155
 Vibration     5          0.601              1.960              3.774
 Vibration     6          0.605              1.944              3.332
 Vibration     7          0.611              1.925              2.979
 Vibration     8          0.613              1.919              2.881
 Vibration     9          0.632              1.860              2.272
 Vibration    10          0.635              1.847              2.183
 Vibration    11          0.647              1.812              1.965
 Vibration    12          0.665              1.756              1.703
 Vibration    13          0.669              1.745              1.658
 Vibration    14          0.698              1.658              1.372
 Vibration    15          0.705              1.639              1.319
 Vibration    16          0.711              1.620              1.270
 Vibration    17          0.736              1.550              1.113
 Vibration    18          0.764              1.475              0.971
 Vibration    19          0.769              1.462              0.949
 Vibration    20          0.822              1.328              0.752
 Vibration    21          0.837              1.293              0.709
 Vibration    22          0.867              1.223              0.629
 Vibration    23          0.890              1.172              0.576
 Vibration    24          0.915              1.119              0.525
 Vibration    25          0.979              0.991              0.417

 Optimization completed.
    -- Stationary point found.
 Normal termination of Gaussian 16 at Fri Dec 11 20:12:32 2020.

 ----------------------------------------------------------------------
 # B3LYP/6-311++G(d,p) empiricaldispersion=gd3bj scf=xqc pop=npa geom=c
 heck
 ----------------------------------------------------------------------

 --------------------------------------
 CID_81949462_JID_8238_Energie_neutraal
 --------------------------------------
 Structure from the checkpoint file:  "JID_8238.chk"
 Charge =  0 Multiplicity = 1

 SCF Done:  E(RB3LYP) =  -868.704919199     A.U. after   15 cycles
 Normal termination of Gaussian 16 at Fri Dec 11 20:17:43 2020.

 ----------------------------------------------------------------------
 # B3LYP/6-311++G(d,p) empiricaldispersion=gd3bj scf=xqc pop=npa geom=c
 heck
 ----------------------------------------------------------------------

 ------------------------------------
 CID_81949462_JID_8238_Energie_kation
 ------------------------------------
 Structure from the checkpoint file:  "JID_8238.chk"
 Charge =  1 Multiplicity = 2

 SCF Done:  E(UB3LYP) =  -868.369199636     A.U. after   26 cycles
 Normal termination of Gaussian 16 at Fri Dec 11 20:29:22 2020.
 Gaussian 16:  ES64L-G16RevA.03 25-Dec-2016

 ----------------------------------------------------------------------
 # B3LYP/6-311++G(d,p) empiricaldispersion=gd3bj scf=xqc pop=npa geom=c
 heck
 ----------------------------------------------------------------------

 -----------------------------------
 CID_81949462_JID_8238_Energie_anion
 -----------------------------------
 Structure from the checkpoint file:  "JID_8238.chk"
 Charge = -1 Multiplicity = 2

                         Standard orientation:
 ---------------------------------------------------------------------
 Center     Atomic      Atomic             Coordinates (Angstroms)
 Number     Number       Type             X           Y           Z
 ---------------------------------------------------------------------
      1          6           0        1.371367   -2.534302    1.557123
      2          6           0        0.670563   -1.455559    0.726735
      3          6           0        1.527707   -0.819967   -0.387777
      4          6           0        2.144125   -1.884240   -1.317862
      5          6           0        0.651656    0.095056   -1.284300
      6          7           0       -0.001513    1.179324   -0.559627
      7          6           0       -1.207130    1.259552    0.063474
      8          7           0       -1.249695    2.401910    0.735214
      9          7           0       -0.055528    3.010254    0.519932
     10          7           0        0.700900    2.298371   -0.249653
     11          6           0       -2.263557    0.265490    0.022594
     12          6           0       -3.056813   -0.235838    1.040499
     13          6           0       -3.883464   -1.193296    0.413372
     14          7           0       -3.641320   -1.284050   -0.895094
     15          7           0       -2.642189   -0.404158   -1.110386
     16          6           0        2.634737    0.042847    0.225140
     17          8           0        2.777169    0.277593    1.402434
     18          8           0        3.460458    0.544422   -0.725014
     19          1           0        1.639048   -3.407986    0.953782
     20          1           0        0.704166   -2.879117    2.353740
     21          1           0        2.276919   -2.141302    2.026138
     22          1           0       -0.225204   -1.882896    0.258310
     23          1           0        0.330494   -0.661563    1.397715
     24          1           0        1.357615   -2.545075   -1.699749
     25          1           0        2.657794   -1.422050   -2.164634
     26          1           0        2.869800   -2.500656   -0.781954
     27          1           0        1.259455    0.558230   -2.062587
     28          1           0       -0.121059   -0.516114   -1.753370
     29          1           0       -3.014878    0.049464    2.080447
     30          1           0       -4.643703   -1.819888    0.859434
     31          1           0       -2.379844   -0.196697   -2.062627
     32          1           0        4.078649    1.139502   -0.260687
 ---------------------------------------------------------------------

 SCF Done:  E(UB3LYP) =  -868.709982803     A.U. after   33 cycles
 SCF Done:  E(UB3LYP) =  -868.709982803     a.u. after    1 cycles

 The electronic state is 2-A.
 Alpha  occ. eigenvalues --  -19.07808 -19.02022 -14.27439 -14.26915 -14.24119
 Alpha  occ. eigenvalues --  -14.23814 -14.21528 -14.20416 -10.20888 -10.12073
 Alpha  occ. eigenvalues --  -10.12004 -10.10952 -10.10251 -10.08148 -10.07597
 Alpha  occ. eigenvalues --  -10.07095 -10.06477 -10.05467  -1.01814  -1.00391
 Alpha  occ. eigenvalues --   -0.93577  -0.92828  -0.82789  -0.76664  -0.73695
 Alpha  occ. eigenvalues --   -0.70715  -0.67358  -0.65133  -0.61682  -0.57512
 Alpha  occ. eigenvalues --   -0.54853  -0.53572  -0.51891  -0.49772  -0.48231
 Alpha  occ. eigenvalues --   -0.46617  -0.44527  -0.40157  -0.40064  -0.39360
 Alpha  occ. eigenvalues --   -0.38034  -0.35743  -0.34766  -0.34253  -0.33758
 Alpha  occ. eigenvalues --   -0.33250  -0.32656  -0.32366  -0.30733  -0.30294
 Alpha  occ. eigenvalues --   -0.29970  -0.29458  -0.28214  -0.25754  -0.25021
 Alpha  occ. eigenvalues --   -0.24566  -0.23536  -0.23177  -0.19864  -0.18957
 Alpha  occ. eigenvalues --   -0.18854  -0.18177  -0.17095  -0.16036  -0.15655
 Alpha  occ. eigenvalues --   -0.13232   0.04079
 Alpha virt. eigenvalues --    0.06585   0.07558   0.07616   0.08227   0.08654
 Alpha virt. eigenvalues --    0.09656   0.10212   0.10531   0.11112   0.11726
 Alpha virt. eigenvalues --    0.12052   0.12733   0.13470   0.13572   0.13986

  Beta  occ. eigenvalues --  -19.07797 -19.01989 -14.27171 -14.26730 -14.23869
  Beta  occ. eigenvalues --  -14.23831 -14.21322 -14.20371 -10.20863 -10.12051
  Beta  occ. eigenvalues --  -10.11817 -10.10944 -10.10178 -10.08195 -10.07568
  Beta  occ. eigenvalues --  -10.07092 -10.06469 -10.05398  -1.01775  -1.00102
  Beta  occ. eigenvalues --   -0.93278  -0.92782  -0.82478  -0.76284  -0.73629
  Beta  occ. eigenvalues --   -0.70419  -0.67121  -0.65094  -0.61557  -0.57426
  Beta  occ. eigenvalues --   -0.54692  -0.53430  -0.51584  -0.49626  -0.48097
  Beta  occ. eigenvalues --   -0.46558  -0.44346  -0.40117  -0.39866  -0.38932
  Beta  occ. eigenvalues --   -0.37919  -0.35418  -0.34579  -0.34057  -0.33637
  Beta  occ. eigenvalues --   -0.33090  -0.32377  -0.32076  -0.30654  -0.30135
  Beta  occ. eigenvalues --   -0.29904  -0.29404  -0.28168  -0.25640  -0.24969
  Beta  occ. eigenvalues --   -0.24405  -0.23468  -0.23061  -0.19014  -0.18688
  Beta  occ. eigenvalues --   -0.18459  -0.17515  -0.16770  -0.15912  -0.15129
  Beta  occ. eigenvalues --   -0.12309
  Beta virt. eigenvalues --    0.06611   0.07623   0.08078   0.08332   0.08599
  Beta virt. eigenvalues --    0.09139   0.09914   0.10547   0.10747   0.11269
  Beta virt. eigenvalues --    0.12068   0.12558   0.12922   0.13588   0.13702

 Mulliken charges and spin densities:
               1          2
     1  C   -0.332057  -0.315098
     2  C   -0.913465   0.113725
     3  C    0.597471   0.779647
     4  C    0.799664  -1.182506
     5  C   -0.387023  -0.538749
     6  N    0.127050   0.114537
     7  C   -0.375588   0.055614
     8  N   -0.035504  -0.001090
     9  N    0.003500  -0.006465
    10  N   -0.170949   0.128425
    11  C    0.227562  -0.256518
    12  C   -0.133888   0.260628
    13  C   -0.317525  -0.021724
    14  N   -0.177676   0.070144
    15  N   -0.067102   0.087312
    16  C   -0.320386  -0.155540
    17  O   -0.219186   0.008233
    18  O   -0.117749   0.019061
    19  H    0.031402   0.107345
    20  H    0.089009   0.047633
    21  H    0.176064   0.006121
    22  H    0.232244  -0.066328
    23  H    0.260487   0.007081
    24  H   -0.242180   0.416548
    25  H   -0.015677   0.193559
    26  H    0.054898   0.097206
    27  H   -0.218208   0.478628
    28  H   -0.097012   0.218181
    29  H    0.124971   0.024815
    30  H    0.082830   0.051581
    31  H    0.085001   0.221874
    32  H    0.249022   0.036121
 Sum of Mulliken charges =  -1.00000   1.00000

 Dipole moment (field-independent basis, Debye):
    X=              3.0126    Y=             -3.0119    Z=              1.0412  Tot=              4.3854
 Quadrupole moment (field-independent basis, Debye-Ang):
   XX=           -143.2830   YY=           -150.4814   ZZ=           -134.1150
   XY=             -0.9518   XZ=             -3.7629   YZ=            -11.5738

 Summary of Natural Population Analysis:

                                       Natural Population
                Natural  -----------------------------------------------
    Atom  No    Charge         Core      Valence    Rydberg      Total
 -----------------------------------------------------------------------
      C    1   -0.28600      0.99966     2.28221    0.00412     3.28600
      C    2   -0.19557      0.99961     2.18619    0.00977     3.19557
      C    3   -0.08212      0.99951     2.06972    0.01289     3.08212
      C    4   -0.28590      0.99963     2.27868    0.00758     3.28590
      C    5   -0.08369      0.99956     2.06940    0.01473     3.08369
      N    6   -0.08841      0.99962     2.57439    0.01440     3.58841
      C    7    0.18847      0.99956     1.79356    0.01841     2.81153
      N    8   -0.15779      0.99970     2.64685    0.01125     3.65779
      N    9   -0.06043      0.99981     2.54306    0.01756     3.56043
      N   10   -0.01717      0.99977     2.49890    0.01850     3.51717
      C   11    0.05645      0.99952     1.93066    0.01337     2.94355
      C   12   -0.13455      0.99952     2.12784    0.00719     3.13455
      C   13   -0.03414      0.99964     2.02020    0.01430     3.03414
      N   14   -0.13012      0.99974     2.61645    0.01392     3.63012
      N   15   -0.14833      0.99966     2.63544    0.01322     3.64833
      C   16    0.41836      0.99963     1.55268    0.02933     2.58164
      O   17   -0.30024      0.99987     3.29431    0.00606     4.30024
      O   18   -0.34612      0.99987     3.33972    0.00653     4.34612
      H   19    0.09315      0.00000     0.40601    0.00084     0.40685
      H   20    0.09953      0.00000     0.39973    0.00073     0.40047
      H   21    0.10315      0.00000     0.39594    0.00091     0.39685
      H   22    0.10292      0.00000     0.39525    0.00183     0.39708
      H   23    0.11023      0.00000     0.38803    0.00175     0.38977
      H   24    0.10513      0.00000     0.39355    0.00133     0.39487
      H   25    0.10851      0.00000     0.39025    0.00124     0.39149
      H   26    0.10182      0.00000     0.39717    0.00101     0.39818
      H   27    0.11530      0.00000     0.38245    0.00224     0.38470
      H   28    0.10801      0.00000     0.38938    0.00261     0.39199
      H   29    0.10937      0.00000     0.38982    0.00081     0.39063
      H   30    0.09359      0.00000     0.40566    0.00075     0.40641
      H   31    0.19692      0.00000     0.30029    0.00279     0.30308
      H   32    0.23966      0.00000     0.25727    0.00307     0.26034
 =======================================================================
   * Total *    0.00000     17.99389    47.75107    0.25505    66.00000

 Normal termination of Gaussian 16 at Fri Dec 11 20:44:39 2020.
