 Gaussian 16, Revision A.03,

 -----------------------------------------------------------
 # opt freq B3LYP/6-31G(d) empiricaldispersion=gd3bj scf=xqc
 -----------------------------------------------------------

 ------------------------------
 CID_53968280_JID_6185_neutraal
 ------------------------------
 Symbolic Z-matrix:
 Charge =  0 Multiplicity = 1

 SCF Done:  E(RB3LYP) =  -640.235495040     A.U. after   15 cycles
 SCF Done:  E(RB3LYP) =  -640.243780615     A.U. after   12 cycles
 SCF Done:  E(RB3LYP) =  -640.244841185     A.U. after   12 cycles
 SCF Done:  E(RB3LYP) =  -640.245569700     A.U. after   12 cycles
 SCF Done:  E(RB3LYP) =  -640.245919269     A.U. after   12 cycles
 SCF Done:  E(RB3LYP) =  -640.246416601     A.U. after   11 cycles
 SCF Done:  E(RB3LYP) =  -640.246706539     A.U. after   11 cycles
 SCF Done:  E(RB3LYP) =  -640.246852044     A.U. after   11 cycles
 SCF Done:  E(RB3LYP) =  -640.247009847     A.U. after   11 cycles
 SCF Done:  E(RB3LYP) =  -640.247068520     A.U. after   10 cycles
 SCF Done:  E(RB3LYP) =  -640.247454559     A.U. after    9 cycles
 SCF Done:  E(RB3LYP) =  -640.247455818     A.U. after   10 cycles
 SCF Done:  E(RB3LYP) =  -640.247456339     A.U. after    7 cycles
 SCF Done:  E(RB3LYP) =  -640.247457078     A.U. after    9 cycles
 SCF Done:  E(RB3LYP) =  -640.247457165     A.U. after    6 cycles
 SCF Done:  E(RB3LYP) =  -640.247457237     A.U. after    7 cycles
 Optimization completed.
    -- Stationary point found.
 Normal termination of Gaussian 16 at Thu Dec 10 21:43:59 2020.

 --------------------------------------------------------------------
 #N Geom=AllCheck Guess=TCheck SCRF=Check GenChk RB3LYP/6-31G(d) Freq
 --------------------------------------------------------------------

 Structure from the checkpoint file:  "JID_6185.chk"
 ------------------------------
 CID_53968280_JID_6185_neutraal
 ------------------------------
 Charge =  0 Multiplicity = 1

 SCF Done:  E(RB3LYP) =  -640.247457237     A.U. after    1 cycles

  Exact polarizability: 242.325  -5.416 174.110  -2.181   0.840 109.913
 Approx polarizability: 384.713 -13.152 244.493  -8.727   3.079 164.836

                      1                      2                      3
                      A                      A                      A
 Frequencies --     58.3083                60.4357                89.0979
 Red. masses --      2.8634                 2.6346                 2.1161
 Frc consts  --      0.0057                 0.0057                 0.0099
 IR Inten    --      0.3174                 0.4618                 2.0120

                      4                      5                      6
                      A                      A                      A
 Frequencies --    103.1941               108.1469               131.2049
 Red. masses --      1.8930                 1.3033                 1.6566
 Frc consts  --      0.0119                 0.0090                 0.0168
 IR Inten    --      1.1981                 0.2633                 0.7023

                      7                      8                      9
                      A                      A                      A
 Frequencies --    134.3423               145.1351               172.6815
 Red. masses --      1.6817                 1.4094                 1.1238
 Frc consts  --      0.0179                 0.0175                 0.0197
 IR Inten    --      0.5673                 0.4192                 0.1972

                     10                     11                     12
                      A                      A                      A
 Frequencies --    188.7496               197.4125               227.9615
 Red. masses --      2.3857                 2.4233                 1.8462
 Frc consts  --      0.0501                 0.0556                 0.0565
 IR Inten    --      0.7396                 2.2233                 0.1869

                     13                     14                     15
                      A                      A                      A
 Frequencies --    236.3793               242.7137               251.5481
 Red. masses --      2.7130                 1.3813                 1.7509
 Frc consts  --      0.0893                 0.0479                 0.0653
 IR Inten    --      1.7017                 1.6517                 3.8874

                     16                     17                     18
                      A                      A                      A
 Frequencies --    259.5773               263.7544               287.0953
 Red. masses --      1.7873                 1.3967                 1.1803
 Frc consts  --      0.0710                 0.0572                 0.0573
 IR Inten    --      0.3439                 1.6172                 0.1821

                     19                     20                     21
                      A                      A                      A
 Frequencies --    304.9321               345.2924               354.8371
 Red. masses --      2.4193                 2.6862                 3.8426
 Frc consts  --      0.1325                 0.1887                 0.2851
 IR Inten    --      0.8850                 0.1916                 0.7752

                     22                     23                     24
                      A                      A                      A
 Frequencies --    383.4347               418.2666               455.6354
 Red. masses --      3.1325                 3.9558                 2.8266
 Frc consts  --      0.2713                 0.4077                 0.3457
 IR Inten    --      1.2374                 0.5653                 2.3014

                     25                     26                     27
                      A                      A                      A
 Frequencies --    462.2826               535.4916               559.1834
 Red. masses --      3.5760                 4.4182                 2.9913
 Frc consts  --      0.4503                 0.7465                 0.5511
 IR Inten    --      0.0217                 1.7444                 2.0284

                     28                     29                     30
                      A                      A                      A
 Frequencies --    567.0270               635.5497               652.9693
 Red. masses --      4.1090                 2.9956                 3.9362
 Frc consts  --      0.7784                 0.7129                 0.9888
 IR Inten    --      0.3497                 0.6946                 8.0746

                     31                     32                     33
                      A                      A                      A
 Frequencies --    665.0881               684.7722               744.7903
 Red. masses --      3.8868                 4.2738                 5.4654
 Frc consts  --      1.0130                 1.1808                 1.7862
 IR Inten    --      1.2485                 1.7489                 0.5293

                     34                     35                     36
                      A                      A                      A
 Frequencies --    797.6331               837.2762               875.7120
 Red. masses --      2.7987                 2.5760                 2.4027
 Frc consts  --      1.0491                 1.0640                 1.0856
 IR Inten    --      1.7717                 1.3801                 0.7115

                     37                     38                     39
                      A                      A                      A
 Frequencies --    925.6605               962.4758               980.8272
 Red. masses --      2.4319                 2.4377                 1.7456
 Frc consts  --      1.2277                 1.3305                 0.9894
 IR Inten    --      8.4307                89.3722                 2.2336

                     40                     41                     42
                      A                      A                      A
 Frequencies --   1028.7428              1037.2086              1054.4626
 Red. masses --      1.7241                 1.5294                 1.4051
 Frc consts  --      1.0750                 0.9694                 0.9205
 IR Inten    --     18.4622                 1.3275                 1.4137

                     43                     44                     45
                      A                      A                      A
 Frequencies --   1057.5065              1068.0935              1081.0244
 Red. masses --      2.2171                 1.4409                 1.5606
 Frc consts  --      1.4608                 0.9685                 1.0745
 IR Inten    --      4.6577                 0.6068                 0.1086

                     46                     47                     48
                      A                      A                      A
 Frequencies --   1089.1268              1097.1913              1109.9728
 Red. masses --      1.9273                 1.4779                 1.8163
 Frc consts  --      1.3470                 1.0483                 1.3185
 IR Inten    --      9.1546                 9.1490                 4.5019

                     49                     50                     51
                      A                      A                      A
 Frequencies --   1114.1996              1134.4137              1136.9168
 Red. masses --      1.6748                 1.2887                 2.0107
 Frc consts  --      1.2250                 0.9771                 1.5313
 IR Inten    --      1.6207                12.0087                 5.0872

                     52                     53                     54
                      A                      A                      A
 Frequencies --   1162.3399              1176.8485              1180.3035
 Red. masses --      2.1544                 1.7884                 2.4095
 Frc consts  --      1.7149                 1.4593                 1.9777
 IR Inten    --     40.8883                58.4951                 3.2598

                     55                     56                     57
                      A                      A                      A
 Frequencies --   1192.2324              1242.4754              1285.9914
 Red. masses --      1.7566                 3.4359                 1.8653
 Frc consts  --      1.4711                 3.1251                 1.8175
 IR Inten    --     29.8740                34.5942                 4.3982

                     58                     59                     60
                      A                      A                      A
 Frequencies --   1314.3589              1331.7279              1355.6350
 Red. masses --      3.2788                 1.2533                 1.7991
 Frc consts  --      3.3372                 1.3096                 1.9480
 IR Inten    --     25.2110                 3.5228                 3.3611

                     61                     62                     63
                      A                      A                      A
 Frequencies --   1372.8745              1379.9341              1391.8608
 Red. masses --      2.2998                 2.4188                 3.1860
 Frc consts  --      2.5539                 2.7137                 3.6365
 IR Inten    --      9.9946                53.1491                 4.2214

                     64                     65                     66
                      A                      A                      A
 Frequencies --   1430.2330              1432.8445              1436.5257
 Red. masses --      1.2435                 1.2854                 1.3722
 Frc consts  --      1.4986                 1.5548                 1.6684
 IR Inten    --      4.6815                 3.2939                 5.0117

                     67                     68                     69
                      A                      A                      A
 Frequencies --   1443.2432              1454.6486              1464.1321
 Red. masses --      1.3252                 1.2794                 2.5289
 Frc consts  --      1.6264                 1.5950                 3.1940
 IR Inten    --      2.3609                12.3413               139.6187

                     70                     71                     72
                      A                      A                      A
 Frequencies --   1472.9979              1497.7052              1505.5908
 Red. masses --      1.1701                 1.3320                 1.0651
 Frc consts  --      1.4958                 1.7604                 1.4226
 IR Inten    --      0.5988                59.0736                 1.1026

                     73                     74                     75
                      A                      A                      A
 Frequencies --   1509.0466              1512.8272              1516.0526
 Red. masses --      1.0750                 1.0670                 1.0528
 Frc consts  --      1.4423                 1.4388                 1.4257
 IR Inten    --      7.7792                 3.5390                17.1726

                     76                     77                     78
                      A                      A                      A
 Frequencies --   1517.8050              1521.4924              1522.9069
 Red. masses --      1.0570                 1.0960                 1.0897
 Frc consts  --      1.4347                 1.4949                 1.4890
 IR Inten    --      6.9568                21.0565                 4.0533

                     79                     80                     81
                      A                      A                      A
 Frequencies --   1525.0365              1527.4030              1529.5811
 Red. masses --      1.0733                 1.0509                 1.0526
 Frc consts  --      1.4708                 1.4445                 1.4510
 IR Inten    --      3.3275                 4.3276                 7.3966

                     82                     83                     84
                      A                      A                      A
 Frequencies --   1531.5282              1537.0437              1541.3980
 Red. masses --      1.0765                 1.0551                 1.1164
 Frc consts  --      1.4877                 1.4687                 1.5627
 IR Inten    --      4.6948                 4.6059                 3.3275

                     85                     86                     87
                      A                      A                      A
 Frequencies --   1551.9366              1584.3139              1655.1184
 Red. masses --      1.3452                 2.3378                 5.9961
 Frc consts  --      1.9089                 3.4573                 9.6778
 IR Inten    --     20.7003               113.1025               515.6651

                     88                     89                     90
                      A                      A                      A
 Frequencies --   1694.9518              3011.0636              3017.3203
 Red. masses --      8.3085                 1.0541                 1.0393
 Frc consts  --     14.0632                 5.6309                 5.5751
 IR Inten    --     30.1558               104.9042                43.8703

                     91                     92                     93
                      A                      A                      A
 Frequencies --   3018.7282              3023.8792              3027.7882
 Red. masses --      1.0473                 1.0426                 1.0820
 Frc consts  --      5.6230                 5.6167                 5.8443
 IR Inten    --     53.8927                86.4300                34.4127

                     94                     95                     96
                      A                      A                      A
 Frequencies --   3035.9297              3037.6843              3041.3996
 Red. masses --      1.0557                 1.0459                 1.0628
 Frc consts  --      5.7327                 5.6864                 5.7923
 IR Inten    --     17.8892                94.2071                62.9680

                     97                     98                     99
                      A                      A                      A
 Frequencies --   3052.5891              3056.5273              3061.1464
 Red. masses --      1.0356                 1.1000                 1.0996
 Frc consts  --      5.6854                 6.0547                 6.0710
 IR Inten    --     38.9923                18.5670                39.8203

                    100                    101                    102
                      A                      A                      A
 Frequencies --   3072.0992              3085.2184              3095.2637
 Red. masses --      1.0892                 1.0890                 1.0986
 Frc consts  --      6.0566                 6.1071                 6.2015
 IR Inten    --     31.8812                42.2820                47.3727

                    103                    104                    105
                      A                      A                      A
 Frequencies --   3105.7000              3106.8008              3116.9972
 Red. masses --      1.1005                 1.0982                 1.0972
 Frc consts  --      6.2542                 6.2455                 6.2807
 IR Inten    --     56.7134                 9.8064                20.4488

                    106                    107                    108
                      A                      A                      A
 Frequencies --   3119.3940              3122.4577              3128.6376
 Red. masses --      1.1022                 1.1022                 1.1026
 Frc consts  --      6.3191                 6.3313                 6.3591
 IR Inten    --     28.4404                30.5527                36.9465

                    109                    110                    111
                      A                      A                      A
 Frequencies --   3128.9270              3179.7170              3192.8629
 Red. masses --      1.0939                 1.0975                 1.0938
 Frc consts  --      6.3098                 6.5380                 6.5699
 IR Inten    --     30.3663                 5.8807                10.0020

 - Thermochemistry -
 -------------------
 Temperature   298.150 Kelvin.  Pressure   1.00000 Atm.
 Atom     1 has atomic number  6 and mass  12.00000

 Molecular mass:   217.18305 amu.
 Principal axes and moments of inertia in atomic units:
                           1         2         3
     Eigenvalues --  2546.619333953.618165744.55904
           X            1.00000  -0.00084   0.00239
           Y            0.00084   1.00000  -0.00097
           Z           -0.00239   0.00097   1.00000
 This molecule is an asymmetric top.
 Rotational symmetry number  1.
 Warning -- assumption of classical behavior for rotation
           may cause significant error
 Rotational temperatures (Kelvin)      0.03401     0.02191     0.01508
 Rotational constants (GHZ):           0.70868     0.45648     0.31417
 Zero-point vibrational energy     917875.6 (Joules/Mol)
                                  219.37753 (Kcal/Mol)
 Warning -- explicit consideration of  28 degrees of freedom as
           vibrations may cause significant error
 Vibrational temperatures:     83.89    86.95   128.19   148.47   155.60
          (Kelvin)            188.77   193.29   208.82   248.45   271.57
                              284.03   327.99   340.10   349.21   361.92
                              373.47   379.48   413.07   438.73   496.80
                              510.53   551.68   601.79   655.56   665.12
                              770.45   804.54   815.83   914.41   939.48
                              956.91   985.23  1071.59  1147.62  1204.65
                             1259.95  1331.82  1384.79  1411.19  1480.13
                             1492.31  1517.14  1521.52  1536.75  1555.35
                             1567.01  1578.61  1597.00  1603.08  1632.17
                             1635.77  1672.35  1693.22  1698.19  1715.36
                             1787.64  1850.25  1891.07  1916.06  1950.46
                             1975.26  1985.42  2002.58  2057.79  2061.54
                             2066.84  2076.51  2092.91  2106.56  2119.32
                             2154.86  2166.21  2171.18  2176.62  2181.26
                             2183.78  2189.09  2191.12  2194.19  2197.59
                             2200.73  2203.53  2211.46  2217.73  2232.89
                             2279.47  2381.35  2438.66  4332.25  4341.25
                             4343.28  4350.69  4356.31  4368.03  4370.55
                             4375.90  4391.99  4397.66  4404.31  4420.07
                             4438.94  4453.39  4468.41  4469.99  4484.66
                             4488.11  4492.52  4501.41  4501.83  4574.90
                             4593.82

 Zero-point correction=                           0.349600 (Hartree/Particle)
 Thermal correction to Energy=                    0.367773
 Thermal correction to Enthalpy=                  0.368717
 Thermal correction to Gibbs Free Energy=         0.305057
 Sum of electronic and zero-point Energies=           -639.897857
 Sum of electronic and thermal Energies=              -639.879685
 Sum of electronic and thermal Enthalpies=            -639.878740
 Sum of electronic and thermal Free Energies=         -639.942400

                     E (Thermal)             CV                S
                      KCal/Mol        Cal/Mol-Kelvin    Cal/Mol-Kelvin
 Total                  230.781             67.951            133.983
 Electronic               0.000              0.000              0.000
 Translational            0.889              2.981             42.030
 Rotational               0.889              2.981             32.425
 Vibrational            229.003             61.990             59.528
 Vibration     1          0.596              1.974              4.514
 Vibration     2          0.597              1.973              4.443
 Vibration     3          0.602              1.957              3.680
 Vibration     4          0.605              1.947              3.393
 Vibration     5          0.606              1.943              3.302
 Vibration     6          0.612              1.922              2.928
 Vibration     7          0.613              1.919              2.883
 Vibration     8          0.617              1.908              2.735
 Vibration     9          0.626              1.876              2.406
 Vibration    10          0.633              1.855              2.240
 Vibration    11          0.637              1.843              2.157
 Vibration    12          0.651              1.798              1.895
 Vibration    13          0.655              1.785              1.830
 Vibration    14          0.659              1.775              1.783
 Vibration    15          0.664              1.760              1.720
 Vibration    16          0.668              1.747              1.665
 Vibration    17          0.670              1.739              1.637
 Vibration    18          0.684              1.698              1.491
 Vibration    19          0.696              1.664              1.390
 Vibration    20          0.724              1.585              1.188
 Vibration    21          0.731              1.565              1.145
 Vibration    22          0.753              1.506              1.026
 Vibration    23          0.781              1.431              0.898
 Vibration    24          0.814              1.348              0.779
 Vibration    25          0.820              1.334              0.759
 Vibration    26          0.890              1.172              0.575
 Vibration    27          0.915              1.120              0.525
 Vibration    28          0.923              1.103              0.510

 Optimization completed.
    -- Stationary point found.
 Normal termination of Gaussian 16 at Thu Dec 10 21:59:38 2020.

 ----------------------------------------------------------------------
 # B3LYP/6-311++G(d,p) empiricaldispersion=gd3bj scf=xqc pop=npa geom=c
 heck
 ----------------------------------------------------------------------

 --------------------------------------
 CID_53968280_JID_6185_Energie_neutraal
 --------------------------------------
 Structure from the checkpoint file:  "JID_6185.chk"
 Charge =  0 Multiplicity = 1

 SCF Done:  E(RB3LYP) =  -640.411150618     A.U. after   17 cycles
 Normal termination of Gaussian 16 at Thu Dec 10 22:09:19 2020.

 ----------------------------------------------------------------------
 # B3LYP/6-311++G(d,p) empiricaldispersion=gd3bj scf=xqc pop=npa geom=c
 heck
 ----------------------------------------------------------------------

 ------------------------------------
 CID_53968280_JID_6185_Energie_kation
 ------------------------------------
 Structure from the checkpoint file:  "JID_6185.chk"
 Charge =  1 Multiplicity = 2

 SCF Done:  E(UB3LYP) =  -640.178726610     A.U. after   26 cycles
 Normal termination of Gaussian 16 at Thu Dec 10 22:31:50 2020.
 Gaussian 16:  ES64L-G16RevA.03 25-Dec-2016

 ----------------------------------------------------------------------
 # B3LYP/6-311++G(d,p) empiricaldispersion=gd3bj scf=xqc pop=npa geom=c
 heck
 ----------------------------------------------------------------------

 -----------------------------------
 CID_53968280_JID_6185_Energie_anion
 -----------------------------------
 Structure from the checkpoint file:  "JID_6185.chk"
 Charge = -1 Multiplicity = 2

                         Standard orientation:
 ---------------------------------------------------------------------
 Center     Atomic      Atomic             Coordinates (Angstroms)
 Number     Number       Type             X           Y           Z
 ---------------------------------------------------------------------
      1          6           0       -0.148105   -2.704478    1.481371
      2          6           0       -0.154494   -2.062400    0.084426
      3          6           0       -1.530232   -1.397948   -0.244746
      4          6           0       -1.298148    0.094837    0.026678
      5          6           0        0.057089    0.370259   -0.008064
      6          6           0        0.780770   -0.893682   -0.022489
      7          6           0        2.120884   -0.651223   -0.050533
      8          6           0        2.286676    0.806097   -0.090119
      9          6           0        1.054485    1.437262   -0.062449
     10          6           0        0.839142    2.917109   -0.213902
     11          6           0        3.640612    1.444492   -0.175704
     12          6           0        3.245897   -1.641274   -0.054481
     13          7           0       -2.351686    0.914663    0.297676
     14          6           0       -3.730940    0.574306   -0.007828
     15          6           0       -2.136510    2.280591    0.736092
     16          6           0       -1.918842   -1.649823   -1.712877
     17          1           0       -0.866437   -3.531662    1.546659
     18          1           0       -0.406088   -1.959255    2.242511
     19          1           0        0.846502   -3.094123    1.721871
     20          1           0        0.068220   -2.843270   -0.655401
     21          1           0       -2.312603   -1.799044    0.412649
     22          1           0        0.058403    3.140872   -0.950858
     23          1           0        0.552393    3.423338    0.718815
     24          1           0        1.752806    3.406247   -0.564072
     25          1           0        4.198267    1.089091   -1.053469
     26          1           0        3.588976    2.535152   -0.235014
     27          1           0        4.253997    1.194795    0.701619
     28          1           0        3.895768   -1.523370   -0.933115
     29          1           0        3.893735   -1.535185    0.827342
     30          1           0        2.866593   -2.668845   -0.062270
     31          1           0       -4.382131    0.945962    0.791250
     32          1           0       -4.062782    1.027947   -0.954366
     33          1           0       -3.862338   -0.503370   -0.079330
     34          1           0       -1.203611    2.330081    1.296735
     35          1           0       -2.086978    2.992198   -0.098580
     36          1           0       -2.961670    2.577648    1.392510
     37          1           0       -2.089705   -2.718585   -1.883474
     38          1           0       -2.824930   -1.112009   -2.010916
     39          1           0       -1.104291   -1.321986   -2.367082
 ---------------------------------------------------------------------

 SCF Done:  E(UB3LYP) =  -640.402402408     A.U. after   31 cycles

 The electronic state is 2-A.
 Alpha  occ. eigenvalues --  -14.24062 -10.10716 -10.09431 -10.09308 -10.07492
 Alpha  occ. eigenvalues --  -10.06865 -10.06099 -10.06086 -10.05579 -10.05507
 Alpha  occ. eigenvalues --  -10.05479 -10.04139 -10.04077 -10.03459 -10.03406
 Alpha  occ. eigenvalues --  -10.02937  -0.85335  -0.75692  -0.70989  -0.65274
 Alpha  occ. eigenvalues --   -0.63819  -0.63335  -0.61729  -0.60791  -0.59603
 Alpha  occ. eigenvalues --   -0.55690  -0.52676  -0.50790  -0.48308  -0.43266
 Alpha  occ. eigenvalues --   -0.41940  -0.40141  -0.37355  -0.36388  -0.35864
 Alpha  occ. eigenvalues --   -0.34564  -0.33184  -0.32263  -0.32155  -0.31376
 Alpha  occ. eigenvalues --   -0.30833  -0.30293  -0.29986  -0.29625  -0.29439
 Alpha  occ. eigenvalues --   -0.29069  -0.28124  -0.27578  -0.26527  -0.26105
 Alpha  occ. eigenvalues --   -0.25842  -0.24164  -0.23093  -0.22122  -0.21895
 Alpha  occ. eigenvalues --   -0.20404  -0.20110  -0.17287  -0.08120  -0.07283
 Alpha  occ. eigenvalues --    0.04239
 Alpha virt. eigenvalues --    0.06869   0.07005   0.07488   0.08335   0.08601
 Alpha virt. eigenvalues --    0.08779   0.09673   0.10195   0.10642   0.10771
 Alpha virt. eigenvalues --    0.11015   0.11685   0.11963   0.12721   0.13065

  Beta  occ. eigenvalues --  -14.24026 -10.10570 -10.09404 -10.09241 -10.07493
  Beta  occ. eigenvalues --  -10.06864 -10.06099 -10.06085 -10.05563 -10.05498
  Beta  occ. eigenvalues --  -10.05439 -10.04105 -10.04042 -10.03481 -10.03397
  Beta  occ. eigenvalues --  -10.02892  -0.85214  -0.75614  -0.70918  -0.65199
  Beta  occ. eigenvalues --   -0.63763  -0.63277  -0.61653  -0.60734  -0.59545
  Beta  occ. eigenvalues --   -0.55633  -0.52621  -0.50732  -0.48243  -0.43164
  Beta  occ. eigenvalues --   -0.41867  -0.40090  -0.37226  -0.36314  -0.35787
  Beta  occ. eigenvalues --   -0.34522  -0.33133  -0.32212  -0.32114  -0.31321
  Beta  occ. eigenvalues --   -0.30784  -0.30247  -0.29946  -0.29598  -0.29402
  Beta  occ. eigenvalues --   -0.29038  -0.28085  -0.27520  -0.26474  -0.26069
  Beta  occ. eigenvalues --   -0.25795  -0.24086  -0.23058  -0.22003  -0.21746
  Beta  occ. eigenvalues --   -0.20367  -0.20085  -0.17012  -0.07831  -0.07074
  Beta virt. eigenvalues --    0.06535   0.07273   0.07437   0.08119   0.08772
  Beta virt. eigenvalues --    0.08975   0.09086   0.10108   0.10415   0.10671
  Beta virt. eigenvalues --    0.11102   0.11342   0.11860   0.12046   0.12819

 Mulliken charges and spin densities:
               1          2
     1  C   -0.352040  -0.453620
     2  C   -0.236331   0.221535
     3  C   -0.825490   0.686736
     4  C   -0.650155   0.169408
     5  C   -0.303731   0.309893
     6  C    0.608990   0.122398
     7  C   -0.069124   0.045748
     8  C    0.212981  -0.182630
     9  C    0.092751  -0.079825
    10  C   -0.089618  -0.414767
    11  C   -0.307726  -0.173579
    12  C   -0.350877  -0.050856
    13  N   -0.193310   0.311267
    14  C    1.430943  -1.801090
    15  C    0.325524  -0.646096
    16  C    0.505005  -1.245715
    17  H   -0.116600   0.234912
    18  H    0.100196   0.063887
    19  H    0.082654   0.044856
    20  H    0.186817   0.027526
    21  H    0.016693   0.199693
    22  H    0.036023   0.113044
    23  H    0.076221   0.066646
    24  H    0.075788   0.029991
    25  H    0.123464   0.007473
    26  H    0.102828   0.005042
    27  H    0.108812   0.031337
    28  H    0.130528   0.000623
    29  H    0.101847   0.031078
    30  H    0.084879   0.031104
    31  H   -0.410694   0.542852
    32  H   -0.570108   0.769605
    33  H   -0.493804   0.653937
    34  H    0.110343   0.023798
    35  H   -0.165693   0.350556
    36  H   -0.158781   0.298321
    37  H   -0.254629   0.408742
    38  H   -0.039335   0.167303
    39  H    0.074759   0.078869
 Sum of Mulliken charges =  -1.00000   1.00000

 Dipole moment (field-independent basis, Debye):
    X=              7.8146    Y=             -0.2550    Z=              1.3677  Tot=              7.9375
 Quadrupole moment (field-independent basis, Debye-Ang):
   XX=           -176.0904   YY=           -143.1954   ZZ=           -130.3726
   XY=              2.4470   XZ=             -6.1067   YZ=              2.5287

 Summary of Natural Population Analysis:

                                       Natural Population
                Natural  -----------------------------------------------
    Atom  No    Charge         Core      Valence    Rydberg      Total
 -----------------------------------------------------------------------
      C    1   -0.27533      0.99965     2.27139    0.00429     3.27533
      C    2   -0.11890      0.99959     2.10579    0.01353     3.11890
      C    3   -0.11970      0.99958     2.10855    0.01157     3.11970
      C    4    0.18363      0.99944     1.80266    0.01427     2.81637
      C    5   -0.09421      0.99943     2.08398    0.01080     3.09421
      C    6    0.02474      0.99944     1.96847    0.00735     2.97526
      C    7   -0.06386      0.99944     2.05377    0.01065     3.06386
      C    8   -0.01798      0.99945     2.00979    0.00873     3.01798
      C    9   -0.04173      0.99943     2.03214    0.01016     3.04173
      C   10   -0.28948      0.99964     2.28523    0.00462     3.28948
      C   11   -0.29383      0.99964     2.28952    0.00468     3.29383
      C   12   -0.28797      0.99962     2.28370    0.00465     3.28797
      N   13   -0.22420      0.99964     2.71405    0.01051     3.72420
      C   14   -0.17285      0.99963     2.16495    0.00827     3.17285
      C   15   -0.17333      0.99964     2.16538    0.00832     3.17333
      C   16   -0.28058      0.99964     2.27472    0.00622     3.28058
      H   17    0.09349      0.00000     0.40530    0.00121     0.40651
      H   18    0.09860      0.00000     0.40033    0.00107     0.40140
      H   19    0.09628      0.00000     0.40283    0.00089     0.40372
      H   20    0.09568      0.00000     0.40235    0.00198     0.40432
      H   21    0.09991      0.00000     0.39785    0.00224     0.40009
      H   22    0.10121      0.00000     0.39737    0.00142     0.39879
      H   23    0.09278      0.00000     0.40569    0.00152     0.40722
      H   24    0.09667      0.00000     0.40243    0.00090     0.40333
      H   25    0.09599      0.00000     0.40262    0.00138     0.40401
      H   26    0.09815      0.00000     0.40088    0.00098     0.40185
      H   27    0.09719      0.00000     0.40123    0.00158     0.40281
      H   28    0.09411      0.00000     0.40445    0.00144     0.40589
      H   29    0.09522      0.00000     0.40384    0.00093     0.40478
      H   30    0.09906      0.00000     0.39985    0.00109     0.40094
      H   31    0.09553      0.00000     0.40279    0.00167     0.40447
      H   32    0.09852      0.00000     0.39676    0.00471     0.40148
      H   33    0.10258      0.00000     0.39576    0.00166     0.39742
      H   34    0.10316      0.00000     0.39557    0.00127     0.39684
      H   35    0.09545      0.00000     0.40288    0.00166     0.40455
      H   36    0.09465      0.00000     0.40439    0.00096     0.40535
      H   37    0.09847      0.00000     0.40034    0.00119     0.40153
      H   38    0.10139      0.00000     0.39753    0.00108     0.39861
      H   39    0.10156      0.00000     0.39736    0.00108     0.39844
 =======================================================================
   * Total *    0.00009     15.99288    43.83447    0.17256    59.99991

 Normal termination of Gaussian 16 at Thu Dec 10 22:57:44 2020.
