 Gaussian 16, Revision A.03,

 -----------------------------------------------------------
 # opt freq B3LYP/6-31G(d) empiricaldispersion=gd3bj scf=xqc
 -----------------------------------------------------------

 -------------------------------
 CID_129930417_JID_1899_neutraal
 -------------------------------
 Symbolic Z-matrix:
 Charge =  0 Multiplicity = 1

 SCF Done:  E(RB3LYP) =  -480.802868433     A.U. after   15 cycles
 SCF Done:  E(RB3LYP) =  -480.806264468     A.U. after   12 cycles
 SCF Done:  E(RB3LYP) =  -480.806337605     A.U. after   13 cycles
 SCF Done:  E(RB3LYP) =  -480.806968900     A.U. after   12 cycles
 SCF Done:  E(RB3LYP) =  -480.807084843     A.U. after   11 cycles
 SCF Done:  E(RB3LYP) =  -480.807132483     A.U. after   10 cycles
 SCF Done:  E(RB3LYP) =  -480.807141880     A.U. after   10 cycles
 SCF Done:  E(RB3LYP) =  -480.807142597     A.U. after    8 cycles
 Optimization completed.
    -- Stationary point found.
 Normal termination of Gaussian 16 at Tue Dec  8 21:29:13 2020.

 --------------------------------------------------------------------
 #N Geom=AllCheck Guess=TCheck SCRF=Check GenChk RB3LYP/6-31G(d) Freq
 --------------------------------------------------------------------

 Structure from the checkpoint file:  "JID_1899.chk"
 -------------------------------
 CID_129930417_JID_1899_neutraal
 -------------------------------
 Charge =  0 Multiplicity = 1

 SCF Done:  E(RB3LYP) =  -480.807142597     A.U. after    1 cycles

  Exact polarizability: 113.148  -4.499 117.249  -2.905  -2.736  70.769
 Approx polarizability: 143.890 -15.399 210.367  -2.907 -15.237 109.288

                      1                      2                      3
                      A                      A                      A
 Frequencies --     81.9161               104.0646               143.3721
 Red. masses --      2.9872                 2.8507                 3.9377
 Frc consts  --      0.0118                 0.0182                 0.0477
 IR Inten    --      1.2111                 1.9436                 0.3006

                      4                      5                      6
                      A                      A                      A
 Frequencies --    188.3300               237.9272               257.8548
 Red. masses --      2.7908                 2.8768                 1.5872
 Frc consts  --      0.0583                 0.0960                 0.0622
 IR Inten    --      0.3400                 7.2502                 2.2136

                      7                      8                      9
                      A                      A                      A
 Frequencies --    273.3603               372.3621               391.4659
 Red. masses --      1.3036                 2.4880                 2.5384
 Frc consts  --      0.0574                 0.2033                 0.2292
 IR Inten    --      4.7604                 1.3825                 2.6761

                     10                     11                     12
                      A                      A                      A
 Frequencies --    425.6242               496.3918               506.2285
 Red. masses --      4.6168                 2.9662                 1.4884
 Frc consts  --      0.4928                 0.4306                 0.2247
 IR Inten    --     11.1515                42.5293               186.2405

                     13                     14                     15
                      A                      A                      A
 Frequencies --    535.2613               584.9096               601.5178
 Red. masses --      3.1259                 3.2041                 3.6765
 Frc consts  --      0.5277                 0.6459                 0.7838
 IR Inten    --      4.7860                 3.3987                 8.0824

                     16                     17                     18
                      A                      A                      A
 Frequencies --    639.0256               727.3139               766.6829
 Red. masses --      3.7153                 3.0548                 2.7981
 Frc consts  --      0.8939                 0.9521                 0.9691
 IR Inten    --      8.0889                14.9492                15.2360

                     19                     20                     21
                      A                      A                      A
 Frequencies --    854.4060               877.2365               884.0120
 Red. masses --      2.6347                 1.7485                 1.8871
 Frc consts  --      1.1332                 0.7928                 0.8689
 IR Inten    --     18.2889                 3.3587                 5.6573

                     22                     23                     24
                      A                      A                      A
 Frequencies --    904.7854               954.6932              1008.3651
 Red. masses --      2.4031                 1.5839                 2.5716
 Frc consts  --      1.1591                 0.8506                 1.5406
 IR Inten    --      1.2229                 0.9902                 6.0525

                     25                     26                     27
                      A                      A                      A
 Frequencies --   1017.0746              1041.9321              1071.8661
 Red. masses --      2.5100                 2.1640                 2.2254
 Frc consts  --      1.5298                 1.3842                 1.5064
 IR Inten    --     24.5012                 3.6692                 8.7134

                     28                     29                     30
                      A                      A                      A
 Frequencies --   1084.4892              1106.8530              1132.1773
 Red. masses --      2.0991                 1.8114                 2.2415
 Frc consts  --      1.4546                 1.3075                 1.6929
 IR Inten    --      9.4557                 5.9749                 6.4255

                     31                     32                     33
                      A                      A                      A
 Frequencies --   1156.6700              1168.5526              1216.8563
 Red. masses --      1.6992                 1.2680                 1.4211
 Frc consts  --      1.3394                 1.0202                 1.2398
 IR Inten    --     14.2479                 9.4838                20.9648

                     34                     35                     36
                      A                      A                      A
 Frequencies --   1247.4129              1270.6497              1277.3396
 Red. masses --      1.1879                 1.3615                 1.5198
 Frc consts  --      1.0891                 1.2952                 1.4610
 IR Inten    --      6.0322                 5.5060                 2.5421

                     37                     38                     39
                      A                      A                      A
 Frequencies --   1300.5287              1343.0120              1360.6086
 Red. masses --      1.5925                 1.4644                 1.4429
 Frc consts  --      1.5870                 1.5562                 1.5738
 IR Inten    --     18.6737                55.1902                 3.4336

                     40                     41                     42
                      A                      A                      A
 Frequencies --   1372.4480              1387.0916              1404.2416
 Red. masses --      1.3710                 1.4845                 1.6041
 Frc consts  --      1.5215                 1.6828                 1.8636
 IR Inten    --      3.1146                 4.6913                 4.9543

                     43                     44                     45
                      A                      A                      A
 Frequencies --   1419.4710              1428.1515              1490.9427
 Red. masses --      3.6575                 1.3376                 1.1138
 Frc consts  --      4.3420                 1.6074                 1.4587
 IR Inten    --     61.5147                 5.2469                18.0401

                     46                     47                     48
                      A                      A                      A
 Frequencies --   1503.8640              1512.3910              1522.3418
 Red. masses --      1.1725                 1.7083                 1.0542
 Frc consts  --      1.5623                 2.3022                 1.4394
 IR Inten    --     33.5144               104.3670                11.9965

                     49                     50                     51
                      A                      A                      A
 Frequencies --   1525.5767              1537.5854              1549.8387
 Red. masses --      1.1363                 1.0493                 1.2301
 Frc consts  --      1.5582                 1.4616                 1.7409
 IR Inten    --     18.0615                 5.0263                25.4354

                     52                     53                     54
                      A                      A                      A
 Frequencies --   1671.6072              1739.3328              3025.3062
 Red. masses --      7.1431                11.6889                 1.0659
 Frc consts  --     11.7600                20.8348                 5.7481
 IR Inten    --    140.5921               292.5806                14.7253

                     55                     56                     57
                      A                      A                      A
 Frequencies --   3026.0470              3026.7215              3044.7274
 Red. masses --      1.0696                 1.0668                 1.0373
 Frc consts  --      5.7707                 5.7578                 5.6657
 IR Inten    --     72.4831                12.4887                31.8990

                     58                     59                     60
                      A                      A                      A
 Frequencies --   3048.9510              3064.5945              3071.5335
 Red. masses --      1.0700                 1.0895                 1.0850
 Frc consts  --      5.8607                 6.0287                 6.0307
 IR Inten    --     14.8569                49.8388                18.2723

                     61                     62                     63
                      A                      A                      A
 Frequencies --   3094.3656              3099.7064              3109.3001
 Red. masses --      1.1034                 1.0978                 1.1018
 Frc consts  --      6.2246                 6.2146                 6.2762
 IR Inten    --     43.4175                37.0266                47.0269

                     64                     65                     66
                      A                      A                      A
 Frequencies --   3111.0971              3144.8470              3588.5216
 Red. masses --      1.0937                 1.1005                 1.0770
 Frc consts  --      6.2369                 6.4126                 8.1717
 IR Inten    --     22.7929                 9.9975                15.1830

 - Thermochemistry -
 -------------------
 Temperature   298.150 Kelvin.  Pressure   1.00000 Atm.
 Atom     1 has atomic number  6 and mass  12.00000

 Molecular mass:   151.09971 amu.
 Principal axes and moments of inertia in atomic units:
                           1         2         3
     Eigenvalues --  1136.736401622.817772530.88708
           X            0.99793   0.06430  -0.00066
           Y           -0.06428   0.99781   0.01586
           Z            0.00168  -0.01579   0.99987
 This molecule is an asymmetric top.
 Rotational symmetry number  1.
 Warning -- assumption of classical behavior for rotation
           may cause significant error
 Rotational temperatures (Kelvin)      0.07620     0.05337     0.03422
 Rotational constants (GHZ):           1.58765     1.11210     0.71309
 Zero-point vibrational energy     551082.1 (Joules/Mol)
                                  131.71178 (Kcal/Mol)
 Warning -- explicit consideration of  15 degrees of freedom as
           vibrations may cause significant error
 Vibrational temperatures:    117.86   149.73   206.28   270.96   342.32
          (Kelvin)            371.00   393.30   535.75   563.23   612.38
                              714.20   728.35   770.12   841.55   865.45
                              919.42  1046.44  1103.09  1229.30  1262.15
                             1271.90  1301.78  1373.59  1450.81  1463.34
                             1499.11  1542.18  1560.34  1592.51  1628.95
                             1664.19  1681.29  1750.78  1794.75  1828.18
                             1837.81  1871.17  1932.29  1957.61  1974.65
                             1995.72  2020.39  2042.30  2054.79  2145.13
                             2163.72  2175.99  2190.31  2194.96  2212.24
                             2229.87  2405.07  2502.51  4352.74  4353.81
                             4354.78  4380.68  4386.76  4409.27  4419.25
                             4452.10  4459.79  4473.59  4476.17  4524.73
                             5163.08

 Zero-point correction=                           0.209896 (Hartree/Particle)
 Thermal correction to Energy=                    0.219812
 Thermal correction to Enthalpy=                  0.220756
 Thermal correction to Gibbs Free Energy=         0.174899
 Sum of electronic and zero-point Energies=           -480.597247
 Sum of electronic and thermal Energies=              -480.587331
 Sum of electronic and thermal Enthalpies=            -480.586387
 Sum of electronic and thermal Free Energies=         -480.632244

                     E (Thermal)             CV                S
                      KCal/Mol        Cal/Mol-Kelvin    Cal/Mol-Kelvin
 Total                  137.934             38.885             96.514
 Electronic               0.000              0.000              0.000
 Translational            0.889              2.981             40.948
 Rotational               0.889              2.981             29.925
 Vibrational            136.157             32.923             25.641
 Vibration     1          0.600              1.962              3.844
 Vibration     2          0.605              1.946              3.377
 Vibration     3          0.616              1.910              2.758
 Vibration     4          0.633              1.856              2.244
 Vibration     5          0.656              1.783              1.818
 Vibration     6          0.667              1.749              1.676
 Vibration     7          0.676              1.722              1.575
 Vibration     8          0.744              1.529              1.070
 Vibration     9          0.759              1.488              0.995
 Vibration    10          0.787              1.414              0.873
 Vibration    11          0.852              1.258              0.667
 Vibration    12          0.861              1.236              0.643
 Vibration    13          0.890              1.172              0.576
 Vibration    14          0.942              1.064              0.476
 Vibration    15          0.960              1.029              0.447

 Optimization completed.
    -- Stationary point found.
 Normal termination of Gaussian 16 at Tue Dec  8 21:34:36 2020.

 ----------------------------------------------------------------------
 # B3LYP/6-311++G(d,p) empiricaldispersion=gd3bj scf=xqc pop=npa geom=c
 heck
 ----------------------------------------------------------------------

 ---------------------------------------
 CID_129930417_JID_1899_Energie_neutraal
 ---------------------------------------
 Structure from the checkpoint file:  "JID_1899.chk"
 Charge =  0 Multiplicity = 1

 SCF Done:  E(RB3LYP) =  -480.942790535     A.U. after   17 cycles
 Normal termination of Gaussian 16 at Tue Dec  8 21:39:18 2020.

 ----------------------------------------------------------------------
 # B3LYP/6-311++G(d,p) empiricaldispersion=gd3bj scf=xqc pop=npa geom=c
 heck
 ----------------------------------------------------------------------

 -------------------------------------
 CID_129930417_JID_1899_Energie_kation
 -------------------------------------
 Structure from the checkpoint file:  "JID_1899.chk"
 Charge =  1 Multiplicity = 2

 SCF Done:  E(UB3LYP) =  -480.659979054     A.U. after   23 cycles
 Normal termination of Gaussian 16 at Tue Dec  8 21:45:03 2020.
 Gaussian 16:  ES64L-G16RevA.03 25-Dec-2016

 ----------------------------------------------------------------------
 # B3LYP/6-311++G(d,p) empiricaldispersion=gd3bj scf=xqc pop=npa geom=c
 heck
 ----------------------------------------------------------------------

 ------------------------------------
 CID_129930417_JID_1899_Energie_anion
 ------------------------------------
 Structure from the checkpoint file:  "JID_1899.chk"
 Charge = -1 Multiplicity = 2

                         Standard orientation:
 ---------------------------------------------------------------------
 Center     Atomic      Atomic             Coordinates (Angstroms)
 Number     Number       Type             X           Y           Z
 ---------------------------------------------------------------------
      1          6           0        2.266628    1.254623    0.805320
      2          6           0        1.669052    0.484452   -0.381277
      3          6           0        2.207208   -0.972673   -0.496031
      4          7           0        1.130271   -1.795106    0.096195
      5          6           0       -0.037841   -1.071836    0.072569
      6          6           0        0.181805    0.244950   -0.200708
      7          6           0       -0.859277    1.243543   -0.151688
      8          8           0       -0.660634    2.442668   -0.347598
      9          6           0       -2.255188    0.718799    0.210215
     10          6           0       -2.478777   -0.748605   -0.182007
     11          6           0       -1.377200   -1.662242    0.381694
     12          1           0        2.105066    0.707077    1.741377
     13          1           0        1.783864    2.232001    0.888950
     14          1           0        3.345364    1.405639    0.676869
     15          1           0        1.876761    1.043603   -1.299945
     16          1           0        2.365004   -1.255964   -1.546033
     17          1           0        3.146818   -1.118444    0.045854
     18          1           0        1.099047   -2.784160   -0.117512
     19          1           0       -2.994229    1.376243   -0.257710
     20          1           0       -2.373883    0.835182    1.298176
     21          1           0       -3.460132   -1.092435    0.163377
     22          1           0       -2.476569   -0.831816   -1.276068
     23          1           0       -1.482605   -1.761807    1.472133
     24          1           0       -1.459793   -2.676786   -0.030569
 ---------------------------------------------------------------------

 SCF Done:  E(UB3LYP) =  -480.933056992     A.U. after   33 cycles
 SCF Done:  E(UB3LYP) =  -480.933056992     a.u. after    1 cycles

 The electronic state is 2-A.
 Alpha  occ. eigenvalues --  -18.97783 -14.22614 -10.13281 -10.11818 -10.09789
 Alpha  occ. eigenvalues --  -10.07709 -10.07675 -10.07240 -10.06705 -10.05524
 Alpha  occ. eigenvalues --  -10.04747  -0.90866  -0.85161  -0.71997  -0.68972
 Alpha  occ. eigenvalues --   -0.63484  -0.61471  -0.57432  -0.51364  -0.49831
 Alpha  occ. eigenvalues --   -0.47618  -0.41064  -0.38935  -0.36630  -0.36044
 Alpha  occ. eigenvalues --   -0.35028  -0.32918  -0.32101  -0.31465  -0.30831
 Alpha  occ. eigenvalues --   -0.30100  -0.27229  -0.26286  -0.25642  -0.24532
 Alpha  occ. eigenvalues --   -0.23554  -0.22896  -0.22598  -0.20739  -0.13057
 Alpha  occ. eigenvalues --   -0.10191   0.04503
 Alpha virt. eigenvalues --    0.07092   0.07212   0.08026   0.08602   0.09866
 Alpha virt. eigenvalues --    0.09891   0.10311   0.11258   0.11755   0.12645
 Alpha virt. eigenvalues --    0.13166   0.13215   0.14014   0.15918   0.16418

  Beta  occ. eigenvalues --  -18.97782 -14.22559 -10.13281 -10.11820 -10.09757
  Beta  occ. eigenvalues --  -10.07708 -10.07628 -10.07220 -10.06697 -10.05514
  Beta  occ. eigenvalues --  -10.04737  -0.90864  -0.85101  -0.71955  -0.68934
  Beta  occ. eigenvalues --   -0.63441  -0.61426  -0.57375  -0.51297  -0.49773
  Beta  occ. eigenvalues --   -0.47562  -0.40988  -0.38878  -0.36588  -0.35994
  Beta  occ. eigenvalues --   -0.34985  -0.32870  -0.32068  -0.31432  -0.30809
  Beta  occ. eigenvalues --   -0.30071  -0.27191  -0.26259  -0.25615  -0.24492
  Beta  occ. eigenvalues --   -0.23514  -0.22872  -0.22576  -0.20698  -0.13050
  Beta  occ. eigenvalues --   -0.10158
  Beta virt. eigenvalues --    0.07096   0.07398   0.07878   0.08886   0.09284
  Beta virt. eigenvalues --    0.10240   0.10430   0.10645   0.11874   0.12099
  Beta virt. eigenvalues --    0.12849   0.13572   0.13979   0.14109   0.15997

 Mulliken charges and spin densities:
               1          2
     1  C   -0.040928  -0.724519
     2  C   -0.753420   0.895264
     3  C    1.160417  -1.562802
     4  N   -0.472908   0.466998
     5  C   -1.014917   0.402671
     6  C    3.115303  -1.814274
     7  C   -1.244833   0.486627
     8  O   -0.348064  -0.002274
     9  C    0.206526  -0.360267
    10  C   -0.637582   0.388103
    11  C    1.160216  -1.647028
    12  H   -0.039075   0.196336
    13  H    0.198421  -0.031637
    14  H    0.050182   0.065456
    15  H    0.090118   0.126340
    16  H   -0.559392   0.740120
    17  H   -0.280080   0.471041
    18  H   -0.517456   0.825862
    19  H    0.113062   0.047123
    20  H    0.026778   0.133750
    21  H   -0.252505   0.418023
    22  H    0.008465   0.142197
    23  H   -0.235487   0.427852
    24  H   -0.732843   0.909040
 Sum of Mulliken charges =  -1.00000   1.00000

 Dipole moment (field-independent basis, Debye):
    X=             -0.5176    Y=              5.7400    Z=              1.3270  Tot=              5.9141
 Quadrupole moment (field-independent basis, Debye-Ang):
   XX=           -106.6465   YY=           -132.4978   ZZ=            -93.7509
   XY=              4.4772   XZ=              3.2380   YZ=             -2.1188

 Summary of Natural Population Analysis:

                                       Natural Population
                Natural  -----------------------------------------------
    Atom  No    Charge         Core      Valence    Rydberg      Total
 -----------------------------------------------------------------------
      C    1   -0.28425      0.99965     2.27987    0.00473     3.28425
      C    2   -0.11583      0.99959     2.10421    0.01203     3.11583
      C    3   -0.07740      0.99962     2.06660    0.01119     3.07740
      N    4   -0.30192      0.99966     2.78972    0.01253     3.80192
      C    5    0.15244      0.99944     1.83577    0.01235     2.84756
      C    6   -0.11593      0.99936     2.10441    0.01216     3.11593
      C    7    0.26257      0.99955     1.71732    0.02055     2.73743
      O    8   -0.32077      0.99988     3.31474    0.00614     4.32077
      C    9   -0.22746      0.99960     2.21833    0.00952     3.22746
      C   10   -0.18472      0.99964     2.17636    0.00872     3.18472
      C   11   -0.20969      0.99958     2.19974    0.01036     3.20969
      H   12    0.09715      0.00000     0.40184    0.00101     0.40285
      H   13    0.10749      0.00000     0.39151    0.00100     0.39251
      H   14    0.09303      0.00000     0.40598    0.00098     0.40697
      H   15    0.10338      0.00000     0.39557    0.00104     0.39662
      H   16    0.09451      0.00000     0.40305    0.00244     0.40549
      H   17    0.09427      0.00000     0.40428    0.00145     0.40573
      H   18    0.20238      0.00000     0.27443    0.02319     0.29762
      H   19    0.10579      0.00000     0.39307    0.00113     0.39421
      H   20    0.10358      0.00000     0.39515    0.00127     0.39642
      H   21    0.09997      0.00000     0.39877    0.00126     0.40003
      H   22    0.09727      0.00000     0.40138    0.00135     0.40273
      H   23    0.10964      0.00000     0.38861    0.00175     0.39036
      H   24    0.11448      0.00000     0.38113    0.00439     0.38552
 =======================================================================
   * Total *    0.00000     10.99558    29.84187    0.16256    41.00000

 Normal termination of Gaussian 16 at Tue Dec  8 21:53:57 2020.
