 Gaussian 16, Revision A.03,

 -----------------------------------------------------------
 # opt freq B3LYP/6-31G(d) empiricaldispersion=gd3bj scf=xqc
 -----------------------------------------------------------

 ------------------------------
 CID_76979595_JID_9695_neutraal
 ------------------------------
 Symbolic Z-matrix:
 Charge =  0 Multiplicity = 1

 SCF Done:  E(RB3LYP) =  -854.568392472     A.U. after   14 cycles
 SCF Done:  E(RB3LYP) =  -854.569079207     A.U. after   15 cycles
 SCF Done:  E(RB3LYP) =  -854.575123291     A.U. after   13 cycles
 SCF Done:  E(RB3LYP) =  -854.574069576     A.U. after   13 cycles
 SCF Done:  E(RB3LYP) =  -854.577553805     A.U. after   13 cycles
 SCF Done:  E(RB3LYP) =  -854.570925876     A.U. after   15 cycles
 SCF Done:  E(RB3LYP) =  -854.577680703     A.U. after   12 cycles
 SCF Done:  E(RB3LYP) =  -854.578130419     A.U. after   12 cycles
 SCF Done:  E(RB3LYP) =  -854.578269231     A.U. after   11 cycles
 SCF Done:  E(RB3LYP) =  -854.578337107     A.U. after   11 cycles
 SCF Done:  E(RB3LYP) =  -854.578436907     A.U. after   11 cycles
 SCF Done:  E(RB3LYP) =  -854.578443029     A.U. after   11 cycles
 SCF Done:  E(RB3LYP) =  -854.578447502     A.U. after   10 cycles
 SCF Done:  E(RB3LYP) =  -854.578448647     A.U. after    8 cycles
 SCF Done:  E(RB3LYP) =  -854.578448763     A.U. after    8 cycles
 Optimization completed.
    -- Stationary point found.
 Normal termination of Gaussian 16 at Sat Dec 12 10:10:03 2020.

 --------------------------------------------------------------------
 #N Geom=AllCheck Guess=TCheck SCRF=Check GenChk RB3LYP/6-31G(d) Freq
 --------------------------------------------------------------------

 Structure from the checkpoint file:  "JID_9695.chk"
 ------------------------------
 CID_76979595_JID_9695_neutraal
 ------------------------------
 Charge =  0 Multiplicity = 1

 SCF Done:  E(RB3LYP) =  -854.578448763     A.U. after    1 cycles

  Exact polarizability: 212.890 -24.944 125.052   3.219   5.889 150.664
 Approx polarizability: 321.399 -43.515 178.011  13.112  17.867 285.410

                      1                      2                      3
                      A                      A                      A
 Frequencies --     17.9037                38.6160                45.2746
 Red. masses --      3.6537                 5.5881                 5.1259
 Frc consts  --      0.0007                 0.0049                 0.0062
 IR Inten    --      2.4512                 0.5901                 0.1343

                      4                      5                      6
                      A                      A                      A
 Frequencies --     64.7904               108.3587               109.6500
 Red. masses --      4.4695                 4.2080                 5.0459
 Frc consts  --      0.0111                 0.0291                 0.0357
 IR Inten    --      1.0023                 3.9072                 0.5099

                      7                      8                      9
                      A                      A                      A
 Frequencies --    122.1079               143.5685               166.0607
 Red. masses --      4.6216                 4.0286                 4.4717
 Frc consts  --      0.0406                 0.0489                 0.0727
 IR Inten    --      2.3515                 3.7731                 0.1914

                     10                     11                     12
                      A                      A                      A
 Frequencies --    211.2493               239.6224               250.0529
 Red. masses --      1.6650                 2.2315                 2.8435
 Frc consts  --      0.0438                 0.0755                 0.1048
 IR Inten    --      0.1468                 3.2507                 5.5761

                     13                     14                     15
                      A                      A                      A
 Frequencies --    270.8446               278.2285               308.3707
 Red. masses --      3.8851                 3.5618                 3.2645
 Frc consts  --      0.1679                 0.1624                 0.1829
 IR Inten    --      3.7732                 7.1629                 3.6811

                     16                     17                     18
                      A                      A                      A
 Frequencies --    321.4373               355.2029               379.5854
 Red. masses --      2.5481                 1.3749                 2.0755
 Frc consts  --      0.1551                 0.1022                 0.1762
 IR Inten    --      5.3638               100.6193                 4.1460

                     19                     20                     21
                      A                      A                      A
 Frequencies --    407.5909               417.5622               424.1787
 Red. masses --      1.6306                 3.6385                 2.2865
 Frc consts  --      0.1596                 0.3738                 0.2424
 IR Inten    --     24.7244                 5.3892                14.6871

                     22                     23                     24
                      A                      A                      A
 Frequencies --    467.6482               495.5622               522.4121
 Red. masses --      3.3486                 3.1632                 2.4969
 Frc consts  --      0.4315                 0.4577                 0.4015
 IR Inten    --      3.9298                12.9518                 6.7246

                     25                     26                     27
                      A                      A                      A
 Frequencies --    575.1751               617.3867               629.5819
 Red. masses --      2.8603                 4.9813                 3.3266
 Frc consts  --      0.5575                 1.1187                 0.7769
 IR Inten    --     12.2654                 6.9691                10.1836

                     28                     29                     30
                      A                      A                      A
 Frequencies --    640.4202               653.9371               662.3849
 Red. masses --      3.5683                 5.2152                 3.6560
 Frc consts  --      0.8623                 1.3140                 0.9451
 IR Inten    --     23.6916                 5.6142                24.5137

                     31                     32                     33
                      A                      A                      A
 Frequencies --    669.9867               694.1077               755.5135
 Red. masses --      6.1966                 3.6769                 1.2075
 Frc consts  --      1.6388                 1.0437                 0.4061
 IR Inten    --      2.7200                 7.1435                70.9646

                     34                     35                     36
                      A                      A                      A
 Frequencies --    764.5339               778.1405               797.4987
 Red. masses --      3.5523                 1.8580                 4.6335
 Frc consts  --      1.2233                 0.6629                 1.7363
 IR Inten    --     15.5704               181.6217                 3.1070

                     37                     38                     39
                      A                      A                      A
 Frequencies --    834.1448               843.4749               863.0010
 Red. masses --      1.2762                 1.3066                 1.7315
 Frc consts  --      0.5232                 0.5477                 0.7598
 IR Inten    --      4.8805                 5.6340                18.5709

                     40                     41                     42
                      A                      A                      A
 Frequencies --    881.1409               889.0845               946.4305
 Red. masses --      1.3167                 2.4637                 5.9091
 Frc consts  --      0.6023                 1.1474                 3.1185
 IR Inten    --      0.3616                14.1869                 2.2482

                     43                     44                     45
                      A                      A                      A
 Frequencies --    962.0053               962.6827               965.6074
 Red. masses --      2.5484                 2.3143                 1.4950
 Frc consts  --      1.3896                 1.2637                 0.8213
 IR Inten    --      3.9806                74.8658                15.3551

                     46                     47                     48
                      A                      A                      A
 Frequencies --    973.9819              1003.6646              1031.7265
 Red. masses --      1.7885                 2.3944                 2.3697
 Frc consts  --      0.9997                 1.4211                 1.4862
 IR Inten    --     45.2078                 2.6074                 8.9652

                     49                     50                     51
                      A                      A                      A
 Frequencies --   1042.3314              1071.6205              1087.8353
 Red. masses --      2.6600                 1.8061                 1.7101
 Frc consts  --      1.7027                 1.2220                 1.1924
 IR Inten    --      4.8354                11.8914                15.1684

                     52                     53                     54
                      A                      A                      A
 Frequencies --   1119.2189              1137.4804              1139.2866
 Red. masses --      1.9392                 1.9121                 2.1963
 Frc consts  --      1.4312                 1.4577                 1.6796
 IR Inten    --     14.1157                24.4064                26.8347

                     55                     56                     57
                      A                      A                      A
 Frequencies --   1149.6275              1156.7709              1190.7654
 Red. masses --      1.5248                 1.4684                 1.5318
 Frc consts  --      1.1874                 1.1576                 1.2797
 IR Inten    --     16.0919                22.0111                 6.0567

                     58                     59                     60
                      A                      A                      A
 Frequencies --   1197.3555              1212.7503              1226.5890
 Red. masses --      1.8528                 1.3014                 1.7402
 Frc consts  --      1.5651                 1.1277                 1.5426
 IR Inten    --     24.9081                14.8074                16.0418

                     61                     62                     63
                      A                      A                      A
 Frequencies --   1261.2606              1289.1609              1333.9478
 Red. masses --      1.7273                 1.7887                 3.3735
 Frc consts  --      1.6189                 1.7515                 3.5368
 IR Inten    --      0.4523                11.6709                24.2532

                     64                     65                     66
                      A                      A                      A
 Frequencies --   1339.0537              1341.6125              1357.8667
 Red. masses --      4.6382                 1.3232                 2.2617
 Frc consts  --      4.8999                 1.4033                 2.4570
 IR Inten    --      5.3637                 0.4869                23.1364

                     67                     68                     69
                      A                      A                      A
 Frequencies --   1378.0465              1384.6008              1414.6331
 Red. masses --      2.1106                 2.0103                 1.4219
 Frc consts  --      2.3615                 2.2707                 1.6766
 IR Inten    --    144.4061                 1.8085                 8.0448

                     70                     71                     72
                      A                      A                      A
 Frequencies --   1417.2176              1419.1591              1446.0216
 Red. masses --      1.8033                 1.4983                 3.6851
 Frc consts  --      2.1340                 1.7779                 4.5400
 IR Inten    --      7.4410                24.7360                26.6596

                     73                     74                     75
                      A                      A                      A
 Frequencies --   1462.2571              1481.3395              1498.2263
 Red. masses --      2.8772                 1.1817                 1.2570
 Frc consts  --      3.6246                 1.5278                 1.6624
 IR Inten    --      7.5383                 4.4486                10.4515

                     76                     77                     78
                      A                      A                      A
 Frequencies --   1499.6552              1517.4244              1528.9088
 Red. masses --      2.5463                 1.0555                 1.1028
 Frc consts  --      3.3740                 1.4320                 1.5188
 IR Inten    --      7.0935                20.2117                 5.3346

                     79                     80                     81
                      A                      A                      A
 Frequencies --   1540.2438              1563.4422              1573.1786
 Red. masses --      1.1063                 2.3659                 4.0421
 Frc consts  --      1.5464                 3.4073                 5.8941
 IR Inten    --      1.4404                36.9330                13.3281

                     82                     83                     84
                      A                      A                      A
 Frequencies --   1622.3440              1658.7691              1670.7583
 Red. masses --      6.1612                 1.2432                 5.3971
 Frc consts  --      9.5543                 2.0154                 8.8765
 IR Inten    --      1.6129                91.0391                32.2055

                     85                     86                     87
                      A                      A                      A
 Frequencies --   1720.9943              2967.9601              3007.9632
 Red. masses --      5.3755                 1.0579                 1.0692
 Frc consts  --      9.3805                 5.4904                 5.6996
 IR Inten    --     71.0642                88.9100                41.0026

                     88                     89                     90
                      A                      A                      A
 Frequencies --   3076.3201              3082.9944              3088.8565
 Red. masses --      1.0744                 1.0759                 1.0783
 Frc consts  --      5.9908                 6.0251                 6.0616
 IR Inten    --      4.9113                22.5225                87.4511

                     91                     92                     93
                      A                      A                      A
 Frequencies --   3136.5225              3137.4515              3195.7295
 Red. masses --      1.1018                 1.1063                 1.0895
 Frc consts  --      6.3864                 6.4162                 6.5555
 IR Inten    --     26.1354                13.5563                 9.1040

                     94                     95                     96
                      A                      A                      A
 Frequencies --   3211.4845              3228.6899              3235.0159
 Red. masses --      1.0879                 1.0933                 1.0930
 Frc consts  --      6.6110                 6.7148                 6.7394
 IR Inten    --      2.7033                 7.5973                 3.8867

                     97                     98                     99
                      A                      A                      A
 Frequencies --   3251.9740              3280.0001              3296.9064
 Red. masses --      1.0940                 1.0924                 1.1060
 Frc consts  --      6.8165                 6.9241                 7.0828
 IR Inten    --      8.7931                 1.0600                 0.2659

                    100                    101                    102
                      A                      A                      A
 Frequencies --   3517.8302              3624.4580              3766.5905
 Red. masses --      1.0470                 1.0979                 1.0677
 Frc consts  --      7.6342                 8.4973                 8.9246
 IR Inten    --     10.4073                 6.8576                58.9333

 - Thermochemistry -
 -------------------
 Temperature   298.150 Kelvin.  Pressure   1.00000 Atm.
 Atom     1 has atomic number  6 and mass  12.00000

 Molecular mass:   259.14331 amu.
 Principal axes and moments of inertia in atomic units:
                           1         2         3
     Eigenvalues --  2929.960776082.249697381.76075
           X            0.99977  -0.02102  -0.00431
           Y            0.02099   0.99976  -0.00552
           Z            0.00443   0.00543   0.99998
 This molecule is an asymmetric top.
 Rotational symmetry number  1.
 Warning -- assumption of classical behavior for rotation
           may cause significant error
 Rotational temperatures (Kelvin)      0.02956     0.01424     0.01173
 Rotational constants (GHZ):           0.61596     0.29672     0.24449
 Zero-point vibrational energy     784271.7 (Joules/Mol)
                                  187.44544 (Kcal/Mol)
 Warning -- explicit consideration of  26 degrees of freedom as
           vibrations may cause significant error
 Vibrational temperatures:     25.76    55.56    65.14    93.22   155.90
          (Kelvin)            157.76   175.69   206.56   238.92   303.94
                              344.76   359.77   389.68   400.31   443.68
                              462.48   511.06   546.14   586.43   600.78
                              610.30   672.84   713.00   751.63   827.55
                              888.28   905.83   921.42   940.87   953.02
                              963.96   998.67  1087.02  1099.99  1119.57
                             1147.42  1200.15  1213.57  1241.67  1267.77
                             1279.19  1361.70  1384.11  1385.09  1389.29
                             1401.34  1444.05  1484.42  1499.68  1541.82
                             1565.15  1610.31  1636.58  1639.18  1654.06
                             1664.34  1713.25  1722.73  1744.88  1764.79
                             1814.67  1854.81  1919.25  1926.60  1930.28
                             1953.67  1982.70  1992.13  2035.34  2039.06
                             2041.85  2080.50  2103.86  2131.32  2155.61
                             2157.67  2183.24  2199.76  2216.07  2249.44
                             2263.45  2334.19  2386.60  2403.85  2476.13
                             4270.23  4327.79  4426.14  4435.74  4444.18
                             4512.76  4514.09  4597.94  4620.61  4645.36
                             4654.47  4678.87  4719.19  4743.51  5061.37
                             5214.79  5419.28

 Zero-point correction=                           0.298713 (Hartree/Particle)
 Thermal correction to Energy=                    0.316312
 Thermal correction to Enthalpy=                  0.317256
 Thermal correction to Gibbs Free Energy=         0.252154
 Sum of electronic and zero-point Energies=           -854.279735
 Sum of electronic and thermal Energies=              -854.262137
 Sum of electronic and thermal Enthalpies=            -854.261193
 Sum of electronic and thermal Free Energies=         -854.326295

                     E (Thermal)             CV                S
                      KCal/Mol        Cal/Mol-Kelvin    Cal/Mol-Kelvin
 Total                  198.489             67.891            137.018
 Electronic               0.000              0.000              0.000
 Translational            0.889              2.981             42.556
 Rotational               0.889              2.981             33.242
 Vibrational            196.711             61.930             61.220
 Vibration     1          0.593              1.986              6.854
 Vibration     2          0.594              1.981              5.329
 Vibration     3          0.595              1.979              5.014
 Vibration     4          0.597              1.971              4.306
 Vibration     5          0.606              1.943              3.298
 Vibration     6          0.606              1.941              3.275
 Vibration     7          0.610              1.931              3.067
 Vibration     8          0.616              1.910              2.756
 Vibration     9          0.624              1.884              2.480
 Vibration    10          0.643              1.824              2.033
 Vibration    11          0.657              1.780              1.806
 Vibration    12          0.663              1.763              1.730
 Vibration    13          0.675              1.727              1.591
 Vibration    14          0.679              1.714              1.545
 Vibration    15          0.698              1.658              1.371
 Vibration    16          0.707              1.632              1.303
 Vibration    17          0.731              1.565              1.143
 Vibration    18          0.750              1.514              1.041
 Vibration    19          0.772              1.454              0.935
 Vibration    20          0.781              1.432              0.900
 Vibration    21          0.786              1.418              0.878
 Vibration    22          0.825              1.322              0.744
 Vibration    23          0.851              1.260              0.669
 Vibration    24          0.877              1.200              0.604
 Vibration    25          0.932              1.085              0.494
 Vibration    26          0.977              0.995              0.421

                           ! Non-Optimized Parameters !
 Normal termination of Gaussian 16 at Sat Dec 12 10:29:36 2020.

 ----------------------------------------------------------------------
 # B3LYP/6-311++G(d,p) empiricaldispersion=gd3bj scf=xqc pop=npa geom=c
 heck
 ----------------------------------------------------------------------

 --------------------------------------
 CID_76979595_JID_9695_Energie_neutraal
 --------------------------------------
 Structure from the checkpoint file:  "JID_9695.chk"
 Charge =  0 Multiplicity = 1

 SCF Done:  E(RB3LYP) =  -854.823271928     A.U. after   15 cycles
 Normal termination of Gaussian 16 at Sat Dec 12 10:36:55 2020.

 ----------------------------------------------------------------------
 # B3LYP/6-311++G(d,p) empiricaldispersion=gd3bj scf=xqc pop=npa geom=c
 heck
 ----------------------------------------------------------------------

 ------------------------------------
 CID_76979595_JID_9695_Energie_kation
 ------------------------------------
 Structure from the checkpoint file:  "JID_9695.chk"
 Charge =  1 Multiplicity = 2

 SCF Done:  E(UB3LYP) =  -854.552030791     A.U. after   25 cycles
 Normal termination of Gaussian 16 at Sat Dec 12 10:53:58 2020.
 Gaussian 16:  ES64L-G16RevA.03 25-Dec-2016

 ----------------------------------------------------------------------
 # B3LYP/6-311++G(d,p) empiricaldispersion=gd3bj scf=xqc pop=npa geom=c
 heck
 ----------------------------------------------------------------------

 -----------------------------------
 CID_76979595_JID_9695_Energie_anion
 -----------------------------------
 Structure from the checkpoint file:  "JID_9695.chk"
 Charge = -1 Multiplicity = 2

                         Standard orientation:
 ---------------------------------------------------------------------
 Center     Atomic      Atomic             Coordinates (Angstroms)
 Number     Number       Type             X           Y           Z
 ---------------------------------------------------------------------
      1          6           0        2.800249   -2.797559   -0.048748
      2          7           0        2.377503   -1.420500   -0.302937
      3          6           0        3.274003   -0.427856    0.285830
      4          6           0        3.198047    0.933649   -0.415387
      5          7           0        1.954471    1.649154   -0.197528
      6          6           0        0.884737    1.739922   -1.033555
      7          6           0       -0.117271    2.384634   -0.336717
      8          6           0        0.452117    2.645103    0.929700
      9          7           0        1.705567    2.194450    1.017460
     10          6           0        0.974162   -1.227858   -0.074169
     11          6           0        0.094620   -1.497104   -1.132430
     12          6           0       -1.266552   -1.256150   -1.005513
     13          6           0       -1.783994   -0.753403    0.197584
     14          6           0       -0.913878   -0.543288    1.273682
     15          6           0        0.451383   -0.779761    1.142495
     16          6           0       -3.221745   -0.433552    0.349702
     17          7           0       -3.985358    0.190006   -0.482234
     18          8           0       -3.262135    0.697526   -1.599196
     19          7           0       -3.794108   -0.780134    1.577859
     20          1           0        3.813692   -2.949176   -0.436114
     21          1           0        2.125816   -3.482775   -0.569186
     22          1           0        2.792964   -3.062169    1.023962
     23          1           0        3.134991   -0.285264    1.369164
     24          1           0        4.295422   -0.799889    0.147174
     25          1           0        4.012564    1.567282   -0.051391
     26          1           0        3.314127    0.792989   -1.493250
     27          1           0        0.913683    1.321690   -2.028083
     28          1           0       -1.119593    2.587340   -0.683563
     29          1           0        0.004656    3.142802    1.780272
     30          1           0        0.509781   -1.849032   -2.072463
     31          1           0       -1.930851   -1.416680   -1.846130
     32          1           0       -1.310797   -0.155592    2.205964
     33          1           0        1.108948   -0.558573    1.974908
     34          1           0       -3.970573    1.140560   -2.089591
     35          1           0       -3.565329   -1.720154    1.883628
     36          1           0       -4.794212   -0.605060    1.595075
 ---------------------------------------------------------------------

 SCF Done:  E(UB3LYP) =  -854.811747730     A.U. after   33 cycles
 SCF Done:  E(UB3LYP) =  -854.811747730     a.u. after    1 cycles

 The electronic state is 2-A.
 Alpha  occ. eigenvalues --  -19.04926 -14.28041 -14.22633 -14.22154 -14.22000
 Alpha  occ. eigenvalues --  -14.20348 -10.12422 -10.11001 -10.09722 -10.09389
 Alpha  occ. eigenvalues --  -10.08325 -10.07988 -10.07960 -10.05854 -10.05642
 Alpha  occ. eigenvalues --  -10.05630 -10.05556 -10.05235 -10.05163  -0.96234
 Alpha  occ. eigenvalues --   -0.94250  -0.83282  -0.82538  -0.74125  -0.73139
 Alpha  occ. eigenvalues --   -0.71142  -0.67997  -0.64325  -0.63150  -0.62557
 Alpha  occ. eigenvalues --   -0.56649  -0.54207  -0.49781  -0.49632  -0.48906
 Alpha  occ. eigenvalues --   -0.46275  -0.45026  -0.43720  -0.42384  -0.40205
 Alpha  occ. eigenvalues --   -0.38161  -0.38018  -0.37252  -0.35332  -0.34816
 Alpha  occ. eigenvalues --   -0.34151  -0.33138  -0.32700  -0.32182  -0.31007
 Alpha  occ. eigenvalues --   -0.30867  -0.30000  -0.29460  -0.29240  -0.28259
 Alpha  occ. eigenvalues --   -0.26727  -0.26425  -0.25195  -0.24509  -0.23161
 Alpha  occ. eigenvalues --   -0.22249  -0.19128  -0.17111  -0.15964  -0.14805
 Alpha  occ. eigenvalues --   -0.14059  -0.13751  -0.11949  -0.10115   0.04820
 Alpha virt. eigenvalues --    0.06732   0.06880   0.07687   0.08154   0.08766
 Alpha virt. eigenvalues --    0.09123   0.09878   0.10086   0.10505   0.10861
 Alpha virt. eigenvalues --    0.10989   0.11324   0.11668   0.12317   0.12597

  Beta  occ. eigenvalues --  -19.04912 -14.28037 -14.22484 -14.22136 -14.21987
  Beta  occ. eigenvalues --  -14.20367 -10.12350 -10.10986 -10.09718 -10.09366
  Beta  occ. eigenvalues --  -10.08326 -10.07925 -10.07750 -10.05735 -10.05642
  Beta  occ. eigenvalues --  -10.05575 -10.05472 -10.05257 -10.05171  -0.96134
  Beta  occ. eigenvalues --   -0.94237  -0.83160  -0.82440  -0.74058  -0.73010
  Beta  occ. eigenvalues --   -0.70988  -0.67980  -0.64153  -0.62980  -0.62421
  Beta  occ. eigenvalues --   -0.56553  -0.54028  -0.49759  -0.49567  -0.48738
  Beta  occ. eigenvalues --   -0.46176  -0.44974  -0.43646  -0.42354  -0.40144
  Beta  occ. eigenvalues --   -0.38051  -0.37941  -0.37166  -0.35259  -0.34719
  Beta  occ. eigenvalues --   -0.34081  -0.33094  -0.32603  -0.32101  -0.30956
  Beta  occ. eigenvalues --   -0.30735  -0.29954  -0.29362  -0.28952  -0.28185
  Beta  occ. eigenvalues --   -0.26672  -0.26313  -0.25032  -0.24242  -0.23050
  Beta  occ. eigenvalues --   -0.22064  -0.19107  -0.16908  -0.15642  -0.14466
  Beta  occ. eigenvalues --   -0.13996  -0.13407  -0.11612  -0.09744
  Beta virt. eigenvalues --    0.06799   0.07492   0.07812   0.08432   0.08616
  Beta virt. eigenvalues --    0.08936   0.09342   0.10102   0.10370   0.10564
  Beta virt. eigenvalues --    0.10953   0.11206   0.11497   0.11958   0.12310

 Mulliken charges and spin densities:
               1          2
     1  C    1.046601  -1.265591
     2  N    0.220295   0.125421
     3  C    0.158858  -0.391301
     4  C    0.309333  -0.582477
     5  N    0.395445   0.065316
     6  C   -0.147088  -0.162010
     7  C    0.094341   0.073191
     8  C   -0.308274  -0.153310
     9  N   -0.395684   0.058024
    10  C   -1.122385   0.266909
    11  C    0.046216  -0.109481
    12  C   -0.689102   0.046705
    13  C    0.890292  -0.037162
    14  C   -0.069662   0.092702
    15  C   -0.354538  -0.014516
    16  C   -0.163481  -0.104494
    17  N   -0.353412   0.081021
    18  O   -0.149491   0.000789
    19  N   -0.299522  -0.010073
    20  H   -0.705715   0.870513
    21  H    0.037603   0.086086
    22  H   -0.146373   0.274775
    23  H    0.249721  -0.112371
    24  H   -0.588652   0.738870
    25  H   -0.066984   0.262784
    26  H   -0.152961   0.312573
    27  H   -0.009388   0.166341
    28  H    0.155339   0.014276
    29  H    0.100277   0.033013
    30  H   -0.039211   0.192780
    31  H    0.150568   0.009354
    32  H    0.154361   0.049543
    33  H    0.066747   0.068475
    34  H    0.253224   0.000093
    35  H    0.222958   0.000382
    36  H    0.209746   0.052846
 Sum of Mulliken charges =  -1.00000   1.00000

 Dipole moment (field-independent basis, Debye):
    X=             -7.8092    Y=              2.4581    Z=              0.7618  Tot=              8.2223
 Quadrupole moment (field-independent basis, Debye-Ang):
   XX=           -191.1921   YY=           -150.5234   ZZ=           -132.5887
   XY=             16.9685   XZ=              5.2830   YZ=             -6.4998

 Summary of Natural Population Analysis:

                                       Natural Population
                Natural  -----------------------------------------------
    Atom  No    Charge         Core      Valence    Rydberg      Total
 -----------------------------------------------------------------------
      C    1   -0.16634      0.99962     2.15890    0.00782     3.16634
      N    2   -0.28803      0.99969     2.77188    0.01646     3.78803
      C    3   -0.08360      0.99959     2.07234    0.01168     3.08360
      C    4   -0.08280      0.99959     2.07098    0.01223     3.08280
      N    5   -0.11149      0.99966     2.59813    0.01370     3.61149
      C    6   -0.00056      0.99956     1.98931    0.01169     3.00056
      C    7   -0.16376      0.99956     2.15567    0.00853     3.16376
      C    8   -0.01592      0.99964     2.00207    0.01421     3.01592
      N    9   -0.15890      0.99973     2.64792    0.01124     3.65890
      C   10    0.11968      0.99945     1.86716    0.01370     2.88032
      C   11   -0.11536      0.99950     2.10603    0.00984     3.11536
      C   12   -0.07125      0.99953     2.06185    0.00987     3.07125
      C   13   -0.05094      0.99946     2.04014    0.01133     3.05094
      C   14   -0.06864      0.99954     2.05969    0.00942     3.06864
      C   15   -0.12502      0.99950     2.11635    0.00917     3.12502
      C   16    0.20575      0.99958     1.77619    0.01847     2.79425
      N   17   -0.12238      0.99959     2.60742    0.01537     3.62238
      O   18   -0.29175      0.99990     3.28513    0.00672     4.29175
      N   19   -0.39836      0.99972     2.89011    0.00853     3.89836
      H   20    0.09836      0.00000     0.39814    0.00351     0.40164
      H   21    0.09634      0.00000     0.40262    0.00104     0.40366
      H   22    0.08027      0.00000     0.41848    0.00125     0.41973
      H   23    0.08762      0.00000     0.41067    0.00171     0.41238
      H   24    0.10232      0.00000     0.39561    0.00207     0.39768
      H   25    0.10290      0.00000     0.39585    0.00126     0.39710
      H   26    0.10364      0.00000     0.39442    0.00195     0.39636
      H   27    0.10835      0.00000     0.39046    0.00120     0.39165
      H   28    0.11386      0.00000     0.38504    0.00110     0.38614
      H   29    0.09468      0.00000     0.40452    0.00081     0.40532
      H   30    0.10119      0.00000     0.39741    0.00140     0.39881
      H   31    0.10355      0.00000     0.39541    0.00104     0.39645
      H   32    0.10159      0.00000     0.39704    0.00137     0.39841
      H   33    0.10311      0.00000     0.39533    0.00156     0.39689
      H   34    0.22652      0.00000     0.27042    0.00306     0.27348
      H   35    0.18272      0.00000     0.31560    0.00168     0.31728
      H   36    0.18266      0.00000     0.31416    0.00318     0.31734
 =======================================================================
   * Total *   -0.00000     18.99242    49.75843    0.24915    69.00000

 Normal termination of Gaussian 16 at Sat Dec 12 11:15:39 2020.
