 Gaussian 16, Revision A.03,

 -----------------------------------------------------------
 # opt freq B3LYP/6-31G(d) empiricaldispersion=gd3bj scf=xqc
 -----------------------------------------------------------

 ------------------------------
 CID_20117780_JID_4339_neutraal
 ------------------------------
 Symbolic Z-matrix:
 Charge =  0 Multiplicity = 1

 SCF Done:  E(RB3LYP) =  -613.591171551     A.U. after   15 cycles
 SCF Done:  E(RB3LYP) =  -613.595223847     A.U. after   12 cycles
 SCF Done:  E(RB3LYP) =  -613.596438001     A.U. after   12 cycles
 SCF Done:  E(RB3LYP) =  -613.597479325     A.U. after   13 cycles
 SCF Done:  E(RB3LYP) =  -613.598036266     A.U. after   12 cycles
 SCF Done:  E(RB3LYP) =  -613.598372174     A.U. after   12 cycles
 SCF Done:  E(RB3LYP) =  -613.598592439     A.U. after   12 cycles
 SCF Done:  E(RB3LYP) =  -613.598679263     A.U. after   12 cycles
 SCF Done:  E(RB3LYP) =  -613.598730977     A.U. after   11 cycles
 SCF Done:  E(RB3LYP) =  -613.598754530     A.U. after   11 cycles
 SCF Done:  E(RB3LYP) =  -613.599800945     A.U. after    9 cycles
 SCF Done:  E(RB3LYP) =  -613.599802734     A.U. after    8 cycles
 SCF Done:  E(RB3LYP) =  -613.599803525     A.U. after    8 cycles
 SCF Done:  E(RB3LYP) =  -613.599803860     A.U. after    8 cycles
 SCF Done:  E(RB3LYP) =  -613.599803908     A.U. after    7 cycles
 Optimization completed.
    -- Stationary point found.
 Normal termination of Gaussian 16 at Thu Dec 10 09:33:49 2020.

 --------------------------------------------------------------------
 #N Geom=AllCheck Guess=TCheck SCRF=Check GenChk RB3LYP/6-31G(d) Freq
 --------------------------------------------------------------------

 Structure from the checkpoint file:  "JID_4339.chk"
 ------------------------------
 CID_20117780_JID_4339_neutraal
 ------------------------------
 Charge =  0 Multiplicity = 1

 SCF Done:  E(RB3LYP) =  -613.599803908     A.U. after    1 cycles

  Exact polarizability: 184.035   2.511 126.487 -15.604  -0.213  86.330
 Approx polarizability: 244.582  13.486 209.847 -36.549  -4.609 128.284

                      1                      2                      3
                      A                      A                      A
 Frequencies --     21.7820                46.8728                52.4892
 Red. masses --      4.0743                 2.8937                 2.9415
 Frc consts  --      0.0011                 0.0037                 0.0048
 IR Inten    --      0.6257                 2.3299                 1.0054

                      4                      5                      6
                      A                      A                      A
 Frequencies --     68.3282               103.6977               129.5997
 Red. masses --      5.4917                 3.8038                 2.3166
 Frc consts  --      0.0151                 0.0241                 0.0229
 IR Inten    --      0.5256                 0.3693                 1.1472

                      7                      8                      9
                      A                      A                      A
 Frequencies --    172.4504               204.2964               228.3648
 Red. masses --      2.6406                 1.8134                 2.4547
 Frc consts  --      0.0463                 0.0446                 0.0754
 IR Inten    --      7.4046                 0.5514                 3.4086

                     10                     11                     12
                      A                      A                      A
 Frequencies --    251.7704               289.0219               295.8158
 Red. masses --      2.7646                 1.6574                 1.7046
 Frc consts  --      0.1033                 0.0816                 0.0879
 IR Inten    --     13.9445                29.1755                 5.2914

                     13                     14                     15
                      A                      A                      A
 Frequencies --    326.4870               368.1494               407.6209
 Red. masses --      3.0028                 3.3934                 3.7814
 Frc consts  --      0.1886                 0.2710                 0.3702
 IR Inten    --     26.3650                 3.2454                10.3709

                     16                     17                     18
                      A                      A                      A
 Frequencies --    445.1344               461.0539               516.9979
 Red. masses --      3.1945                 3.5920                 1.9493
 Frc consts  --      0.3729                 0.4499                 0.3070
 IR Inten    --      1.9809                 0.9705                33.4123

                     19                     20                     21
                      A                      A                      A
 Frequencies --    531.3069               606.9425               622.6527
 Red. masses --      3.1509                 2.2419                 3.9590
 Frc consts  --      0.5240                 0.4866                 0.9043
 IR Inten    --      5.6367                31.4019                12.9096

                     22                     23                     24
                      A                      A                      A
 Frequencies --    658.0481               674.2640               721.9433
 Red. masses --      4.0145                 2.3007                 2.3784
 Frc consts  --      1.0242                 0.6163                 0.7304
 IR Inten    --     14.0634                31.8316                20.8740

                     25                     26                     27
                      A                      A                      A
 Frequencies --    741.0417               800.5132               809.1593
 Red. masses --      2.4203                 2.4039                 1.4365
 Frc consts  --      0.7831                 0.9076                 0.5541
 IR Inten    --     19.6743                 6.4112                29.8502

                     28                     29                     30
                      A                      A                      A
 Frequencies --    854.2364               865.4388               894.2190
 Red. masses --      2.1834                 1.3059                 1.5680
 Frc consts  --      0.9387                 0.5763                 0.7387
 IR Inten    --      8.4169                84.8448                28.8246

                     31                     32                     33
                      A                      A                      A
 Frequencies --    900.5116               922.7152               926.3147
 Red. masses --      2.0229                 1.3535                 1.5391
 Frc consts  --      0.9665                 0.6789                 0.7781
 IR Inten    --      9.5194                 1.4358                 6.7034

                     34                     35                     36
                      A                      A                      A
 Frequencies --    975.5000               984.8291              1013.1620
 Red. masses --      2.9438                 1.2823                 1.7270
 Frc consts  --      1.6505                 0.7328                 1.0445
 IR Inten    --      7.1036                 1.5969                20.7826

                     37                     38                     39
                      A                      A                      A
 Frequencies --   1022.1420              1072.0697              1084.3767
 Red. masses --      5.5017                 1.7830                 2.6078
 Frc consts  --      3.3867                 1.2074                 1.8067
 IR Inten    --      1.4279                 1.1888                 8.9220

                     40                     41                     42
                      A                      A                      A
 Frequencies --   1107.4974              1123.0810              1133.4369
 Red. masses --      1.8675                 1.5706                 1.7470
 Frc consts  --      1.3496                 1.1671                 1.3223
 IR Inten    --      7.2333                 3.3065                 8.9077

                     43                     44                     45
                      A                      A                      A
 Frequencies --   1186.4709              1201.2219              1204.8373
 Red. masses --      1.3412                 1.2495                 1.2674
 Frc consts  --      1.1124                 1.0622                 1.0840
 IR Inten    --      8.2750                 8.1459                 2.0498

                     46                     47                     48
                      A                      A                      A
 Frequencies --   1260.9218              1279.1432              1298.3457
 Red. masses --      1.6033                 2.0398                 1.8195
 Frc consts  --      1.5019                 1.9665                 1.8071
 IR Inten    --     57.2025                28.8017                90.5338

                     49                     50                     51
                      A                      A                      A
 Frequencies --   1317.2962              1328.1096              1354.7324
 Red. masses --      1.4450                 1.4430                 1.3623
 Frc consts  --      1.4773                 1.4996                 1.4731
 IR Inten    --     15.5242               127.8678                 3.8204

                     52                     53                     54
                      A                      A                      A
 Frequencies --   1366.1579              1395.4812              1426.0274
 Red. masses --      4.0834                 1.3999                 1.8088
 Frc consts  --      4.4902                 1.6061                 2.1671
 IR Inten    --     18.1309                 6.0147               142.1921

                     55                     56                     57
                      A                      A                      A
 Frequencies --   1427.6634              1441.5525              1453.7557
 Red. masses --      1.6488                 1.3193                 1.6899
 Frc consts  --      1.9800                 1.6153                 2.1042
 IR Inten    --     18.3976                16.9344                 2.8621

                     58                     59                     60
                      A                      A                      A
 Frequencies --   1494.7597              1513.0053              1528.7116
 Red. masses --      1.0947                 1.0792                 1.9896
 Frc consts  --      1.4411                 1.4556                 2.7394
 IR Inten    --      4.7002                10.0608               104.3591

                     61                     62                     63
                      A                      A                      A
 Frequencies --   1529.5302              1531.7546              1542.0482
 Red. masses --      1.0922                 1.2984                 1.0515
 Frc consts  --      1.5055                 1.7949                 1.4732
 IR Inten    --      8.2162                 4.6709                 9.7192

                     64                     65                     66
                      A                      A                      A
 Frequencies --   1546.7501              1649.3304              1668.8124
 Red. masses --      2.1145                 5.6003                 5.6073
 Frc consts  --      2.9806                 8.9758                 9.2007
 IR Inten    --     22.1493                22.0222                64.5889

                     67                     68                     69
                      A                      A                      A
 Frequencies --   1693.8911              1780.0510              2962.7021
 Red. masses --      1.1077                 7.8182                 1.0732
 Frc consts  --      1.8726                14.5956                 5.5501
 IR Inten    --     36.4333               415.4854                69.9250

                     70                     71                     72
                      A                      A                      A
 Frequencies --   3041.6900              3043.2644              3046.0311
 Red. masses --      1.0646                 1.0877                 1.0397
 Frc consts  --      5.8033                 5.9355                 5.6838
 IR Inten    --     22.6923                28.6867                24.2691

                     73                     74                     75
                      A                      A                      A
 Frequencies --   3057.8974              3093.1559              3102.8485
 Red. masses --      1.0658                 1.0970                 1.0975
 Frc consts  --      5.8716                 6.1839                 6.2256
 IR Inten    --     32.8970                 5.8197                11.1184

                     76                     77                     78
                      A                      A                      A
 Frequencies --   3118.8732              3132.9153              3172.8501
 Red. masses --      1.0985                 1.1022                 1.0900
 Frc consts  --      6.2955                 6.3739                 6.4650
 IR Inten    --     46.5447                33.4709                13.3317

                     79                     80                     81
                      A                      A                      A
 Frequencies --   3192.4976              3226.7121              3230.7589
 Red. masses --      1.0884                 1.0909                 1.0938
 Frc consts  --      6.5356                 6.6919                 6.7265
 IR Inten    --     12.6508                 3.5005                10.1006

                     82                     83                     84
                      A                      A                      A
 Frequencies --   3471.1240              3559.7872              3578.2413
 Red. masses --      1.0497                 1.0930                 1.0752
 Frc consts  --      7.4519                 8.1603                 8.1114
 IR Inten    --      1.7851                 0.5166                21.1252

 - Thermochemistry -
 -------------------
 Temperature   298.150 Kelvin.  Pressure   1.00000 Atm.
 Atom     1 has atomic number  6 and mass  12.00000

 Molecular mass:   192.12626 amu.
 Principal axes and moments of inertia in atomic units:
                           1         2         3
     Eigenvalues --  1195.794786240.903546438.13666
           X            0.99986  -0.01221   0.01100
           Y            0.01122   0.99621   0.08620
           Z           -0.01201  -0.08606   0.99622
 This molecule is an asymmetric top.
 Rotational symmetry number  1.
 Warning -- assumption of classical behavior for rotation
           may cause significant error
 Rotational temperatures (Kelvin)      0.07243     0.01388     0.01345
 Rotational constants (GHZ):           1.50924     0.28918     0.28032
 Zero-point vibrational energy     681195.8 (Joules/Mol)
                                  162.80971 (Kcal/Mol)
 Warning -- explicit consideration of  20 degrees of freedom as
           vibrations may cause significant error
 Vibrational temperatures:     31.34    67.44    75.52    98.31   149.20
          (Kelvin)            186.46   248.12   293.94   328.57   362.24
                              415.84   425.61   469.74   529.68   586.48
                              640.45   663.35   743.84   764.43   873.25
                              895.86   946.78   970.12  1038.72  1066.19
                             1151.76  1164.20  1229.06  1245.17  1286.58
                             1295.64  1327.58  1332.76  1403.53  1416.95
                             1457.71  1470.63  1542.47  1560.18  1593.44
                             1615.86  1630.76  1707.07  1728.29  1733.49
                             1814.19  1840.40  1868.03  1895.30  1910.85
                             1949.16  1965.60  2007.79  2051.74  2054.09
                             2074.07  2091.63  2150.63  2176.88  2199.47
                             2200.65  2203.85  2218.66  2225.43  2373.02
                             2401.05  2437.13  2561.10  4262.67  4376.31
                             4378.58  4382.56  4399.63  4450.36  4464.31
                             4487.36  4507.57  4565.02  4593.29  4642.52
                             4648.34  4994.17  5121.74  5148.29

 Zero-point correction=                           0.259454 (Hartree/Particle)
 Thermal correction to Energy=                    0.273762
 Thermal correction to Enthalpy=                  0.274706
 Thermal correction to Gibbs Free Energy=         0.216641
 Sum of electronic and zero-point Energies=           -613.340350
 Sum of electronic and thermal Energies=              -613.326042
 Sum of electronic and thermal Enthalpies=            -613.325098
 Sum of electronic and thermal Free Energies=         -613.383163

                     E (Thermal)             CV                S
                      KCal/Mol        Cal/Mol-Kelvin    Cal/Mol-Kelvin
 Total                  171.788             53.398            122.207
 Electronic               0.000              0.000              0.000
 Translational            0.889              2.981             41.664
 Rotational               0.889              2.981             32.241
 Vibrational            170.011             47.437             48.302
 Vibration     1          0.593              1.985              6.465
 Vibration     2          0.595              1.979              4.945
 Vibration     3          0.596              1.977              4.721
 Vibration     4          0.598              1.969              4.201
 Vibration     5          0.605              1.946              3.384
 Vibration     6          0.612              1.924              2.952
 Vibration     7          0.626              1.876              2.409
 Vibration     8          0.640              1.834              2.094
 Vibration     9          0.651              1.798              1.892
 Vibration    10          0.664              1.760              1.718
 Vibration    11          0.686              1.694              1.480
 Vibration    12          0.690              1.682              1.440
 Vibration    13          0.710              1.623              1.277
 Vibration    14          0.741              1.538              1.087
 Vibration    15          0.772              1.454              0.935
 Vibration    16          0.805              1.372              0.811
 Vibration    17          0.819              1.336              0.763
 Vibration    18          0.872              1.212              0.617
 Vibration    19          0.886              1.181              0.584
 Vibration    20          0.966              1.017              0.438

                           ! Non-Optimized Parameters !
 Normal termination of Gaussian 16 at Thu Dec 10 09:41:49 2020.

 ----------------------------------------------------------------------
 # B3LYP/6-311++G(d,p) empiricaldispersion=gd3bj scf=xqc pop=npa geom=c
 heck
 ----------------------------------------------------------------------

 --------------------------------------
 CID_20117780_JID_4339_Energie_neutraal
 --------------------------------------
 Structure from the checkpoint file:  "JID_4339.chk"
 Charge =  0 Multiplicity = 1

 SCF Done:  E(RB3LYP) =  -613.780176159     A.U. after   15 cycles
 Normal termination of Gaussian 16 at Thu Dec 10 09:45:59 2020.

 ----------------------------------------------------------------------
 # B3LYP/6-311++G(d,p) empiricaldispersion=gd3bj scf=xqc pop=npa geom=c
 heck
 ----------------------------------------------------------------------

 ------------------------------------
 CID_20117780_JID_4339_Energie_kation
 ------------------------------------
 Structure from the checkpoint file:  "JID_4339.chk"
 Charge =  1 Multiplicity = 2

 SCF Done:  E(UB3LYP) =  -613.482123988     A.U. after   24 cycles
 Normal termination of Gaussian 16 at Thu Dec 10 09:55:16 2020.
 Gaussian 16:  ES64L-G16RevA.03 25-Dec-2016

 ----------------------------------------------------------------------
 # B3LYP/6-311++G(d,p) empiricaldispersion=gd3bj scf=xqc pop=npa geom=c
 heck
 ----------------------------------------------------------------------

 -----------------------------------
 CID_20117780_JID_4339_Energie_anion
 -----------------------------------
 Structure from the checkpoint file:  "JID_4339.chk"
 Charge = -1 Multiplicity = 2

                         Standard orientation:
 ---------------------------------------------------------------------
 Center     Atomic      Atomic             Coordinates (Angstroms)
 Number     Number       Type             X           Y           Z
 ---------------------------------------------------------------------
      1          6           0        3.919050    0.524249    1.814193
      2          6           0        3.961343   -0.575256    0.750509
      3          6           0        2.615329   -0.775847    0.045605
      4          6           0        2.246877    0.424555   -0.816369
      5          8           0        3.091245    1.177908   -1.284385
      6          7           0        0.909652    0.675293   -1.062309
      7          6           0       -0.259298    0.016538   -0.617300
      8          6           0       -0.386970   -1.377075   -0.641530
      9          6           0       -1.574021   -1.967270   -0.208738
     10          6           0       -2.646447   -1.188435    0.220145
     11          6           0       -2.538017    0.207513    0.222392
     12          6           0       -1.344179    0.796267   -0.195075
     13          6           0       -3.682179    1.073230    0.710312
     14          7           0       -4.980888    0.488348    0.365693
     15          1           0        3.681186    1.491156    1.359924
     16          1           0        4.886165    0.620434    2.319639
     17          1           0        3.161876    0.308153    2.578536
     18          1           0        4.716791   -0.330160   -0.002410
     19          1           0        4.254327   -1.527169    1.210423
     20          1           0        2.668804   -1.654951   -0.610849
     21          1           0        1.821030   -0.981173    0.771537
     22          1           0        0.778650    1.560334   -1.539040
     23          1           0        0.422274   -1.989755   -1.020700
     24          1           0       -1.665691   -3.049737   -0.227746
     25          1           0       -3.578546   -1.642129    0.538280
     26          1           0       -1.243627    1.879677   -0.186178
     27          1           0       -3.639543    1.138415    1.806419
     28          1           0       -3.531398    2.101259    0.336149
     29          1           0       -5.729487    1.055536    0.758292
     30          1           0       -5.103053    0.500535   -0.645757
 ---------------------------------------------------------------------

 SCF Done:  E(UB3LYP) =  -613.770695416     A.U. after   33 cycles
 SCF Done:  E(UB3LYP) =  -613.770695416     a.u. after    1 cycles

 The electronic state is 2-A.
 Alpha  occ. eigenvalues --  -19.00200 -14.25506 -14.18927 -10.18822 -10.12513
 Alpha  occ. eigenvalues --  -10.09422 -10.08913 -10.08143 -10.08108 -10.07958
 Alpha  occ. eigenvalues --  -10.07702 -10.07634 -10.07099 -10.06819  -0.95435
 Alpha  occ. eigenvalues --   -0.84593  -0.78562  -0.74898  -0.70771  -0.66284
 Alpha  occ. eigenvalues --   -0.64998  -0.62040  -0.56774  -0.53702  -0.52271
 Alpha  occ. eigenvalues --   -0.49868  -0.45883  -0.43368  -0.40562  -0.39680
 Alpha  occ. eigenvalues --   -0.38692  -0.38058  -0.37064  -0.35132  -0.33934
 Alpha  occ. eigenvalues --   -0.32803  -0.32042  -0.31519  -0.31405  -0.29842
 Alpha  occ. eigenvalues --   -0.29466  -0.26997  -0.26319  -0.25849  -0.25593
 Alpha  occ. eigenvalues --   -0.25000  -0.24407  -0.20386  -0.17424  -0.15866
 Alpha  occ. eigenvalues --   -0.14351  -0.13191   0.04123
 Alpha virt. eigenvalues --    0.05668   0.06943   0.07073   0.07515   0.07938
 Alpha virt. eigenvalues --    0.08254   0.08912   0.09571   0.09896   0.10144
 Alpha virt. eigenvalues --    0.10702   0.10997   0.11907   0.12280   0.12596

  Beta  occ. eigenvalues --  -19.00198 -14.25500 -14.18867 -10.18822 -10.12513
  Beta  occ. eigenvalues --  -10.09395 -10.08902 -10.08098 -10.08097 -10.07948
  Beta  occ. eigenvalues --  -10.07681 -10.07573 -10.07086 -10.06803  -0.95432
  Beta  occ. eigenvalues --   -0.84574  -0.78458  -0.74828  -0.70750  -0.66174
  Beta  occ. eigenvalues --   -0.64944  -0.62011  -0.56654  -0.53667  -0.52234
  Beta  occ. eigenvalues --   -0.49802  -0.45834  -0.43321  -0.40539  -0.39621
  Beta  occ. eigenvalues --   -0.38614  -0.38011  -0.37013  -0.35118  -0.33899
  Beta  occ. eigenvalues --   -0.32732  -0.31999  -0.31479  -0.31366  -0.29815
  Beta  occ. eigenvalues --   -0.29374  -0.26900  -0.26279  -0.25823  -0.25558
  Beta  occ. eigenvalues --   -0.24975  -0.24358  -0.20326  -0.17416  -0.15655
  Beta  occ. eigenvalues --   -0.14273  -0.13055
  Beta virt. eigenvalues --    0.06050   0.06648   0.07215   0.07518   0.08007
  Beta virt. eigenvalues --    0.08388   0.08411   0.09215   0.10063   0.10091
  Beta virt. eigenvalues --    0.10479   0.10852   0.11460   0.11976   0.12490

 Mulliken charges and spin densities:
               1          2
     1  C   -0.162503  -0.399617
     2  C    0.080647  -0.551506
     3  C    0.233206   0.001301
     4  C   -0.304734   0.072564
     5  O   -0.317865   0.003070
     6  N   -0.169010   0.080023
     7  C    0.833318  -1.144196
     8  C    1.139462  -0.643329
     9  C   -0.863222   0.718768
    10  C   -0.380424  -0.117894
    11  C   -1.340641   1.894134
    12  C   -1.143380   0.445582
    13  C    3.048528  -3.513601
    14  N   -0.496990   0.151964
    15  H    0.077757   0.089129
    16  H    0.029082   0.101936
    17  H   -0.022158   0.148611
    18  H    0.145719   0.021736
    19  H   -0.138887   0.284546
    20  H   -0.209992   0.381817
    21  H    0.294701  -0.115613
    22  H    0.142262   0.138017
    23  H   -0.114484   0.283610
    24  H   -0.300386   0.469846
    25  H    0.215987  -0.025693
    26  H   -0.000579   0.144193
    27  H   -0.285512   0.465281
    28  H   -0.654843   0.828345
    29  H   -0.259298   0.509486
    30  H   -0.075761   0.277494
 Sum of Mulliken charges =  -1.00000   1.00000

 Dipole moment (field-independent basis, Debye):
    X=              6.0189    Y=             -1.7881    Z=             -0.8520  Tot=              6.3364
 Quadrupole moment (field-independent basis, Debye-Ang):
   XX=           -193.1745   YY=           -121.6040   ZZ=           -116.3069
   XY=             11.7044   XZ=             10.1836   YZ=             -1.8562

 Summary of Natural Population Analysis:

                                       Natural Population
                Natural  -----------------------------------------------
    Atom  No    Charge         Core      Valence    Rydberg      Total
 -----------------------------------------------------------------------
      C    1   -0.28767      0.99967     2.28380    0.00421     3.28767
      C    2   -0.18876      0.99965     2.18153    0.00758     3.18876
      C    3   -0.23937      0.99958     2.23049    0.00930     3.23937
      C    4    0.35056      0.99967     1.62823    0.02154     2.64944
      O    5   -0.32607      0.99988     3.32012    0.00607     4.32607
      N    6   -0.31071      0.99964     2.80081    0.01026     3.81071
      C    7    0.07359      0.99946     1.91613    0.01082     2.92641
      C    8   -0.10954      0.99952     2.10136    0.00866     3.10954
      C    9   -0.09216      0.99957     2.08305    0.00954     3.09216
      C   10   -0.10306      0.99951     2.09447    0.00908     3.10306
      C   11   -0.00493      0.99951     1.99399    0.01143     3.00493
      C   12   -0.10678      0.99947     2.09822    0.00909     3.10678
      C   13   -0.09417      0.99960     2.08197    0.01260     3.09417
      N   14   -0.42157      0.99978     2.91101    0.01079     3.92157
      H   15    0.10269      0.00000     0.39613    0.00118     0.39731
      H   16    0.09618      0.00000     0.40291    0.00091     0.40382
      H   17    0.09506      0.00000     0.40381    0.00114     0.40494
      H   18    0.10316      0.00000     0.39547    0.00137     0.39684
      H   19    0.09455      0.00000     0.40414    0.00132     0.40545
      H   20    0.11274      0.00000     0.38574    0.00152     0.38726
      H   21    0.11038      0.00000     0.38809    0.00153     0.38962
      H   22    0.19595      0.00000     0.30138    0.00267     0.30405
      H   23    0.10270      0.00000     0.39537    0.00193     0.39730
      H   24    0.09903      0.00000     0.40009    0.00088     0.40097
      H   25    0.11138      0.00000     0.38723    0.00139     0.38862
      H   26    0.10022      0.00000     0.39825    0.00153     0.39978
      H   27    0.09902      0.00000     0.39885    0.00213     0.40098
      H   28    0.08306      0.00000     0.41449    0.00246     0.41694
      H   29    0.18066      0.00000     0.31385    0.00549     0.31934
      H   30    0.17386      0.00000     0.32373    0.00241     0.32614
 =======================================================================
   * Total *    0.00000     13.99450    37.83469    0.17081    52.00000

 Normal termination of Gaussian 16 at Thu Dec 10 10:08:00 2020.
