 Gaussian 16, Revision A.03,

 -----------------------------------------------------------
 # opt freq B3LYP/6-31G(d) empiricaldispersion=gd3bj scf=xqc
 -----------------------------------------------------------

 -------------------------------
 CID_131207715_JID_4209_neutraal
 -------------------------------
 Symbolic Z-matrix:
 Charge =  0 Multiplicity = 1

 SCF Done:  E(RB3LYP) =  -629.558606292     A.U. after   14 cycles
 SCF Done:  E(RB3LYP) =  -629.564271985     A.U. after   12 cycles
 SCF Done:  E(RB3LYP) =  -629.564964505     A.U. after   11 cycles
 SCF Done:  E(RB3LYP) =  -629.565071154     A.U. after   11 cycles
 SCF Done:  E(RB3LYP) =  -629.565131657     A.U. after   10 cycles
 SCF Done:  E(RB3LYP) =  -629.565176126     A.U. after   10 cycles
 SCF Done:  E(RB3LYP) =  -629.565238425     A.U. after   11 cycles
 SCF Done:  E(RB3LYP) =  -629.565302826     A.U. after   12 cycles
 SCF Done:  E(RB3LYP) =  -629.565294339     A.U. after   11 cycles
 SCF Done:  E(RB3LYP) =  -629.565442033     A.U. after   11 cycles
 SCF Done:  E(RB3LYP) =  -629.567471453     A.U. after    8 cycles
 SCF Done:  E(RB3LYP) =  -629.567471610     A.U. after    8 cycles
 SCF Done:  E(RB3LYP) =  -629.567471667     A.U. after    9 cycles
 SCF Done:  E(RB3LYP) =  -629.567471726     A.U. after    7 cycles
 SCF Done:  E(RB3LYP) =  -629.567471744     A.U. after    7 cycles
 Optimization completed.
    -- Stationary point found.
 Normal termination of Gaussian 16 at Thu Dec 10 09:37:33 2020.

 --------------------------------------------------------------------
 #N Geom=AllCheck Guess=TCheck SCRF=Check GenChk RB3LYP/6-31G(d) Freq
 --------------------------------------------------------------------

 Structure from the checkpoint file:  "JID_4209.chk"
 -------------------------------
 CID_131207715_JID_4209_neutraal
 -------------------------------
 Charge =  0 Multiplicity = 1

 SCF Done:  E(RB3LYP) =  -629.567471744     A.U. after    1 cycles

  Exact polarizability: 163.632  -4.753 111.014   4.847  -1.312  88.006
 Approx polarizability: 195.982  -1.788 179.770   5.932  -6.397 134.603

                      1                      2                      3
                      A                      A                      A
 Frequencies --     12.9959                26.4544                60.6835
 Red. masses --      2.5743                 3.9791                 4.5673
 Frc consts  --      0.0003                 0.0016                 0.0099
 IR Inten    --      0.0268                 0.0363                 0.4556

                      4                      5                      6
                      A                      A                      A
 Frequencies --     77.7911               142.2922               164.0007
 Red. masses --      3.8875                 1.0857                 3.4964
 Frc consts  --      0.0139                 0.0130                 0.0554
 IR Inten    --      0.1820                 0.0900                 2.3743

                      7                      8                      9
                      A                      A                      A
 Frequencies --    182.5922               213.0997               274.9971
 Red. masses --      3.0876                 2.7612                 2.3607
 Frc consts  --      0.0607                 0.0739                 0.1052
 IR Inten    --      0.7537                 1.4021                 2.5026

                     10                     11                     12
                      A                      A                      A
 Frequencies --    277.4506               329.7050               355.4788
 Red. masses --      3.3187                 2.6749                 5.5952
 Frc consts  --      0.1505                 0.1713                 0.4166
 IR Inten    --      4.0312                 5.9236                 6.2041

                     13                     14                     15
                      A                      A                      A
 Frequencies --    410.7836               450.6938               472.3409
 Red. masses --      3.6039                 1.4448                 1.6836
 Frc consts  --      0.3583                 0.1729                 0.2213
 IR Inten    --      4.8614                80.7198                32.8448

                     16                     17                     18
                      A                      A                      A
 Frequencies --    506.7741               572.5630               595.7965
 Red. masses --      3.1356                 2.3996                 2.4014
 Frc consts  --      0.4745                 0.4635                 0.5022
 IR Inten    --      9.9081                 2.9688                14.0911

                     19                     20                     21
                      A                      A                      A
 Frequencies --    655.5355               669.0284               736.5913
 Red. masses --      5.3898                 3.9640                 2.2790
 Frc consts  --      1.3646                 1.0454                 0.7285
 IR Inten    --      2.8519                 8.5391                 2.6017

                     22                     23                     24
                      A                      A                      A
 Frequencies --    754.9023               814.4714               820.9773
 Red. masses --      8.9833                 3.0261                 2.4592
 Frc consts  --      3.0163                 1.1827                 0.9766
 IR Inten    --     12.8800                 3.9069                 3.3614

                     25                     26                     27
                      A                      A                      A
 Frequencies --    860.7933               870.0544               887.1402
 Red. masses --      2.6852                 1.9371                 2.8002
 Frc consts  --      1.1723                 0.8640                 1.2985
 IR Inten    --      1.0190                 2.0432                 8.4309

                     28                     29                     30
                      A                      A                      A
 Frequencies --    903.7871               914.7763               921.8647
 Red. masses --      2.5661                 2.6514                 1.9087
 Frc consts  --      1.2350                 1.3072                 0.9557
 IR Inten    --      2.9128                 1.2174                 5.2665

                     31                     32                     33
                      A                      A                      A
 Frequencies --    973.2792               983.5609              1000.4905
 Red. masses --      1.5679                 1.6622                 3.0594
 Frc consts  --      0.8751                 0.9474                 1.8043
 IR Inten    --      0.9305                 4.1869                 0.3923

                     34                     35                     36
                      A                      A                      A
 Frequencies --   1015.7032              1037.6649              1057.0441
 Red. masses --      2.0761                 2.0694                 2.4683
 Frc consts  --      1.2619                 1.3129                 1.6250
 IR Inten    --      8.6530                 0.8806                 4.4869

                     37                     38                     39
                      A                      A                      A
 Frequencies --   1071.2091              1083.7788              1088.7490
 Red. masses --      1.2930                 1.5527                 1.8688
 Frc consts  --      0.8742                 1.0745                 1.3052
 IR Inten    --      4.0029                 4.4372                 2.0297

                     40                     41                     42
                      A                      A                      A
 Frequencies --   1100.6305              1118.5276              1175.5809
 Red. masses --      3.0109                 1.9225                 1.5369
 Frc consts  --      2.1490                 1.4171                 1.2514
 IR Inten    --      3.4874                 0.6157                 1.0728

                     43                     44                     45
                      A                      A                      A
 Frequencies --   1202.5324              1212.6127              1242.3409
 Red. masses --      1.5249                 2.2909                 2.2197
 Frc consts  --      1.2992                 1.9847                 2.0185
 IR Inten    --      4.0807                 0.3485                 0.9482

                     46                     47                     48
                      A                      A                      A
 Frequencies --   1260.7748              1286.1526              1290.2907
 Red. masses --      1.3407                 1.4344                 2.8073
 Frc consts  --      1.2556                 1.3980                 2.7537
 IR Inten    --      2.5635                 7.0111                23.2632

                     49                     50                     51
                      A                      A                      A
 Frequencies --   1310.6869              1326.3136              1360.3521
 Red. masses --      1.4484                 1.2990                 1.4113
 Frc consts  --      1.4660                 1.3464                 1.5387
 IR Inten    --     22.2158                 8.1760                 0.5400

                     52                     53                     54
                      A                      A                      A
 Frequencies --   1362.7518              1383.8116              1392.4130
 Red. masses --      1.3216                 1.6622                 2.3255
 Frc consts  --      1.4461                 1.8754                 2.6565
 IR Inten    --      3.6941                75.9519               118.1133

                     55                     56                     57
                      A                      A                      A
 Frequencies --   1433.4075              1450.0378              1500.6749
 Red. masses --      1.8736                 1.7280                 1.2731
 Frc consts  --      2.2681                 2.1406                 1.6893
 IR Inten    --     57.5642                56.8512                20.2314

                     58                     59                     60
                      A                      A                      A
 Frequencies --   1504.6259              1513.6107              1518.5416
 Red. masses --      1.0442                 1.4293                 1.0962
 Frc consts  --      1.3928                 1.9294                 1.4893
 IR Inten    --      7.5255                16.5999                 0.9763

                     61                     62                     63
                      A                      A                      A
 Frequencies --   1521.1382              1525.2458              1536.9042
 Red. masses --      1.0938                 1.1133                 1.7974
 Frc consts  --      1.4911                 1.5260                 2.5014
 IR Inten    --      4.4954                 8.0411                66.8122

                     64                     65                     66
                      A                      A                      A
 Frequencies --   1545.8229              1618.0142              1675.8960
 Red. masses --      1.1411                 4.2027                10.0974
 Frc consts  --      1.6065                 6.4825                16.7092
 IR Inten    --      2.4185                72.4501               570.9454

                     67                     68                     69
                      A                      A                      A
 Frequencies --   3036.1547              3045.2865              3052.0291
 Red. masses --      1.0718                 1.0667                 1.0603
 Frc consts  --      5.8212                 5.8284                 5.8188
 IR Inten    --     19.2525                32.2401                25.7722

                     70                     71                     72
                      A                      A                      A
 Frequencies --   3055.8299              3066.5544              3089.5993
 Red. masses --      1.0684                 1.0365                 1.0995
 Frc consts  --      5.8782                 5.7428                 6.1839
 IR Inten    --     34.3642                11.1640                28.1382

                     73                     74                     75
                      A                      A                      A
 Frequencies --   3104.2985              3110.2395              3113.6001
 Red. masses --      1.0946                 1.0971                 1.1029
 Frc consts  --      6.2151                 6.2532                 6.2994
 IR Inten    --     43.7566                28.1241                48.8434

                     76                     77                     78
                      A                      A                      A
 Frequencies --   3117.0865              3125.6767              3153.5102
 Red. masses --      1.0876                 1.1013                 1.0556
 Frc consts  --      6.2262                 6.3395                 6.1851
 IR Inten    --     39.1790                 9.9219                 7.5393

                     79                     80                     81
                      A                      A                      A
 Frequencies --   3162.9725              3236.9670              3601.4928
 Red. masses --      1.1024                 1.1177                 1.0759
 Frc consts  --      6.4981                 6.8999                 8.2219
 IR Inten    --      8.2053                 7.4563                37.4987

 - Thermochemistry -
 -------------------
 Temperature   298.150 Kelvin.  Pressure   1.00000 Atm.
 Atom     1 has atomic number  6 and mass  12.00000

 Molecular mass:   193.12151 amu.
 Principal axes and moments of inertia in atomic units:
                           1         2         3
     Eigenvalues --   836.275055930.972766401.68660
           X            0.99990  -0.01389   0.00299
           Y            0.01386   0.99986   0.00924
           Z           -0.00312  -0.00920   0.99995
 This molecule is an asymmetric top.
 Rotational symmetry number  1.
 Warning -- assumption of classical behavior for rotation
           may cause significant error
 Rotational temperatures (Kelvin)      0.10357     0.01460     0.01353
 Rotational constants (GHZ):           2.15807     0.30429     0.28192
 Zero-point vibrational energy     650103.9 (Joules/Mol)
                                  155.37856 (Kcal/Mol)
 Warning -- explicit consideration of  18 degrees of freedom as
           vibrations may cause significant error
 Vibrational temperatures:     18.70    38.06    87.31   111.92   204.73
          (Kelvin)            235.96   262.71   306.60   395.66   399.19
                              474.37   511.45   591.03   648.45   679.59
                              729.13   823.79   857.22   943.17   962.58
                             1059.79  1086.14  1171.84  1181.20  1238.49
                             1251.81  1276.40  1300.35  1316.16  1326.36
                             1400.33  1415.12  1439.48  1461.37  1492.97
                             1520.85  1541.23  1559.32  1566.47  1583.56
                             1609.31  1691.40  1730.18  1744.68  1787.45
                             1813.97  1850.49  1856.44  1885.79  1908.27
                             1957.24  1960.70  1991.00  2003.37  2062.35
                             2086.28  2159.14  2164.82  2177.75  2184.84
                             2188.58  2194.49  2211.26  2224.09  2327.96
                             2411.24  4368.35  4381.49  4391.19  4396.66
                             4412.09  4445.24  4466.39  4474.94  4479.78
                             4484.79  4497.15  4537.20  4550.81  4657.27
                             5181.74

 Zero-point correction=                           0.247611 (Hartree/Particle)
 Thermal correction to Energy=                    0.260726
 Thermal correction to Enthalpy=                  0.261670
 Thermal correction to Gibbs Free Energy=         0.205385
 Sum of electronic and zero-point Energies=           -629.319860
 Sum of electronic and thermal Energies=              -629.306745
 Sum of electronic and thermal Enthalpies=            -629.305801
 Sum of electronic and thermal Free Energies=         -629.362086

                     E (Thermal)             CV                S
                      KCal/Mol        Cal/Mol-Kelvin    Cal/Mol-Kelvin
 Total                  163.608             49.530            118.462
 Electronic               0.000              0.000              0.000
 Translational            0.889              2.981             41.680
 Rotational               0.889              2.981             31.829
 Vibrational            161.831             43.569             44.953
 Vibration     1          0.593              1.987              7.490
 Vibration     2          0.593              1.985              6.079
 Vibration     3          0.597              1.973              4.435
 Vibration     4          0.599              1.964              3.946
 Vibration     5          0.616              1.911              2.773
 Vibration     6          0.623              1.887              2.503
 Vibration     7          0.630              1.863              2.302
 Vibration     8          0.644              1.821              2.017
 Vibration     9          0.677              1.720              1.565
 Vibration    10          0.678              1.715              1.549
 Vibration    11          0.712              1.616              1.262
 Vibration    12          0.731              1.564              1.142
 Vibration    13          0.775              1.447              0.924
 Vibration    14          0.809              1.359              0.794
 Vibration    15          0.829              1.311              0.731
 Vibration    16          0.862              1.235              0.641
 Vibration    17          0.929              1.091              0.499
 Vibration    18          0.954              1.041              0.457

 Optimization completed.
    -- Stationary point found.
 Normal termination of Gaussian 16 at Thu Dec 10 09:45:03 2020.

 ----------------------------------------------------------------------
 # B3LYP/6-311++G(d,p) empiricaldispersion=gd3bj scf=xqc pop=npa geom=c
 heck
 ----------------------------------------------------------------------

 ---------------------------------------
 CID_131207715_JID_4209_Energie_neutraal
 ---------------------------------------
 Structure from the checkpoint file:  "JID_4209.chk"
 Charge =  0 Multiplicity = 1

 SCF Done:  E(RB3LYP) =  -629.737946981     A.U. after   14 cycles
 Normal termination of Gaussian 16 at Thu Dec 10 09:48:16 2020.

 ----------------------------------------------------------------------
 # B3LYP/6-311++G(d,p) empiricaldispersion=gd3bj scf=xqc pop=npa geom=c
 heck
 ----------------------------------------------------------------------

 -------------------------------------
 CID_131207715_JID_4209_Energie_kation
 -------------------------------------
 Structure from the checkpoint file:  "JID_4209.chk"
 Charge =  1 Multiplicity = 2

 SCF Done:  E(UB3LYP) =  -629.427518029     A.U. after   21 cycles
 Normal termination of Gaussian 16 at Thu Dec 10 09:55:25 2020.
 Gaussian 16:  ES64L-G16RevA.03 25-Dec-2016

 ----------------------------------------------------------------------
 # B3LYP/6-311++G(d,p) empiricaldispersion=gd3bj scf=xqc pop=npa geom=c
 heck
 ----------------------------------------------------------------------

 ------------------------------------
 CID_131207715_JID_4209_Energie_anion
 ------------------------------------
 Structure from the checkpoint file:  "JID_4209.chk"
 Charge = -1 Multiplicity = 2

                         Standard orientation:
 ---------------------------------------------------------------------
 Center     Atomic      Atomic             Coordinates (Angstroms)
 Number     Number       Type             X           Y           Z
 ---------------------------------------------------------------------
      1          6           0        4.663434   -1.072305    0.322903
      2          6           0        3.497789   -0.176033    0.074217
      3          7           0        3.643681    1.120237   -0.044255
      4          8           0        2.299625    1.567606   -0.268923
      5          6           0        1.539143    0.458004   -0.250908
      6          7           0        2.209014   -0.650377   -0.048729
      7          7           0        0.204171    0.624705   -0.409144
      8          6           0       -0.679739   -0.483675   -0.622114
      9          6           0       -0.874250   -1.466743    0.500976
     10          6           0       -1.995615   -0.538259    0.134092
     11          6           0       -2.420992    0.613366    1.041339
     12          6           0       -3.625905    1.214192    0.301601
     13          6           0       -4.371678   -0.030550   -0.211389
     14          6           0       -3.251532   -1.024084   -0.613063
     15          1           0        4.523760   -1.621760    1.259785
     16          1           0        4.750911   -1.809435   -0.482135
     17          1           0        5.585453   -0.490023    0.380573
     18          1           0       -0.082983    1.538600   -0.734500
     19          1           0       -0.682429   -0.884687   -1.636627
     20          1           0       -0.324517   -1.270622    1.416417
     21          1           0       -0.948345   -2.517460    0.234725
     22          1           0       -1.612570    1.325303    1.232146
     23          1           0       -2.741874    0.217339    2.014205
     24          1           0       -3.277539    1.819931   -0.546198
     25          1           0       -4.246580    1.857676    0.933394
     26          1           0       -4.969882   -0.454232    0.604517
     27          1           0       -5.058213    0.187946   -1.035285
     28          1           0       -3.510868   -2.053819   -0.344124
     29          1           0       -3.083309   -1.011038   -1.696527
 ---------------------------------------------------------------------

 SCF Done:  E(UB3LYP) =  -629.724522074     A.U. after   33 cycles
 SCF Done:  E(UB3LYP) =  -629.724522074     a.u. after    1 cycles

 The electronic state is 2-A.
 Alpha  occ. eigenvalues --  -19.11225 -14.26315 -14.25690 -14.21202 -10.21097
 Alpha  occ. eigenvalues --  -10.14994 -10.11607 -10.09450 -10.08823 -10.07452
 Alpha  occ. eigenvalues --  -10.06555 -10.06545 -10.06198 -10.06044  -1.06074
 Alpha  occ. eigenvalues --   -0.87485  -0.84166  -0.78244  -0.74755  -0.70281
 Alpha  occ. eigenvalues --   -0.65217  -0.61220  -0.56926  -0.55418  -0.52140
 Alpha  occ. eigenvalues --   -0.49593  -0.47426  -0.44824  -0.44112  -0.41249
 Alpha  occ. eigenvalues --   -0.40021  -0.39089  -0.37562  -0.36877  -0.34056
 Alpha  occ. eigenvalues --   -0.32005  -0.31654  -0.31633  -0.30890  -0.29946
 Alpha  occ. eigenvalues --   -0.28561  -0.25274  -0.25018  -0.24383  -0.23671
 Alpha  occ. eigenvalues --   -0.22961  -0.22380  -0.22299  -0.20686  -0.19218
 Alpha  occ. eigenvalues --   -0.17971  -0.14485   0.04434
 Alpha virt. eigenvalues --    0.05954   0.07299   0.07579   0.08242   0.08491
 Alpha virt. eigenvalues --    0.09506   0.09646   0.10130   0.10156   0.10828
 Alpha virt. eigenvalues --    0.11069   0.11296   0.12678   0.13533   0.13895

  Beta  occ. eigenvalues --  -19.11219 -14.26311 -14.25656 -14.21192 -10.21097
  Beta  occ. eigenvalues --  -10.14993 -10.11594 -10.09429 -10.08825 -10.07444
  Beta  occ. eigenvalues --  -10.06531 -10.06521 -10.06172 -10.06006  -1.06067
  Beta  occ. eigenvalues --   -0.87445  -0.84152  -0.78226  -0.74729  -0.70243
  Beta  occ. eigenvalues --   -0.65191  -0.61162  -0.56875  -0.55384  -0.52104
  Beta  occ. eigenvalues --   -0.49552  -0.47335  -0.44775  -0.44072  -0.41204
  Beta  occ. eigenvalues --   -0.39976  -0.39045  -0.37535  -0.36845  -0.34033
  Beta  occ. eigenvalues --   -0.31977  -0.31616  -0.31599  -0.30858  -0.29916
  Beta  occ. eigenvalues --   -0.28525  -0.25245  -0.25000  -0.24342  -0.23620
  Beta  occ. eigenvalues --   -0.22921  -0.22361  -0.22248  -0.20669  -0.19198
  Beta  occ. eigenvalues --   -0.17950  -0.14461
  Beta virt. eigenvalues --    0.06236   0.06998   0.08235   0.08276   0.08671
  Beta virt. eigenvalues --    0.08754   0.09831   0.09975   0.10469   0.10705
  Beta virt. eigenvalues --    0.11188   0.11292   0.11597   0.12934   0.13804

 Mulliken charges and spin densities:
               1          2
     1  C    0.719958  -1.213689
     2  C    0.342404   0.298826
     3  N   -0.367350   0.014859
     4  O    0.143815  -0.021096
     5  C   -0.161337  -0.136596
     6  N   -0.135616   0.021402
     7  N   -0.291127   0.036025
     8  C    0.508224  -1.164239
     9  C   -0.499524  -0.082451
    10  C   -0.701696   1.972172
    11  C   -0.597261   0.081172
    12  C    0.713587  -1.172967
    13  C   -0.049129  -0.229213
    14  C    1.432334  -2.060289
    15  H   -0.065907   0.230523
    16  H   -0.110783   0.279048
    17  H    0.052515   0.098489
    18  H   -0.153498   0.477642
    19  H   -0.336519   0.580729
    20  H    0.166922   0.028310
    21  H   -0.162608   0.316883
    22  H   -0.028286   0.188303
    23  H   -0.132690   0.289070
    24  H   -0.179620   0.314780
    25  H   -0.369172   0.531164
    26  H    0.028182   0.095487
    27  H   -0.426901   0.591487
    28  H   -0.173273   0.328862
    29  H   -0.165645   0.305307
 Sum of Mulliken charges =  -1.00000   1.00000

 Dipole moment (field-independent basis, Debye):
    X=              4.1496    Y=             -1.6502    Z=              2.1484  Tot=              4.9556
 Quadrupole moment (field-independent basis, Debye-Ang):
   XX=           -172.5435   YY=           -125.4644   ZZ=           -116.1417
   XY=              2.6993   XZ=             -3.8210   YZ=             -1.1326

 Summary of Natural Population Analysis:

                                       Natural Population
                Natural  -----------------------------------------------
    Atom  No    Charge         Core      Valence    Rydberg      Total
 -----------------------------------------------------------------------
      C    1   -0.30251      0.99962     2.29798    0.00492     3.30251
      C    2    0.18103      0.99967     1.80176    0.01754     2.81897
      N    3   -0.11028      0.99967     2.59877    0.01184     3.61028
      O    4   -0.18537      0.99985     3.17766    0.00785     4.18537
      C    5    0.37189      0.99962     1.60895    0.01953     2.62811
      N    6   -0.29820      0.99966     2.78900    0.00954     3.79820
      N    7   -0.30898      0.99964     2.79834    0.01100     3.80898
      C    8   -0.01073      0.99950     1.99863    0.01260     3.01073
      C    9   -0.18367      0.99956     2.17542    0.00870     3.18367
      C   10   -0.04035      0.99955     2.02717    0.01362     3.04035
      C   11   -0.18799      0.99959     2.17940    0.00900     3.18799
      C   12   -0.18914      0.99964     2.18116    0.00834     3.18914
      C   13   -0.18853      0.99964     2.18119    0.00770     3.18853
      C   14   -0.18608      0.99960     2.17815    0.00833     3.18608
      H   15    0.10959      0.00000     0.38907    0.00134     0.39041
      H   16    0.11045      0.00000     0.38813    0.00142     0.38955
      H   17    0.10858      0.00000     0.39008    0.00134     0.39142
      H   18    0.20420      0.00000     0.29138    0.00442     0.29580
      H   19    0.09888      0.00000     0.39928    0.00185     0.40112
      H   20    0.10767      0.00000     0.39108    0.00125     0.39233
      H   21    0.10525      0.00000     0.39374    0.00101     0.39475
      H   22    0.10568      0.00000     0.39287    0.00146     0.39432
      H   23    0.09699      0.00000     0.40175    0.00126     0.40301
      H   24    0.09644      0.00000     0.40088    0.00268     0.40356
      H   25    0.09968      0.00000     0.39898    0.00135     0.40032
      H   26    0.09298      0.00000     0.40559    0.00143     0.40702
      H   27    0.10135      0.00000     0.39731    0.00133     0.39865
      H   28    0.09945      0.00000     0.39919    0.00136     0.40055
      H   29    0.10174      0.00000     0.39616    0.00211     0.39826
 =======================================================================
   * Total *   -0.00000     13.99480    37.82908    0.17612    52.00000

 Normal termination of Gaussian 16 at Thu Dec 10 10:07:06 2020.
