 Gaussian 16, Revision A.03,

 -----------------------------------------------------------
 # opt freq B3LYP/6-31G(d) empiricaldispersion=gd3bj scf=xqc
 -----------------------------------------------------------

 ------------------------------
 CID_57269941_JID_1879_neutraal
 ------------------------------
 Symbolic Z-matrix:
 Charge =  0 Multiplicity = 1

 SCF Done:  E(RB3LYP) =  -479.558969259     A.U. after   14 cycles
 SCF Done:  E(RB3LYP) =  -479.561169976     A.U. after   12 cycles
 SCF Done:  E(RB3LYP) =  -479.561967122     A.U. after   12 cycles
 SCF Done:  E(RB3LYP) =  -479.562348033     A.U. after   12 cycles
 SCF Done:  E(RB3LYP) =  -479.562517542     A.U. after   12 cycles
 SCF Done:  E(RB3LYP) =  -479.562644223     A.U. after   12 cycles
 SCF Done:  E(RB3LYP) =  -479.562667829     A.U. after   11 cycles
 SCF Done:  E(RB3LYP) =  -479.562680225     A.U. after   11 cycles
 SCF Done:  E(RB3LYP) =  -479.562688377     A.U. after   10 cycles
 SCF Done:  E(RB3LYP) =  -479.562691585     A.U. after    8 cycles
 SCF Done:  E(RB3LYP) =  -479.562772750     A.U. after    9 cycles
 SCF Done:  E(RB3LYP) =  -479.562772910     A.U. after    8 cycles
 SCF Done:  E(RB3LYP) =  -479.562772999     A.U. after    7 cycles
 SCF Done:  E(RB3LYP) =  -479.562773028     A.U. after    7 cycles
 SCF Done:  E(RB3LYP) =  -479.562773040     A.U. after    6 cycles
 Optimization completed.
    -- Stationary point found.
 Normal termination of Gaussian 16 at Tue Dec  8 21:31:21 2020.

 --------------------------------------------------------------------
 #N Geom=AllCheck Guess=TCheck SCRF=Check GenChk RB3LYP/6-31G(d) Freq
 --------------------------------------------------------------------

 Structure from the checkpoint file:  "JID_1879.chk"
 ------------------------------
 CID_57269941_JID_1879_neutraal
 ------------------------------
 Charge =  0 Multiplicity = 1

 SCF Done:  E(RB3LYP) =  -479.562773040     A.U. after    1 cycles

  Exact polarizability: 119.614   0.732  98.437  -8.138   6.414  73.132
 Approx polarizability: 167.343   3.628 163.293 -19.150  15.787 117.897

                      1                      2                      3
                      A                      A                      A
 Frequencies --     27.9563                41.2733                83.8680
 Red. masses --      2.1290                 3.1313                 1.4969
 Frc consts  --      0.0010                 0.0031                 0.0062
 IR Inten    --      1.9910                 0.7460                 1.0668

                      4                      5                      6
                      A                      A                      A
 Frequencies --    148.0924               195.4852               239.8181
 Red. masses --      3.6250                 4.2342                 3.5268
 Frc consts  --      0.0468                 0.0953                 0.1195
 IR Inten    --      1.9013                 1.6866                 1.1411

                      7                      8                      9
                      A                      A                      A
 Frequencies --    283.5226               333.6014               400.4736
 Red. masses --      2.8751                 1.2600                 4.5497
 Frc consts  --      0.1362                 0.0826                 0.4299
 IR Inten    --     11.3676               103.4176                 8.3595

                     10                     11                     12
                      A                      A                      A
 Frequencies --    415.9811               417.4665               472.8475
 Red. masses --      3.5016                 3.2424                 3.6603
 Frc consts  --      0.3570                 0.3329                 0.4822
 IR Inten    --      3.3034                 3.1135                 2.8808

                     13                     14                     15
                      A                      A                      A
 Frequencies --    519.8363               620.4544               636.2043
 Red. masses --      4.5216                 3.8589                 6.3873
 Frc consts  --      0.7199                 0.8752                 1.5232
 IR Inten    --      6.0545                 9.8642                 0.0124

                     16                     17                     18
                      A                      A                      A
 Frequencies --    713.2548               736.5331               752.1214
 Red. masses --      2.5080                 2.8134                 2.0352
 Frc consts  --      0.7517                 0.8992                 0.6783
 IR Inten    --      6.1808                45.5054                35.7051

                     19                     20                     21
                      A                      A                      A
 Frequencies --    818.3807               868.1414               886.0538
 Red. masses --      1.6052                 1.2466                 2.3865
 Frc consts  --      0.6334                 0.5536                 1.1039
 IR Inten    --      2.1103                 0.3343                11.1953

                     22                     23                     24
                      A                      A                      A
 Frequencies --    890.6595               944.8100               978.0879
 Red. masses --      1.6862                 1.5237                 1.3400
 Frc consts  --      0.7881                 0.8014                 0.7553
 IR Inten    --     14.5819                 8.7410                 0.0602

                     25                     26                     27
                      A                      A                      A
 Frequencies --    998.0318              1016.5083              1022.4001
 Red. masses --      1.2963                 3.5876                 6.1655
 Frc consts  --      0.7608                 2.1841                 3.7971
 IR Inten    --      4.6426                28.2752                 0.2965

                     28                     29                     30
                      A                      A                      A
 Frequencies --   1057.0903              1065.3075              1099.0618
 Red. masses --      3.9770                 2.4625                 1.6440
 Frc consts  --      2.6184                 1.6466                 1.1700
 IR Inten    --     53.2556                23.8490                 0.7517

                     31                     32                     33
                      A                      A                      A
 Frequencies --   1121.1089              1159.3381              1193.4016
 Red. masses --      1.6622                 2.1874                 1.1188
 Frc consts  --      1.2309                 1.7322                 0.9388
 IR Inten    --      2.2499                16.4013                 3.6896

                     34                     35                     36
                      A                      A                      A
 Frequencies --   1199.3700              1216.1087              1263.2486
 Red. masses --      1.8049                 1.2068                 1.2588
 Frc consts  --      1.5297                 1.0516                 1.1835
 IR Inten    --     65.1360                 4.3744                23.0508

                     37                     38                     39
                      A                      A                      A
 Frequencies --   1343.9934              1366.1271              1388.5325
 Red. masses --      2.0097                 2.0884                 1.3493
 Frc consts  --      2.1388                 2.2964                 1.5327
 IR Inten    --      5.2629                 0.5305                25.8016

                     40                     41                     42
                      A                      A                      A
 Frequencies --   1422.2537              1439.2243              1447.8317
 Red. masses --      1.2081                 1.3665                 1.2395
 Frc consts  --      1.4399                 1.6676                 1.5309
 IR Inten    --     10.5083                19.7990                14.0865

                     43                     44                     45
                      A                      A                      A
 Frequencies --   1498.2680              1500.7707              1507.4827
 Red. masses --      2.1182                 1.0725                 1.0699
 Frc consts  --      2.8015                 1.4233                 1.4325
 IR Inten    --     11.7854                14.7757                 6.7410

                     46                     47                     48
                      A                      A                      A
 Frequencies --   1546.4228              1646.0374              1667.7937
 Red. masses --      2.2412                 5.7499                 5.5823
 Frc consts  --      3.1578                 9.1789                 9.1484
 IR Inten    --      9.1223                 0.8653                 2.5901

                     49                     50                     51
                      A                      A                      A
 Frequencies --   1750.6366              3008.1092              3045.3712
 Red. masses --      7.6939                 1.0840                 1.0446
 Frc consts  --     13.8927                 5.7791                 5.7081
 IR Inten    --    121.9976                63.3674                10.0225

                     52                     53                     54
                      A                      A                      A
 Frequencies --   3075.3303              3096.5202              3181.3684
 Red. masses --      1.0864                 1.0973                 1.0851
 Frc consts  --      6.0538                 6.1993                 6.4707
 IR Inten    --     58.9692                15.0689                 0.1173

                     55                     56                     57
                      A                      A                      A
 Frequencies --   3191.5009              3201.4049              3204.9868
 Red. masses --      1.0896                 1.0963                 1.0945
 Frc consts  --      6.5387                 6.6202                 6.6240
 IR Inten    --     19.4037                 5.4499                32.5839

                     58                     59                     60
                      A                      A                      A
 Frequencies --   3217.9851              3231.5848              3748.5582
 Red. masses --      1.0938                 1.0920                 1.0661
 Frc consts  --      6.6734                 6.7192                 8.8265
 IR Inten    --      8.9668                 4.6405                21.6884

 - Thermochemistry -
 -------------------
 Temperature   298.150 Kelvin.  Pressure   1.00000 Atm.
 Atom     1 has atomic number  6 and mass  12.00000

 Molecular mass:   149.08406 amu.
 Principal axes and moments of inertia in atomic units:
                           1         2         3
     Eigenvalues --   893.397092291.388142547.79396
           X            0.99994  -0.00213   0.01062
           Y            0.00227   0.99991  -0.01316
           Z           -0.01059   0.01318   0.99986
 This molecule is an asymmetric top.
 Rotational symmetry number  1.
 Warning -- assumption of classical behavior for rotation
           may cause significant error
 Rotational temperatures (Kelvin)      0.09695     0.03780     0.03400
 Rotational constants (GHZ):           2.02009     0.78762     0.70835
 Zero-point vibrational energy     481879.7 (Joules/Mol)
                                  115.17201 (Kcal/Mol)
 Warning -- explicit consideration of  14 degrees of freedom as
           vibrations may cause significant error
 Vibrational temperatures:     40.22    59.38   120.67   213.07   281.26
          (Kelvin)            345.04   407.93   479.98   576.19   598.50
                              600.64   680.32   747.93   892.70   915.36
                             1026.21  1059.71  1082.13  1177.47  1249.06
                             1274.83  1281.46  1359.37  1407.25  1435.95
                             1462.53  1471.01  1520.92  1532.74  1581.30
                             1613.03  1668.03  1717.04  1725.63  1749.71
                             1817.53  1933.71  1965.55  1997.79  2046.31
                             2070.72  2083.11  2155.67  2159.27  2168.93
                             2224.96  2368.28  2399.58  2518.78  4328.00
                             4381.61  4424.71  4455.20  4577.28  4591.86
                             4606.11  4611.26  4629.96  4649.53  5393.34

 Zero-point correction=                           0.183538 (Hartree/Particle)
 Thermal correction to Energy=                    0.194046
 Thermal correction to Enthalpy=                  0.194990
 Thermal correction to Gibbs Free Energy=         0.146133
 Sum of electronic and zero-point Energies=           -479.379235
 Sum of electronic and thermal Energies=              -479.368727
 Sum of electronic and thermal Enthalpies=            -479.367783
 Sum of electronic and thermal Free Energies=         -479.416640

                     E (Thermal)             CV                S
                      KCal/Mol        Cal/Mol-Kelvin    Cal/Mol-Kelvin
 Total                  121.766             39.183            102.828
 Electronic               0.000              0.000              0.000
 Translational            0.889              2.981             40.908
 Rotational               0.889              2.981             30.035
 Vibrational            119.988             33.221             31.885
 Vibration     1          0.593              1.984              5.969
 Vibration     2          0.594              1.981              5.197
 Vibration     3          0.601              1.960              3.798
 Vibration     4          0.617              1.905              2.697
 Vibration     5          0.636              1.846              2.175
 Vibration     6          0.657              1.780              1.804
 Vibration     7          0.682              1.704              1.512
 Vibration     8          0.715              1.608              1.243
 Vibration     9          0.766              1.469              0.961
 Vibration    10          0.779              1.436              0.906
 Vibration    11          0.781              1.432              0.901
 Vibration    12          0.830              1.310              0.730
 Vibration    13          0.875              1.206              0.610
 Vibration    14          0.981              0.989              0.416

 Optimization completed.
    -- Stationary point found.
 Normal termination of Gaussian 16 at Tue Dec  8 21:36:22 2020.

 ----------------------------------------------------------------------
 # B3LYP/6-311++G(d,p) empiricaldispersion=gd3bj scf=xqc pop=npa geom=c
 heck
 ----------------------------------------------------------------------

 --------------------------------------
 CID_57269941_JID_1879_Energie_neutraal
 --------------------------------------
 Structure from the checkpoint file:  "JID_1879.chk"
 Charge =  0 Multiplicity = 1

 SCF Done:  E(RB3LYP) =  -479.702566130     A.U. after   14 cycles
 Normal termination of Gaussian 16 at Tue Dec  8 21:38:58 2020.

 ----------------------------------------------------------------------
 # B3LYP/6-311++G(d,p) empiricaldispersion=gd3bj scf=xqc pop=npa geom=c
 heck
 ----------------------------------------------------------------------

 ------------------------------------
 CID_57269941_JID_1879_Energie_kation
 ------------------------------------
 Structure from the checkpoint file:  "JID_1879.chk"
 Charge =  1 Multiplicity = 2

 SCF Done:  E(UB3LYP) =  -479.388147842     A.U. after   32 cycles
 Normal termination of Gaussian 16 at Tue Dec  8 21:45:24 2020.
 Gaussian 16:  ES64L-G16RevA.03 25-Dec-2016

 ----------------------------------------------------------------------
 # B3LYP/6-311++G(d,p) empiricaldispersion=gd3bj scf=xqc pop=npa geom=c
 heck
 ----------------------------------------------------------------------

 -----------------------------------
 CID_57269941_JID_1879_Energie_anion
 -----------------------------------
 Structure from the checkpoint file:  "JID_1879.chk"
 Charge = -1 Multiplicity = 2

                         Standard orientation:
 ---------------------------------------------------------------------
 Center     Atomic      Atomic             Coordinates (Angstroms)
 Number     Number       Type             X           Y           Z
 ---------------------------------------------------------------------
      1          6           0        2.120216   -0.555195    1.618634
      2          6           0        2.366381   -1.033059    0.210988
      3          7           0        1.923307   -0.602874   -0.903989
      4          6           0        1.032313    0.563230   -0.934210
      5          6           0       -0.372479    0.238047   -0.452171
      6          6           0       -0.921326   -1.029849   -0.676409
      7          6           0       -2.223381   -1.316301   -0.268936
      8          6           0       -2.990686   -0.340416    0.369297
      9          6           0       -2.448082    0.925200    0.591953
     10          6           0       -1.147340    1.216352    0.178850
     11          8           0        1.519423    1.678222   -0.189636
     12          1           0        1.292297    0.147039    1.692692
     13          1           0        3.024242   -0.064699    2.004195
     14          1           0        1.931179   -1.423447    2.261484
     15          1           0        3.033371   -1.900945    0.138954
     16          1           0        0.975876    0.854925   -1.993231
     17          1           0       -0.322022   -1.790893   -1.165047
     18          1           0       -2.637393   -2.305006   -0.447182
     19          1           0       -4.003932   -0.565425    0.690490
     20          1           0       -3.037508    1.690612    1.089589
     21          1           0       -0.720977    2.197639    0.352090
     22          1           0        2.352635    1.946489   -0.607003
 ---------------------------------------------------------------------

 SCF Done:  E(UB3LYP) =  -479.687964696     A.U. after   33 cycles
 SCF Done:  E(UB3LYP) =  -479.687964696     a.u. after    1 cycles

 The electronic state is 2-A.
 Alpha  occ. eigenvalues --  -19.01204 -14.18960 -10.13831 -10.10550 -10.07404
 Alpha  occ. eigenvalues --  -10.07017 -10.06910 -10.06786 -10.06614 -10.06341
 Alpha  occ. eigenvalues --  -10.05785  -0.92269  -0.79968  -0.75028  -0.66040
 Alpha  occ. eigenvalues --   -0.64089  -0.62541  -0.56698  -0.50449  -0.48788
 Alpha  occ. eigenvalues --   -0.44903  -0.41611  -0.40708  -0.35731  -0.35108
 Alpha  occ. eigenvalues --   -0.33757  -0.32616  -0.31918  -0.31650  -0.30967
 Alpha  occ. eigenvalues --   -0.27588  -0.26640  -0.25527  -0.24614  -0.23887
 Alpha  occ. eigenvalues --   -0.20308  -0.17277  -0.15032  -0.14507  -0.13546
 Alpha  occ. eigenvalues --    0.04803
 Alpha virt. eigenvalues --    0.06649   0.07621   0.08200   0.08654   0.09090
 Alpha virt. eigenvalues --    0.09394   0.09506   0.09890   0.10792   0.11450
 Alpha virt. eigenvalues --    0.12153   0.13218   0.14368   0.16031   0.16310

  Beta  occ. eigenvalues --  -19.01141 -14.18955 -10.13810 -10.10487 -10.07383
  Beta  occ. eigenvalues --  -10.07018 -10.06891 -10.06744 -10.06609 -10.06309
  Beta  occ. eigenvalues --  -10.05759  -0.92125  -0.79893  -0.74976  -0.65949
  Beta  occ. eigenvalues --   -0.64039  -0.62467  -0.56607  -0.50403  -0.48704
  Beta  occ. eigenvalues --   -0.44816  -0.41511  -0.40625  -0.35660  -0.35048
  Beta  occ. eigenvalues --   -0.33706  -0.32554  -0.31865  -0.31619  -0.30885
  Beta  occ. eigenvalues --   -0.27541  -0.26539  -0.25454  -0.24552  -0.23854
  Beta  occ. eigenvalues --   -0.20201  -0.17158  -0.14943  -0.14378  -0.13474
  Beta virt. eigenvalues --    0.07027   0.07834   0.08294   0.08623   0.08817
  Beta virt. eigenvalues --    0.09405   0.09855   0.10176   0.10317   0.11218
  Beta virt. eigenvalues --    0.11981   0.12726   0.13478   0.14286   0.16019

 Mulliken charges and spin densities:
               1          2
     1  C    0.800508  -1.344752
     2  C   -0.395964   0.453950
     3  N   -0.210507   0.176029
     4  C    3.215191  -3.862196
     5  C   -0.993819   1.879716
     6  C   -1.363268   1.142874
     7  C   -0.025047  -0.382994
     8  C    0.612280  -0.943802
     9  C   -0.258805  -0.014177
    10  C   -0.057092  -0.194294
    11  O   -0.313087   0.075089
    12  H    0.212798  -0.018442
    13  H   -0.233085   0.398845
    14  H   -0.108200   0.232313
    15  H   -0.432088   0.588976
    16  H   -0.228506   0.452188
    17  H    0.058767   0.125978
    18  H   -0.455449   0.621725
    19  H   -0.363978   0.498962
    20  H   -0.153081   0.313255
    21  H   -0.010846   0.220342
    22  H   -0.296722   0.580416
 Sum of Mulliken charges =  -1.00000   1.00000

 Dipole moment (field-independent basis, Debye):
    X=             -2.6192    Y=             -0.7328    Z=              0.7890  Tot=              2.8319
 Quadrupole moment (field-independent basis, Debye-Ang):
   XX=           -126.4050   YY=           -101.2705   ZZ=            -94.1557
   XY=             -8.7357   XZ=              1.7473   YZ=              2.0464

 Summary of Natural Population Analysis:

                                       Natural Population
                Natural  -----------------------------------------------
    Atom  No    Charge         Core      Valence    Rydberg      Total
 -----------------------------------------------------------------------
      C    1   -0.32741      0.99964     2.32207    0.00570     3.32741
      C    2    0.09950      0.99963     1.88518    0.01569     2.90050
      N    3   -0.25325      0.99970     2.73989    0.01367     3.75325
      C    4    0.13283      0.99953     1.84808    0.01956     2.86717
      C    5   -0.03178      0.99951     2.01888    0.01340     3.03178
      C    6   -0.08010      0.99951     2.07459    0.00600     3.08010
      C    7   -0.10855      0.99959     2.09565    0.01330     3.10855
      C    8   -0.10267      0.99956     2.09214    0.01097     3.10267
      C    9   -0.10321      0.99956     2.09393    0.00972     3.10321
      C   10   -0.09509      0.99950     2.08630    0.00929     3.09509
      O   11   -0.37472      0.99989     3.36726    0.00756     4.37472
      H   12    0.11492      0.00000     0.38343    0.00166     0.38508
      H   13    0.11318      0.00000     0.38482    0.00200     0.38682
      H   14    0.10217      0.00000     0.39668    0.00115     0.39783
      H   15    0.07663      0.00000     0.42183    0.00154     0.42337
      H   16    0.08543      0.00000     0.41212    0.00245     0.41457
      H   17    0.10530      0.00000     0.39307    0.00164     0.39470
      H   18    0.09939      0.00000     0.39945    0.00115     0.40061
      H   19    0.09879      0.00000     0.40004    0.00117     0.40121
      H   20    0.09778      0.00000     0.40136    0.00086     0.40222
      H   21    0.11180      0.00000     0.38673    0.00146     0.38820
      H   22    0.23910      0.00000     0.24404    0.01687     0.26090
 =======================================================================
   * Total *    0.00003     10.99562    28.84753    0.15682    39.99997

 Normal termination of Gaussian 16 at Tue Dec  8 21:51:03 2020.
