 Gaussian 16, Revision A.03,

 -----------------------------------------------------------
 # opt freq B3LYP/6-31G(d) empiricaldispersion=gd3bj scf=xqc
 -----------------------------------------------------------

 -------------------------------
 CID_113735982_JID_9446_neutraal
 -------------------------------
 Symbolic Z-matrix:
 Charge =  0 Multiplicity = 1

 SCF Done:  E(RB3LYP) =  -883.185914241     A.U. after   15 cycles
 SCF Done:  E(RB3LYP) =  -883.191625739     A.U. after   13 cycles
 SCF Done:  E(RB3LYP) =  -883.187909422     A.U. after   12 cycles
 SCF Done:  E(RB3LYP) =  -883.193348664     A.U. after   12 cycles
 SCF Done:  E(RB3LYP) =  -883.195975481     A.U. after   14 cycles
 SCF Done:  E(RB3LYP) =  -883.195714872     A.U. after   13 cycles
 SCF Done:  E(RB3LYP) =  -883.195968272     A.U. after   13 cycles
 SCF Done:  E(RB3LYP) =  -883.196717768     A.U. after   10 cycles
 SCF Done:  E(RB3LYP) =  -883.197268316     A.U. after   13 cycles
 SCF Done:  E(RB3LYP) =  -883.198224887     A.U. after   12 cycles
 SCF Done:  E(RB3LYP) =  -883.207882336     A.U. after    8 cycles
 SCF Done:  E(RB3LYP) =  -883.207883253     A.U. after    8 cycles
 SCF Done:  E(RB3LYP) =  -883.207883830     A.U. after    8 cycles
 SCF Done:  E(RB3LYP) =  -883.207884258     A.U. after    8 cycles
 SCF Done:  E(RB3LYP) =  -883.207884354     A.U. after    7 cycles
 Optimization completed.
    -- Stationary point found.
 Normal termination of Gaussian 16 at Sat Dec 12 10:31:24 2020.

 --------------------------------------------------------------------
 #N Geom=AllCheck Guess=TCheck SCRF=Check GenChk RB3LYP/6-31G(d) Freq
 --------------------------------------------------------------------

 Structure from the checkpoint file:  "JID_9446.chk"
 -------------------------------
 CID_113735982_JID_9446_neutraal
 -------------------------------
 Charge =  0 Multiplicity = 1

 SCF Done:  E(RB3LYP) =  -883.207884354     A.U. after    1 cycles

  Exact polarizability: 189.471   0.376 147.722  -8.679   2.373 154.688
 Approx polarizability: 235.943   0.651 212.218 -16.450   5.877 255.718

                      1                      2                      3
                      A                      A                      A
 Frequencies --     23.0047                51.4745                61.0571
 Red. masses --      5.3659                 3.1826                 5.1327
 Frc consts  --      0.0017                 0.0050                 0.0113
 IR Inten    --      0.3658                 0.4076                 0.4024

                      4                      5                      6
                      A                      A                      A
 Frequencies --     65.9668                89.0838                98.0070
 Red. masses --      4.2144                 4.2919                 4.8045
 Frc consts  --      0.0108                 0.0201                 0.0272
 IR Inten    --      2.3227                 0.5176                 2.2276

                      7                      8                      9
                      A                      A                      A
 Frequencies --    109.9659               118.9427               151.6889
 Red. masses --      3.6030                 3.5042                 3.5268
 Frc consts  --      0.0257                 0.0292                 0.0478
 IR Inten    --      0.7455                 0.3959                 0.4505

                     10                     11                     12
                      A                      A                      A
 Frequencies --    178.8366               185.3066               198.1110
 Red. masses --      2.2692                 2.6251                 2.6303
 Frc consts  --      0.0428                 0.0531                 0.0608
 IR Inten    --      0.1074                 1.0804                 0.4591

                     13                     14                     15
                      A                      A                      A
 Frequencies --    225.4788               245.0191               252.6973
 Red. masses --      1.9224                 1.2838                 1.4008
 Frc consts  --      0.0576                 0.0454                 0.0527
 IR Inten    --      1.1612                 0.5480                 1.6122

                     16                     17                     18
                      A                      A                      A
 Frequencies --    276.4842               280.2747               295.1913
 Red. masses --      2.7034                 1.2993                 2.7066
 Frc consts  --      0.1218                 0.0601                 0.1390
 IR Inten    --      0.5991                 0.0917                 4.6295

                     19                     20                     21
                      A                      A                      A
 Frequencies --    312.4266               326.3368               332.7423
 Red. masses --      2.1917                 1.9393                 2.1364
 Frc consts  --      0.1260                 0.1217                 0.1394
 IR Inten    --      1.3790                 8.5261                 2.8707

                     22                     23                     24
                      A                      A                      A
 Frequencies --    343.0526               362.6009               398.3054
 Red. masses --      1.8889                 3.5113                 2.4132
 Frc consts  --      0.1310                 0.2720                 0.2256
 IR Inten    --      0.4693                 2.3272                 3.9403

                     25                     26                     27
                      A                      A                      A
 Frequencies --    403.5334               428.8032               435.5062
 Red. masses --      2.4261                 3.3741                 2.7333
 Frc consts  --      0.2328                 0.3655                 0.3054
 IR Inten    --      1.2613                 1.5383                 2.1384

                     28                     29                     30
                      A                      A                      A
 Frequencies --    444.4378               494.1619               507.3156
 Red. masses --      2.7894                 3.6290                 2.6058
 Frc consts  --      0.3246                 0.5221                 0.3951
 IR Inten    --      2.7445                 0.9610                 7.7144

                     31                     32                     33
                      A                      A                      A
 Frequencies --    542.9935               580.7878               604.7865
 Red. masses --      2.6701                 2.0499                 1.8560
 Frc consts  --      0.4638                 0.4074                 0.4000
 IR Inten    --      3.9632                27.7314                59.9589

                     34                     35                     36
                      A                      A                      A
 Frequencies --    634.5764               656.8292               709.5529
 Red. masses --      2.7517                 2.0970                 3.2867
 Frc consts  --      0.6529                 0.5330                 0.9749
 IR Inten    --      6.9662                81.8238                15.9436

                     37                     38                     39
                      A                      A                      A
 Frequencies --    743.0094               755.4996               799.4039
 Red. masses --      3.9786                 4.5421                 5.8278
 Frc consts  --      1.2941                 1.5275                 2.1943
 IR Inten    --     35.4313                15.0516                 6.5406

                     40                     41                     42
                      A                      A                      A
 Frequencies --    822.8706               852.3338               875.9237
 Red. masses --      2.2500                 3.8216                 2.4771
 Frc consts  --      0.8976                 1.6358                 1.1198
 IR Inten    --      7.5967                 8.1830                 3.6875

                     43                     44                     45
                      A                      A                      A
 Frequencies --    897.7929               919.8839               931.8311
 Red. masses --      2.7269                 1.7009                 2.2204
 Frc consts  --      1.2950                 0.8480                 1.1359
 IR Inten    --      5.1598                 5.3083                 1.0857

                     46                     47                     48
                      A                      A                      A
 Frequencies --    935.4363               942.6149               946.0705
 Red. masses --      1.7282                 1.3914                 1.6616
 Frc consts  --      0.8910                 0.7284                 0.8762
 IR Inten    --      0.2347                33.0894                 3.6988

                     49                     50                     51
                      A                      A                      A
 Frequencies --    965.6729               980.0977               983.1842
 Red. masses --      2.0642                 2.0530                 1.2232
 Frc consts  --      1.1342                 1.1619                 0.6967
 IR Inten    --     17.3195                 9.1596                 1.1941

                     52                     53                     54
                      A                      A                      A
 Frequencies --    989.0522              1022.9639              1044.2236
 Red. masses --      1.3547                 1.8485                 1.1464
 Frc consts  --      0.7808                 1.1397                 0.7365
 IR Inten    --      0.8318                 1.6655                13.7171

                     55                     56                     57
                      A                      A                      A
 Frequencies --   1060.8929              1072.8959              1096.9728
 Red. masses --      1.4916                 1.3878                 2.0441
 Frc consts  --      0.9891                 0.9412                 1.4493
 IR Inten    --      7.2375                 1.4744                 6.8286

                     58                     59                     60
                      A                      A                      A
 Frequencies --   1119.3186              1137.4808              1162.4200
 Red. masses --      2.2826                 2.2010                 2.7789
 Frc consts  --      1.6850                 1.6779                 2.2123
 IR Inten    --     30.8035                34.4042                44.4862

                     61                     62                     63
                      A                      A                      A
 Frequencies --   1169.7956              1190.4667              1208.2458
 Red. masses --      2.2659                 2.3163                 2.9390
 Frc consts  --      1.8269                 1.9341                 2.5279
 IR Inten    --     22.5300                80.5093                25.8699

                     64                     65                     66
                      A                      A                      A
 Frequencies --   1209.3131              1221.4335              1252.8125
 Red. masses --      2.6993                 1.5020                 2.1509
 Frc consts  --      2.3258                 1.3202                 1.9891
 IR Inten    --      6.3916                20.7609               155.9344

                     67                     68                     69
                      A                      A                      A
 Frequencies --   1265.1227              1269.4855              1290.3660
 Red. masses --      1.8520                 2.1054                 2.1688
 Frc consts  --      1.7464                 1.9991                 2.1277
 IR Inten    --     37.9416                20.9897                44.4053

                     70                     71                     72
                      A                      A                      A
 Frequencies --   1314.1928              1327.3223              1331.0460
 Red. masses --      1.8025                 1.3053                 1.3899
 Frc consts  --      1.8341                 1.3549                 1.4508
 IR Inten    --     73.4825                 3.0086                 0.4523

                     73                     74                     75
                      A                      A                      A
 Frequencies --   1337.4590              1349.5463              1376.3040
 Red. masses --      1.5057                 1.3908                 1.4284
 Frc consts  --      1.5869                 1.4924                 1.5941
 IR Inten    --     12.3025                39.4046                46.4049

                     76                     77                     78
                      A                      A                      A
 Frequencies --   1381.3217              1392.4664              1402.5628
 Red. masses --      1.6463                 1.5898                 1.8128
 Frc consts  --      1.8507                 1.8162                 2.1011
 IR Inten    --    134.7810                47.1392                64.5446

                     79                     80                     81
                      A                      A                      A
 Frequencies --   1408.8646              1417.0901              1419.3230
 Red. masses --      1.4533                 1.4233                 1.4250
 Frc consts  --      1.6996                 1.6840                 1.6913
 IR Inten    --     40.8344                61.3232               105.9394

                     82                     83                     84
                      A                      A                      A
 Frequencies --   1424.1867              1446.2462              1453.2227
 Red. masses --      1.2565                 1.2644                 1.2278
 Frc consts  --      1.5015                 1.5582                 1.5277
 IR Inten    --     16.3398                12.4787                25.4991

                     85                     86                     87
                      A                      A                      A
 Frequencies --   1476.1186              1506.8027              1509.7758
 Red. masses --      1.1970                 1.0871                 1.0494
 Frc consts  --      1.5366                 1.4542                 1.4094
 IR Inten    --      4.8362                 4.8300                 1.7426

                     88                     89                     90
                      A                      A                      A
 Frequencies --   1522.5978              1526.6081              1527.4728
 Red. masses --      1.0846                 1.0523                 1.0541
 Frc consts  --      1.4814                 1.4449                 1.4491
 IR Inten    --      1.6986                 6.2256                 1.0983

                     91                     92                     93
                      A                      A                      A
 Frequencies --   1531.5399              1535.8320              1536.0322
 Red. masses --      1.0580                 1.0524                 1.0534
 Frc consts  --      1.4621                 1.4626                 1.4644
 IR Inten    --      0.0264                 3.8478                13.8917

                     94                     95                     96
                      A                      A                      A
 Frequencies --   1544.1359              1554.6170              1563.4273
 Red. masses --      1.0535                 1.0936                 1.0550
 Frc consts  --      1.4800                 1.5572                 1.5193
 IR Inten    --      1.9167                 3.4873                 6.1972

                     97                     98                     99
                      A                      A                      A
 Frequencies --   1729.1619              1745.6808              1843.6125
 Red. masses --      4.4626                10.6987                 9.6450
 Frc consts  --      7.8615                19.2092                19.3149
 IR Inten    --      6.6373               268.5552               214.0509

                    100                    101                    102
                      A                      A                      A
 Frequencies --   3036.6629              3039.6543              3054.8313
 Red. masses --      1.0835                 1.0745                 1.0353
 Frc consts  --      5.8867                 5.8491                 5.6921
 IR Inten    --      6.3143                64.5078                20.1032

                    103                    104                    105
                      A                      A                      A
 Frequencies --   3058.1865              3060.4853              3070.3117
 Red. masses --      1.0384                 1.0409                 1.0391
 Frc consts  --      5.7218                 5.7445                 5.7715
 IR Inten    --     12.8491                23.8177                35.0372

                    106                    107                    108
                      A                      A                      A
 Frequencies --   3079.2301              3087.2988              3106.5438
 Red. masses --      1.0594                 1.0625                 1.0859
 Frc consts  --      5.9184                 5.9667                 6.1746
 IR Inten    --     26.8871                16.4442                20.5738

                    109                    110                    111
                      A                      A                      A
 Frequencies --   3121.8072              3124.5661              3125.4686
 Red. masses --      1.1044                 1.1021                 1.1030
 Frc consts  --      6.3415                 6.3393                 6.3484
 IR Inten    --      5.3118                 2.6878                29.8802

                    112                    113                    114
                      A                      A                      A
 Frequencies --   3127.1342              3130.3889              3135.4799
 Red. masses --      1.1034                 1.0981                 1.0959
 Frc consts  --      6.3573                 6.3399                 6.3480
 IR Inten    --     51.7599                35.1224                50.8230

                    115                    116                    117
                      A                      A                      A
 Frequencies --   3137.7175              3145.6516              3153.9839
 Red. masses --      1.0982                 1.1007                 1.0598
 Frc consts  --      6.3703                 6.4174                 6.2115
 IR Inten    --      3.6520                21.9340                13.8913

                    118                    119                    120
                      A                      A                      A
 Frequencies --   3155.4850              3165.4084              3175.1332
 Red. masses --      1.0931                 1.0928                 1.1013
 Frc consts  --      6.4126                 6.4515                 6.5417
 IR Inten    --      6.2161                 4.4802                 2.4504

                    121                    122                    123
                      A                      A                      A
 Frequencies --   3177.1157              3237.4937              3691.5102
 Red. masses --      1.1007                 1.1152                 1.0642
 Frc consts  --      6.5459                 6.8868                 8.5445
 IR Inten    --     10.7363                16.2262                51.4529

 - Thermochemistry -
 -------------------
 Temperature   298.150 Kelvin.  Pressure   1.00000 Atm.
 Atom     1 has atomic number  6 and mass  12.00000

 Molecular mass:   268.17869 amu.
 Principal axes and moments of inertia in atomic units:
                           1         2         3
     Eigenvalues --  3001.711956545.097606752.61365
           X            0.99990   0.01368  -0.00335
           Y           -0.01314   0.99174   0.12755
           Z            0.00507  -0.12750   0.99183
 This molecule is an asymmetric top.
 Rotational symmetry number  1.
 Warning -- assumption of classical behavior for rotation
           may cause significant error
 Rotational temperatures (Kelvin)      0.02885     0.01323     0.01283
 Rotational constants (GHZ):           0.60124     0.27574     0.26727
 Zero-point vibrational energy     989265.9 (Joules/Mol)
                                  236.44023 (Kcal/Mol)
 Warning -- explicit consideration of  33 degrees of freedom as
           vibrations may cause significant error
 Vibrational temperatures:     33.10    74.06    87.85    94.91   128.17
          (Kelvin)            141.01   158.22   171.13   218.25   257.31
                              266.61   285.04   324.41   352.53   363.58
                              397.80   403.25   424.71   449.51   469.53
                              478.74   493.58   521.70   573.07   580.59
                              616.95   626.60   639.45   710.99   729.91
                              781.25   835.62   870.15   913.01   945.03
                             1020.89  1069.02  1087.00  1150.16  1183.93
                             1226.32  1260.26  1291.72  1323.51  1340.70
                             1345.88  1356.21  1361.18  1389.39  1410.14
                             1414.58  1423.03  1471.82  1502.40  1526.39
                             1543.66  1578.30  1610.45  1636.58  1672.46
                             1683.07  1712.82  1738.40  1739.93  1757.37
                             1802.52  1820.23  1826.51  1856.55  1890.83
                             1909.72  1915.08  1924.31  1941.70  1980.19
                             1987.41  2003.45  2017.98  2027.04  2038.88
                             2042.09  2049.09  2080.83  2090.86  2123.81
                             2167.95  2172.23  2190.68  2196.45  2197.69
                             2203.54  2209.72  2210.01  2221.67  2236.75
                             2249.42  2487.88  2511.65  2652.55  4369.08
                             4373.38  4395.22  4400.05  4403.36  4417.49
                             4430.33  4441.93  4469.62  4491.58  4495.55
                             4496.85  4499.25  4503.93  4511.26  4514.48
                             4525.89  4537.88  4540.04  4554.32  4568.31
                             4571.16  4658.03  5311.26

 Zero-point correction=                           0.376791 (Hartree/Particle)
 Thermal correction to Energy=                    0.397198
 Thermal correction to Enthalpy=                  0.398142
 Thermal correction to Gibbs Free Energy=         0.328415
 Sum of electronic and zero-point Energies=           -882.831093
 Sum of electronic and thermal Energies=              -882.810687
 Sum of electronic and thermal Enthalpies=            -882.809743
 Sum of electronic and thermal Free Energies=         -882.879470

                     E (Thermal)             CV                S
                      KCal/Mol        Cal/Mol-Kelvin    Cal/Mol-Kelvin
 Total                  249.245             77.943            146.753
 Electronic               0.000              0.000              0.000
 Translational            0.889              2.981             42.659
 Rotational               0.889              2.981             33.250
 Vibrational            247.468             71.982             70.845
 Vibration     1          0.593              1.985              6.356
 Vibration     2          0.596              1.977              4.760
 Vibration     3          0.597              1.973              4.423
 Vibration     4          0.597              1.971              4.270
 Vibration     5          0.602              1.957              3.680
 Vibration     6          0.603              1.951              3.494
 Vibration     7          0.606              1.941              3.270
 Vibration     8          0.609              1.934              3.117
 Vibration     9          0.619              1.901              2.651
 Vibration    10          0.629              1.868              2.341
 Vibration    11          0.631              1.860              2.274
 Vibration    12          0.637              1.843              2.151
 Vibration    13          0.650              1.802              1.915
 Vibration    14          0.660              1.771              1.766
 Vibration    15          0.664              1.758              1.712
 Vibration    16          0.678              1.717              1.555
 Vibration    17          0.680              1.710              1.532
 Vibration    18          0.689              1.683              1.444
 Vibration    19          0.701              1.650              1.349
 Vibration    20          0.710              1.623              1.278
 Vibration    21          0.715              1.610              1.247
 Vibration    22          0.722              1.589              1.198
 Vibration    23          0.736              1.549              1.111
 Vibration    24          0.765              1.474              0.969
 Vibration    25          0.769              1.463              0.950
 Vibration    26          0.790              1.408              0.863
 Vibration    27          0.796              1.393              0.841
 Vibration    28          0.804              1.373              0.813
 Vibration    29          0.850              1.263              0.673
 Vibration    30          0.863              1.234              0.640
 Vibration    31          0.898              1.155              0.559
 Vibration    32          0.937              1.073              0.484
 Vibration    33          0.963              1.022              0.441

                           ! Non-Optimized Parameters !
 Normal termination of Gaussian 16 at Sat Dec 12 10:59:19 2020.

 ----------------------------------------------------------------------
 # B3LYP/6-311++G(d,p) empiricaldispersion=gd3bj scf=xqc pop=npa geom=c
 heck
 ----------------------------------------------------------------------

 ---------------------------------------
 CID_113735982_JID_9446_Energie_neutraal
 ---------------------------------------
 Structure from the checkpoint file:  "JID_9446.chk"
 Charge =  0 Multiplicity = 1

 SCF Done:  E(RB3LYP) =  -883.464845260     A.U. after   15 cycles
 Normal termination of Gaussian 16 at Sat Dec 12 11:12:01 2020.

 ----------------------------------------------------------------------
 # B3LYP/6-311++G(d,p) empiricaldispersion=gd3bj scf=xqc pop=npa geom=c
 heck
 ----------------------------------------------------------------------

 -------------------------------------
 CID_113735982_JID_9446_Energie_kation
 -------------------------------------
 Structure from the checkpoint file:  "JID_9446.chk"
 Charge =  1 Multiplicity = 2

 SCF Done:  E(UB3LYP) =  -883.168175491     A.U. after   28 cycles
 Normal termination of Gaussian 16 at Sat Dec 12 11:45:30 2020.
 Gaussian 16:  ES64L-G16RevA.03 25-Dec-2016

 ----------------------------------------------------------------------
 # B3LYP/6-311++G(d,p) empiricaldispersion=gd3bj scf=xqc pop=npa geom=c
 heck
 ----------------------------------------------------------------------

 ------------------------------------
 CID_113735982_JID_9446_Energie_anion
 ------------------------------------
 Structure from the checkpoint file:  "JID_9446.chk"
 Charge = -1 Multiplicity = 2

                         Standard orientation:
 ---------------------------------------------------------------------
 Center     Atomic      Atomic             Coordinates (Angstroms)
 Number     Number       Type             X           Y           Z
 ---------------------------------------------------------------------
      1          6           0        4.082301    0.211981    1.294899
      2          6           0        3.087344    0.907324    0.369612
      3          6           0        3.313155    0.678780   -1.131563
      4          6           0        1.983469    1.095407   -1.763481
      5          7           0        0.980503    0.806477   -0.721060
      6          6           0        1.603301    0.490927    0.568086
      7          6           0        1.450347   -0.971222    0.967313
      8          8           0        1.166911   -1.354094    2.079857
      9          8           0        1.728262   -1.817387   -0.054859
     10          6           0       -0.247602    0.282381   -1.111838
     11          8           0       -0.490433    0.032576   -2.288605
     12          7           0       -1.133521    0.044728   -0.051232
     13          6           0       -1.405327    1.173245    0.855151
     14          6           0       -2.583427    2.033607    0.471269
     15          6           0       -3.542423    2.410587    1.316153
     16          6           0       -2.185534   -1.010354   -0.224738
     17          6           0       -3.280865   -0.601842   -1.228067
     18          6           0       -1.509322   -2.310323   -0.695959
     19          6           0       -2.811282   -1.293110    1.151110
     20          1           0        5.087960    0.617977    1.143655
     21          1           0        4.122618   -0.863899    1.092721
     22          1           0        3.815594    0.348123    2.348398
     23          1           0        3.120992    1.988102    0.561953
     24          1           0        4.161441    1.253223   -1.515994
     25          1           0        3.503343   -0.382825   -1.319266
     26          1           0        1.731552    0.539355   -2.666565
     27          1           0        1.970671    2.166573   -2.004141
     28          1           0        1.170987    1.053396    1.398198
     29          1           0        1.603556   -2.719121    0.295271
     30          1           0       -1.512716    0.814388    1.882762
     31          1           0       -0.524479    1.816946    0.831950
     32          1           0       -2.590424    2.385087   -0.560128
     33          1           0       -4.346561    3.075468    1.014012
     34          1           0       -3.556164    2.067662    2.349059
     35          1           0       -2.836581   -0.381001   -2.199573
     36          1           0       -3.998701   -1.422688   -1.342720
     37          1           0       -3.830755    0.274619   -0.877111
     38          1           0       -0.809120   -2.669719    0.064180
     39          1           0       -2.274913   -3.079468   -0.841150
     40          1           0       -0.977054   -2.171445   -1.637328
     41          1           0       -2.036539   -1.527257    1.889244
     42          1           0       -3.411667   -0.455467    1.514887
     43          1           0       -3.474631   -2.159545    1.064902
 ---------------------------------------------------------------------

 SCF Done:  E(UB3LYP) =  -883.453726341     A.U. after   33 cycles
 SCF Done:  E(UB3LYP) =  -883.453726341     a.u. after    1 cycles

 The electronic state is 2-A.
 Alpha  occ. eigenvalues --  -19.07728 -19.02328 -18.99240 -14.24183 -14.23740
 Alpha  occ. eigenvalues --  -10.21152 -10.19968 -10.12927 -10.12851 -10.11995
 Alpha  occ. eigenvalues --  -10.10143 -10.09667 -10.09194 -10.08631 -10.07324
 Alpha  occ. eigenvalues --  -10.07103 -10.06787 -10.06143 -10.06142  -1.01859
 Alpha  occ. eigenvalues --   -0.95663  -0.92943  -0.85575  -0.83537  -0.72175
 Alpha  occ. eigenvalues --   -0.71283  -0.69264  -0.66397  -0.61741  -0.60791
 Alpha  occ. eigenvalues --   -0.59717  -0.58725  -0.54957  -0.54038  -0.49264
 Alpha  occ. eigenvalues --   -0.48644  -0.47737  -0.45672  -0.42496  -0.41727
 Alpha  occ. eigenvalues --   -0.40515  -0.39496  -0.37742  -0.36875  -0.36633
 Alpha  occ. eigenvalues --   -0.35895  -0.35498  -0.34867  -0.34022  -0.33659
 Alpha  occ. eigenvalues --   -0.32889  -0.31914  -0.31157  -0.30947  -0.30490
 Alpha  occ. eigenvalues --   -0.29923  -0.29466  -0.28532  -0.28161  -0.27669
 Alpha  occ. eigenvalues --   -0.27309  -0.26495  -0.25678  -0.24910  -0.24526
 Alpha  occ. eigenvalues --   -0.24474  -0.23479  -0.23205  -0.19693  -0.18873
 Alpha  occ. eigenvalues --   -0.17596  -0.15110  -0.14375   0.04100
 Alpha virt. eigenvalues --    0.05889   0.06092   0.07023   0.07351   0.07589
 Alpha virt. eigenvalues --    0.07765   0.08392   0.08634   0.09590   0.09917
 Alpha virt. eigenvalues --    0.10335   0.10690   0.10850   0.11134   0.11439

  Beta  occ. eigenvalues --  -19.07681 -19.02300 -18.99239 -14.24182 -14.23736
  Beta  occ. eigenvalues --  -10.21129 -10.19968 -10.12925 -10.12840 -10.11980
  Beta  occ. eigenvalues --  -10.10130 -10.09664 -10.09166 -10.08615 -10.07304
  Beta  occ. eigenvalues --  -10.07091 -10.06756 -10.06138 -10.06125  -1.01784
  Beta  occ. eigenvalues --   -0.95660  -0.92878  -0.85561  -0.83525  -0.72152
  Beta  occ. eigenvalues --   -0.71260  -0.69243  -0.66351  -0.61702  -0.60757
  Beta  occ. eigenvalues --   -0.59699  -0.58691  -0.54871  -0.53989  -0.49224
  Beta  occ. eigenvalues --   -0.48612  -0.47653  -0.45636  -0.42469  -0.41688
  Beta  occ. eigenvalues --   -0.40476  -0.39442  -0.37707  -0.36819  -0.36610
  Beta  occ. eigenvalues --   -0.35863  -0.35478  -0.34850  -0.33986  -0.33612
  Beta  occ. eigenvalues --   -0.32861  -0.31873  -0.31140  -0.30901  -0.30449
  Beta  occ. eigenvalues --   -0.29904  -0.29444  -0.28512  -0.28139  -0.27654
  Beta  occ. eigenvalues --   -0.27284  -0.26477  -0.25631  -0.24884  -0.24509
  Beta  occ. eigenvalues --   -0.24432  -0.23409  -0.23134  -0.19639  -0.18859
  Beta  occ. eigenvalues --   -0.17589  -0.15095  -0.14356
  Beta virt. eigenvalues --    0.05977   0.06708   0.06931   0.07166   0.07780
  Beta virt. eigenvalues --    0.07796   0.08324   0.08702   0.09081   0.09707
  Beta virt. eigenvalues --    0.09942   0.10581   0.10952   0.11112   0.11226

 Mulliken charges and spin densities:
               1          2
     1  C    0.806078  -1.442443
     2  C   -1.626461   1.739021
     3  C    0.152122  -0.802369
     4  C    0.273345  -0.289333
     5  N    0.316043   0.022544
     6  C    1.155865  -1.039333
     7  C    0.547663  -1.261700
     8  O   -0.212694   0.107856
     9  O   -0.143583   0.090838
    10  C   -0.915522   0.256584
    11  O   -0.210825  -0.010694
    12  N    0.445681  -0.032196
    13  C    0.576564  -1.312605
    14  C   -0.871386   1.388897
    15  C    0.435401  -0.999277
    16  C   -0.476966   0.614329
    17  C   -0.407454  -0.178983
    18  C    0.011947  -0.465270
    19  C   -0.106443  -0.455732
    20  H   -0.482243   0.660980
    21  H   -0.065305   0.215070
    22  H    0.082342   0.062422
    23  H   -0.751892   0.976468
    24  H   -0.214122   0.397713
    25  H    0.096811   0.073929
    26  H    0.175155   0.010641
    27  H   -0.120565   0.293068
    28  H    0.070216   0.211309
    29  H   -0.113603   0.416067
    30  H    0.106862   0.090451
    31  H   -0.039477   0.197390
    32  H    0.004071   0.196037
    33  H   -0.140756   0.288910
    34  H   -0.039013   0.164539
    35  H    0.142933   0.045041
    36  H    0.125064   0.016828
    37  H    0.118473   0.038982
    38  H   -0.104602   0.253632
    39  H   -0.019802   0.168676
    40  H    0.202162   0.016462
    41  H    0.095994   0.083904
    42  H    0.123273   0.043583
    43  H   -0.001349   0.147766
 Sum of Mulliken charges =  -1.00000   1.00000

 Dipole moment (field-independent basis, Debye):
    X=             -5.1718    Y=             -2.2004    Z=             -1.1640  Tot=              5.7397
 Quadrupole moment (field-independent basis, Debye-Ang):
   XX=           -192.0831   YY=           -169.8655   ZZ=           -158.7460
   XY=             -8.8363   XZ=             -4.0572   YZ=             -0.4506

 Summary of Natural Population Analysis:

                                       Natural Population
                Natural  -----------------------------------------------
    Atom  No    Charge         Core      Valence    Rydberg      Total
 -----------------------------------------------------------------------
      C    1   -0.28769      0.99964     2.28135    0.00670     3.28769
      C    2   -0.10575      0.99959     2.09380    0.01237     3.10575
      C    3   -0.19451      0.99961     2.18636    0.00854     3.19451
      C    4   -0.07976      0.99962     2.06986    0.01028     3.07976
      N    5   -0.27122      0.99965     2.76010    0.01147     3.77122
      C    6   -0.04521      0.99950     2.03071    0.01500     3.04521
      C    7    0.40919      0.99967     1.56386    0.02728     2.59081
      O    8   -0.30182      0.99987     3.29580    0.00616     4.30182
      O    9   -0.34512      0.99987     3.33825    0.00699     4.34512
      C   10    0.42938      0.99962     1.54625    0.02474     2.57062
      O   11   -0.33191      0.99987     3.32766    0.00437     4.33191
      N   12   -0.29219      0.99963     2.77784    0.01472     3.79219
      C   13   -0.10563      0.99956     2.09330    0.01276     3.10563
      C   14   -0.08870      0.99955     2.07898    0.01017     3.08870
      C   15   -0.19213      0.99955     2.18634    0.00624     3.19213
      C   16    0.07222      0.99959     1.91578    0.01242     2.92778
      C   17   -0.29788      0.99960     2.29266    0.00561     3.29788
      C   18   -0.29058      0.99961     2.28356    0.00741     3.29058
      C   19   -0.29420      0.99961     2.28767    0.00692     3.29420
      H   20    0.10553      0.00000     0.39327    0.00120     0.39447
      H   21    0.09909      0.00000     0.39969    0.00122     0.40091
      H   22    0.10448      0.00000     0.39455    0.00097     0.39552
      H   23    0.10539      0.00000     0.39034    0.00427     0.39461
      H   24    0.10580      0.00000     0.39299    0.00120     0.39420
      H   25    0.10204      0.00000     0.39622    0.00174     0.39796
      H   26    0.11086      0.00000     0.38807    0.00107     0.38914
      H   27    0.09249      0.00000     0.40624    0.00127     0.40751
      H   28    0.11060      0.00000     0.38721    0.00219     0.38940
      H   29    0.24294      0.00000     0.25157    0.00549     0.25706
      H   30    0.10055      0.00000     0.39775    0.00170     0.39945
      H   31    0.11377      0.00000     0.38432    0.00191     0.38623
      H   32    0.09749      0.00000     0.40145    0.00106     0.40251
      H   33    0.09499      0.00000     0.40403    0.00098     0.40501
      H   34    0.09121      0.00000     0.40761    0.00117     0.40879
      H   35    0.11577      0.00000     0.38337    0.00086     0.38423
      H   36    0.09534      0.00000     0.40395    0.00071     0.40466
      H   37    0.10204      0.00000     0.39711    0.00086     0.39796
      H   38    0.09982      0.00000     0.39871    0.00147     0.40018
      H   39    0.09709      0.00000     0.40220    0.00071     0.40291
      H   40    0.11436      0.00000     0.38471    0.00093     0.38564
      H   41    0.10796      0.00000     0.39108    0.00096     0.39204
      H   42    0.10228      0.00000     0.39680    0.00092     0.39772
      H   43    0.10160      0.00000     0.39773    0.00067     0.39840
 =======================================================================
   * Total *   -0.00000     18.99322    53.76108    0.24570    73.00000

 Normal termination of Gaussian 16 at Sat Dec 12 12:25:44 2020.
