 Gaussian 16, Revision A.03,

 -----------------------------------------------------------
 # opt freq B3LYP/6-31G(d) empiricaldispersion=gd3bj scf=xqc
 -----------------------------------------------------------

 -------------------------------
 CID_141879094_JID_3304_neutraal
 -------------------------------
 Symbolic Z-matrix:
 Charge =  0 Multiplicity = 1

 SCF Done:  E(RB3LYP) =  -539.739159426     A.U. after   14 cycles
 SCF Done:  E(RB3LYP) =  -539.742263061     A.U. after   12 cycles
 SCF Done:  E(RB3LYP) =  -539.743184400     A.U. after   12 cycles
 SCF Done:  E(RB3LYP) =  -539.743787368     A.U. after   12 cycles
 SCF Done:  E(RB3LYP) =  -539.744039297     A.U. after   12 cycles
 SCF Done:  E(RB3LYP) =  -539.744419529     A.U. after   12 cycles
 SCF Done:  E(RB3LYP) =  -539.744602794     A.U. after   11 cycles
 SCF Done:  E(RB3LYP) =  -539.744868051     A.U. after   11 cycles
 SCF Done:  E(RB3LYP) =  -539.745240399     A.U. after   11 cycles
 SCF Done:  E(RB3LYP) =  -539.745272841     A.U. after   10 cycles
 SCF Done:  E(RB3LYP) =  -539.745369952     A.U. after   10 cycles
 SCF Done:  E(RB3LYP) =  -539.745356257     A.U. after   10 cycles
 SCF Done:  E(RB3LYP) =  -539.745374641     A.U. after   10 cycles
 SCF Done:  E(RB3LYP) =  -539.745375237     A.U. after    8 cycles
 SCF Done:  E(RB3LYP) =  -539.745375359     A.U. after    7 cycles
 Optimization completed.
    -- Stationary point found.
 Normal termination of Gaussian 16 at Wed Dec  9 22:53:29 2020.

 --------------------------------------------------------------------
 #N Geom=AllCheck Guess=TCheck SCRF=Check GenChk RB3LYP/6-31G(d) Freq
 --------------------------------------------------------------------

 Structure from the checkpoint file:  "JID_3304.chk"
 -------------------------------
 CID_141879094_JID_3304_neutraal
 -------------------------------
 Charge =  0 Multiplicity = 1

 SCF Done:  E(RB3LYP) =  -539.745375359     A.U. after    1 cycles

  Exact polarizability: 187.191   4.530 135.631   2.119  -0.410  61.759
 Approx polarizability: 311.561  15.872 219.855   5.018  -0.037  96.235

                      1                      2                      3
                      A                      A                      A
 Frequencies --     88.1892               103.7578               114.5127
 Red. masses --      2.0302                 2.3689                 1.9777
 Frc consts  --      0.0093                 0.0150                 0.0153
 IR Inten    --      0.8017                 0.6245                 0.1211

                      4                      5                      6
                      A                      A                      A
 Frequencies --    162.3770               242.1786               248.9942
 Red. masses --      2.9397                 2.5816                 3.6734
 Frc consts  --      0.0457                 0.0892                 0.1342
 IR Inten    --      0.2138                 0.2199                 1.0064

                      7                      8                      9
                      A                      A                      A
 Frequencies --    306.4366               314.8609               361.3642
 Red. masses --      1.8650                 2.3950                 2.9304
 Frc consts  --      0.1032                 0.1399                 0.2255
 IR Inten    --     62.9462                21.5218                 9.9943

                     10                     11                     12
                      A                      A                      A
 Frequencies --    396.6848               417.4305               441.2679
 Red. masses --      2.2019                 5.1993                 3.7012
 Frc consts  --      0.2041                 0.5338                 0.4246
 IR Inten    --     21.6912                 1.0546                 2.2129

                     13                     14                     15
                      A                      A                      A
 Frequencies --    454.5341               474.5939               506.0765
 Red. masses --      3.5068                 5.0466                 3.6213
 Frc consts  --      0.4269                 0.6697                 0.5464
 IR Inten    --      1.4609                 4.0916                 3.2246

                     16                     17                     18
                      A                      A                      A
 Frequencies --    579.3335               619.7835               624.2690
 Red. masses --      3.6319                 3.0294                 3.4520
 Frc consts  --      0.7182                 0.6856                 0.7926
 IR Inten    --      2.7303                 1.3299                 2.5953

                     19                     20                     21
                      A                      A                      A
 Frequencies --    674.3281               699.5158               711.3112
 Red. masses --      4.1431                 2.1023                 2.0892
 Frc consts  --      1.1100                 0.6061                 0.6228
 IR Inten    --     14.9519                12.6102                 8.6011

                     22                     23                     24
                      A                      A                      A
 Frequencies --    784.8103               790.4544               818.5027
 Red. masses --      2.4348                 2.3718                 2.8697
 Frc consts  --      0.8836                 0.8731                 1.1327
 IR Inten    --      6.7664                 9.6131                18.2624

                     25                     26                     27
                      A                      A                      A
 Frequencies --    849.7467               894.9292               937.1811
 Red. masses --      1.8247                 2.6481                 2.5860
 Frc consts  --      0.7763                 1.2496                 1.3382
 IR Inten    --     22.7675                 3.7716                 4.0394

                     28                     29                     30
                      A                      A                      A
 Frequencies --    952.9830               976.5397               988.7691
 Red. masses --      1.3232                 1.3417                 1.4256
 Frc consts  --      0.7080                 0.7539                 0.8212
 IR Inten    --      0.8420                 0.8200                 0.9704

                     31                     32                     33
                      A                      A                      A
 Frequencies --    994.4796              1042.5342              1045.1810
 Red. masses --      2.3822                 2.2539                 2.1331
 Frc consts  --      1.3881                 1.4433                 1.3729
 IR Inten    --      0.1472                 6.8090                 1.7683

                     34                     35                     36
                      A                      A                      A
 Frequencies --   1064.7815              1091.8383              1185.6523
 Red. masses --      1.4789                 1.9238                 1.4364
 Frc consts  --      0.9879                 1.3513                 1.1897
 IR Inten    --      1.7238                12.6945                53.5565

                     37                     38                     39
                      A                      A                      A
 Frequencies --   1193.7682              1224.0944              1237.0199
 Red. masses --      1.4260                 1.6120                 1.3632
 Frc consts  --      1.1973                 1.4231                 1.2291
 IR Inten    --     18.0823                95.9279                 0.4527

                     40                     41                     42
                      A                      A                      A
 Frequencies --   1258.8933              1272.2148              1296.6350
 Red. masses --      1.5995                 1.7022                 1.4394
 Frc consts  --      1.4935                 1.6233                 1.4259
 IR Inten    --      9.7930                82.6343                14.8043

                     43                     44                     45
                      A                      A                      A
 Frequencies --   1344.4996              1348.8711              1378.2014
 Red. masses --      1.9839                 1.6090                 4.6159
 Frc consts  --      2.1130                 1.7248                 5.1657
 IR Inten    --      5.5972                 0.1370                56.2596

                     46                     47                     48
                      A                      A                      A
 Frequencies --   1419.8472              1441.3283              1447.8863
 Red. masses --      1.8205                 1.2534                 1.5104
 Frc consts  --      2.1623                 1.5341                 1.8655
 IR Inten    --      3.4434                 0.7865                 0.9250

                     49                     50                     51
                      A                      A                      A
 Frequencies --   1470.6459              1510.9095              1511.1817
 Red. masses --      2.9214                 1.4645                 1.2766
 Frc consts  --      3.7227                 1.9698                 1.7177
 IR Inten    --      4.5393                38.7692                20.2425

                     52                     53                     54
                      A                      A                      A
 Frequencies --   1530.5822              1544.6473              1629.3872
 Red. masses --      1.5271                 1.0678                 5.6949
 Frc consts  --      2.1079                 1.5011                 8.9082
 IR Inten    --     35.8299                16.8555                 6.7759

                     55                     56                     57
                      A                      A                      A
 Frequencies --   1655.0560              1706.7182              1711.0010
 Red. masses --      5.8889                 6.6905                 6.6379
 Frc consts  --      9.5041                11.4824                11.4493
 IR Inten    --     88.6753                 1.3056                 4.0694

                     58                     59                     60
                      A                      A                      A
 Frequencies --   3017.2903              3022.1668              3066.3791
 Red. masses --      1.0700                 1.0439                 1.1005
 Frc consts  --      5.7395                 5.6177                 6.0966
 IR Inten    --     31.9568                38.6699                25.3273

                     61                     62                     63
                      A                      A                      A
 Frequencies --   3109.3185              3145.4686              3150.6891
 Red. masses --      1.0924                 1.0922                 1.0854
 Frc consts  --      6.2227                 6.3667                 6.3483
 IR Inten    --     27.3109                 6.6675                 8.1820

                     64                     65                     66
                      A                      A                      A
 Frequencies --   3161.5487              3181.9529              3184.5793
 Red. masses --      1.0848                 1.0945                 1.0936
 Frc consts  --      6.3884                 6.5289                 6.5345
 IR Inten    --      2.9597                34.4549                30.1461

                     67                     68                     69
                      A                      A                      A
 Frequencies --   3186.5301              3218.9734              3772.3464
 Red. masses --      1.0906                 1.0937                 1.0651
 Frc consts  --      6.5244                 6.6772                 8.9298
 IR Inten    --     26.4273                10.7405                46.4592

 - Thermochemistry -
 -------------------
 Temperature   298.150 Kelvin.  Pressure   1.00000 Atm.
 Atom     1 has atomic number  6 and mass  12.00000

 Molecular mass:   172.08882 amu.
 Principal axes and moments of inertia in atomic units:
                           1         2         3
     Eigenvalues --  1150.346202864.803193860.29436
           X            0.99987  -0.01547   0.00365
           Y            0.01547   0.99988   0.00043
           Z           -0.00365  -0.00038   0.99999
 This molecule is an asymmetric top.
 Rotational symmetry number  1.
 Warning -- assumption of classical behavior for rotation
           may cause significant error
 Rotational temperatures (Kelvin)      0.07529     0.03023     0.02244
 Rotational constants (GHZ):           1.56887     0.62997     0.46751
 Zero-point vibrational energy     546160.0 (Joules/Mol)
                                  130.53536 (Kcal/Mol)
 Warning -- explicit consideration of  17 degrees of freedom as
           vibrations may cause significant error
 Vibrational temperatures:    126.88   149.28   164.76   233.62   348.44
          (Kelvin)            358.25   440.89   453.01   519.92   570.74
                              600.59   634.89   653.97   682.83   728.13
                              833.53   891.73   898.18   970.21  1006.45
                             1023.42  1129.17  1137.29  1177.64  1222.60
                             1287.60  1348.39  1371.13  1405.02  1422.62
                             1430.83  1499.97  1503.78  1531.98  1570.91
                             1705.89  1717.57  1761.20  1779.80  1811.27
                             1830.43  1865.57  1934.44  1940.72  1982.92
                             2042.84  2073.75  2083.19  2115.93  2173.86
                             2174.25  2202.17  2222.40  2344.32  2381.26
                             2455.59  2461.75  4341.21  4348.22  4411.84
                             4473.62  4525.63  4533.14  4548.76  4578.12
                             4581.90  4584.71  4631.38  5427.57

 Zero-point correction=                           0.208021 (Hartree/Particle)
 Thermal correction to Energy=                    0.219091
 Thermal correction to Enthalpy=                  0.220035
 Thermal correction to Gibbs Free Energy=         0.171708
 Sum of electronic and zero-point Energies=           -539.537354
 Sum of electronic and thermal Energies=              -539.526284
 Sum of electronic and thermal Enthalpies=            -539.525340
 Sum of electronic and thermal Free Energies=         -539.573667

                     E (Thermal)             CV                S
                      KCal/Mol        Cal/Mol-Kelvin    Cal/Mol-Kelvin
 Total                  137.482             44.647            101.713
 Electronic               0.000              0.000              0.000
 Translational            0.889              2.981             41.336
 Rotational               0.889              2.981             30.921
 Vibrational            135.704             38.685             29.456
 Vibration     1          0.601              1.957              3.700
 Vibration     2          0.605              1.946              3.382
 Vibration     3          0.607              1.937              3.191
 Vibration     4          0.622              1.889              2.522
 Vibration     5          0.658              1.776              1.787
 Vibration     6          0.662              1.764              1.738
 Vibration     7          0.697              1.661              1.382
 Vibration     8          0.702              1.645              1.337
 Vibration     9          0.736              1.552              1.116
 Vibration    10          0.763              1.477              0.975
 Vibration    11          0.780              1.432              0.901
 Vibration    12          0.801              1.380              0.823
 Vibration    13          0.813              1.351              0.782
 Vibration    14          0.831              1.306              0.725
 Vibration    15          0.861              1.237              0.643
 Vibration    16          0.936              1.076              0.487
 Vibration    17          0.980              0.990              0.417

 Optimization completed.
    -- Stationary point found.
 Normal termination of Gaussian 16 at Wed Dec  9 22:59:39 2020.

 ----------------------------------------------------------------------
 # B3LYP/6-311++G(d,p) empiricaldispersion=gd3bj scf=xqc pop=npa geom=c
 heck
 ----------------------------------------------------------------------

 ---------------------------------------
 CID_141879094_JID_3304_Energie_neutraal
 ---------------------------------------
 Structure from the checkpoint file:  "JID_3304.chk"
 Charge =  0 Multiplicity = 1

 SCF Done:  E(RB3LYP) =  -539.894455860     A.U. after   15 cycles
 Normal termination of Gaussian 16 at Wed Dec  9 23:02:13 2020.

 ----------------------------------------------------------------------
 # B3LYP/6-311++G(d,p) empiricaldispersion=gd3bj scf=xqc pop=npa geom=c
 heck
 ----------------------------------------------------------------------

 -------------------------------------
 CID_141879094_JID_3304_Energie_kation
 -------------------------------------
 Structure from the checkpoint file:  "JID_3304.chk"
 Charge =  1 Multiplicity = 2

 SCF Done:  E(UB3LYP) =  -539.617226961     A.U. after   24 cycles
 Normal termination of Gaussian 16 at Wed Dec  9 23:08:28 2020.
 Gaussian 16:  ES64L-G16RevA.03 25-Dec-2016

 ----------------------------------------------------------------------
 # B3LYP/6-311++G(d,p) empiricaldispersion=gd3bj scf=xqc pop=npa geom=c
 heck
 ----------------------------------------------------------------------

 ------------------------------------
 CID_141879094_JID_3304_Energie_anion
 ------------------------------------
 Structure from the checkpoint file:  "JID_3304.chk"
 Charge = -1 Multiplicity = 2

                         Standard orientation:
 ---------------------------------------------------------------------
 Center     Atomic      Atomic             Coordinates (Angstroms)
 Number     Number       Type             X           Y           Z
 ---------------------------------------------------------------------
      1          6           0       -1.738025    2.135570    0.013354
      2          6           0       -1.280928    0.694371   -0.037185
      3          6           0       -2.228926   -0.326087    0.089597
      4          6           0       -1.845506   -1.672116    0.082128
      5          6           0       -0.509893   -1.993477   -0.053881
      6          6           0        0.489357   -1.006725   -0.171759
      7          6           0        0.089558    0.359551   -0.190802
      8          6           0        1.038286    1.438666   -0.497269
      9          6           0        2.322175    1.507034   -0.111937
     10          6           0        2.954995    0.471203    0.781734
     11          6           0        2.986350   -0.845782    0.045690
     12          6           0        1.865571   -1.473981   -0.345317
     13          8           0       -3.569092   -0.081354    0.229001
     14          1           0       -2.116598    2.495680   -0.954192
     15          1           0       -0.925664    2.799264    0.314377
     16          1           0       -2.536177    2.277675    0.754630
     17          1           0       -2.610918   -2.434923    0.178508
     18          1           0       -0.211194   -3.038435   -0.066869
     19          1           0        0.655008    2.241848   -1.122940
     20          1           0        2.941354    2.323394   -0.478009
     21          1           0        3.960867    0.775782    1.083210
     22          1           0        2.356552    0.363173    1.698512
     23          1           0        3.952403   -1.294359   -0.174578
     24          1           0        1.963193   -2.454116   -0.810577
     25          1           0       -3.734169    0.866479    0.119806
 ---------------------------------------------------------------------

 SCF Done:  E(UB3LYP) =  -539.883321281     A.U. after   33 cycles
 SCF Done:  E(UB3LYP) =  -539.883321281     a.u. after    1 cycles

 The electronic state is 2-A.
 Alpha  occ. eigenvalues --  -19.03834 -10.11584 -10.06601 -10.06325 -10.06237
 Alpha  occ. eigenvalues --  -10.06143 -10.06107 -10.05944 -10.05866 -10.05640
 Alpha  occ. eigenvalues --  -10.05184 -10.05065 -10.04840  -0.94890  -0.75141
 Alpha  occ. eigenvalues --   -0.70477  -0.67646  -0.64019  -0.63384  -0.57779
 Alpha  occ. eigenvalues --   -0.55610  -0.51505  -0.48999  -0.44184  -0.42736
 Alpha  occ. eigenvalues --   -0.40808  -0.38937  -0.35723  -0.34897  -0.33108
 Alpha  occ. eigenvalues --   -0.32467  -0.31594  -0.30212  -0.28533  -0.28242
 Alpha  occ. eigenvalues --   -0.27601  -0.27488  -0.25836  -0.24777  -0.23550
 Alpha  occ. eigenvalues --   -0.22474  -0.21550  -0.16600  -0.15732  -0.11518
 Alpha  occ. eigenvalues --   -0.09838   0.04751
 Alpha virt. eigenvalues --    0.06741   0.07459   0.08211   0.08724   0.09122
 Alpha virt. eigenvalues --    0.09513   0.10152   0.10892   0.11394   0.11996
 Alpha virt. eigenvalues --    0.12132   0.13420   0.13843   0.14468   0.14943

  Beta  occ. eigenvalues --  -19.03798 -10.11607 -10.06533 -10.06305 -10.06236
  Beta  occ. eigenvalues --  -10.06070 -10.06063 -10.05947 -10.05857 -10.05579
  Beta  occ. eigenvalues --  -10.05024 -10.04963 -10.04829  -0.94814  -0.75015
  Beta  occ. eigenvalues --   -0.70345  -0.67507  -0.63859  -0.63255  -0.57662
  Beta  occ. eigenvalues --   -0.55542  -0.51324  -0.48874  -0.44065  -0.42644
  Beta  occ. eigenvalues --   -0.40687  -0.38855  -0.35632  -0.34819  -0.33013
  Beta  occ. eigenvalues --   -0.32318  -0.31474  -0.30137  -0.28457  -0.28155
  Beta  occ. eigenvalues --   -0.27514  -0.27392  -0.25747  -0.24697  -0.23463
  Beta  occ. eigenvalues --   -0.22356  -0.21451  -0.16251  -0.15510  -0.10937
  Beta  occ. eigenvalues --   -0.09559
  Beta virt. eigenvalues --    0.07175   0.07956   0.08341   0.08360   0.08982
  Beta virt. eigenvalues --    0.09518   0.09731   0.10472   0.11411   0.11713
  Beta virt. eigenvalues --    0.12174   0.12302   0.13717   0.14182   0.14788

 Mulliken charges and spin densities:
               1          2
     1  C    3.353102  -4.070966
     2  C   -2.445405   3.414055
     3  C   -0.028990  -0.925157
     4  C    0.640698  -0.636731
     5  C    0.164643  -0.419075
     6  C    0.260356   0.134814
     7  C   -0.396753   1.343401
     8  C   -0.165964  -0.677143
     9  C   -0.156382   0.334791
    10  C    0.318076  -1.009043
    11  C    0.180585  -0.120464
    12  C   -0.982207   0.187127
    13  O   -0.256221   0.022889
    14  H   -0.148023   0.329388
    15  H   -0.163047   0.331085
    16  H   -0.503227   0.620237
    17  H    0.114466   0.040431
    18  H    0.111881   0.004319
    19  H    0.115000   0.065478
    20  H   -0.377628   0.539362
    21  H   -0.081038   0.203364
    22  H    0.052975   0.082554
    23  H   -0.399973   0.566910
    24  H    0.133519   0.012157
    25  H   -0.340445   0.626215
 Sum of Mulliken charges =  -1.00000   1.00000

 Dipole moment (field-independent basis, Debye):
    X=              1.5684    Y=             -4.0026    Z=             -0.5392  Tot=              4.3326
 Quadrupole moment (field-independent basis, Debye-Ang):
   XX=           -148.6736   YY=           -110.7830   ZZ=            -98.1007
   XY=              8.5906   XZ=              3.7455   YZ=              0.2248

 Summary of Natural Population Analysis:

                                       Natural Population
                Natural  -----------------------------------------------
    Atom  No    Charge         Core      Valence    Rydberg      Total
 -----------------------------------------------------------------------
      C    1   -0.30610      0.99964     2.29939    0.00707     3.30610
      C    2   -0.03134      0.99946     2.02237    0.00952     3.03134
      C    3    0.15612      0.99933     1.83068    0.01387     2.84388
      C    4   -0.10777      0.99952     2.09930    0.00896     3.10777
      C    5   -0.08746      0.99954     2.08020    0.00771     3.08746
      C    6   -0.04232      0.99947     2.03428    0.00856     3.04232
      C    7   -0.00926      0.99945     2.00035    0.00947     3.00926
      C    8   -0.11415      0.99951     2.10466    0.00998     3.11415
      C    9   -0.04318      0.99953     2.03411    0.00954     3.04318
      C   10   -0.23428      0.99961     2.22433    0.01034     3.23428
      C   11   -0.07315      0.99954     2.06312    0.01049     3.07315
      C   12   -0.10448      0.99951     2.09491    0.01006     3.10448
      O   13   -0.34615      0.99988     3.33943    0.00684     4.34615
      H   14    0.10333      0.00000     0.39558    0.00108     0.39667
      H   15    0.11437      0.00000     0.38438    0.00125     0.38563
      H   16    0.10304      0.00000     0.39364    0.00332     0.39696
      H   17    0.09985      0.00000     0.39904    0.00111     0.40015
      H   18    0.09312      0.00000     0.40564    0.00124     0.40688
      H   19    0.10050      0.00000     0.39801    0.00150     0.39950
      H   20    0.09219      0.00000     0.40671    0.00110     0.40781
      H   21    0.10267      0.00000     0.39605    0.00128     0.39733
      H   22    0.10562      0.00000     0.39310    0.00128     0.39438
      H   23    0.09391      0.00000     0.40488    0.00121     0.40609
      H   24    0.09406      0.00000     0.40451    0.00143     0.40594
      H   25    0.24085      0.00000     0.25368    0.00547     0.25915
 =======================================================================
   * Total *   -0.00000     12.99399    32.86236    0.14366    46.00000

 Normal termination of Gaussian 16 at Wed Dec  9 23:17:15 2020.
