 Gaussian 16, Revision A.03,

 -----------------------------------------------------------
 # opt freq B3LYP/6-31G(d) empiricaldispersion=gd3bj scf=xqc
 -----------------------------------------------------------

 ------------------------------
 CID_60913769_JID_7260_neutraal
 ------------------------------
 Symbolic Z-matrix:
 Charge =  0 Multiplicity = 1

 SCF Done:  E(RB3LYP) =  -711.639646264     A.U. after   14 cycles
 SCF Done:  E(RB3LYP) =  -711.642727336     A.U. after   12 cycles
 SCF Done:  E(RB3LYP) =  -711.642999370     A.U. after   14 cycles
 SCF Done:  E(RB3LYP) =  -711.644077066     A.U. after   12 cycles
 SCF Done:  E(RB3LYP) =  -711.644573882     A.U. after   12 cycles
 SCF Done:  E(RB3LYP) =  -711.645529976     A.U. after   12 cycles
 SCF Done:  E(RB3LYP) =  -711.645601570     A.U. after   14 cycles
 SCF Done:  E(RB3LYP) =  -711.646238595     A.U. after   13 cycles
 SCF Done:  E(RB3LYP) =  -711.646141081     A.U. after   11 cycles
 SCF Done:  E(RB3LYP) =  -711.646557182     A.U. after   11 cycles
 SCF Done:  E(RB3LYP) =  -711.646657513     A.U. after   10 cycles
 SCF Done:  E(RB3LYP) =  -711.646655983     A.U. after    9 cycles
 SCF Done:  E(RB3LYP) =  -711.646657890     A.U. after    9 cycles
 SCF Done:  E(RB3LYP) =  -711.646657661     A.U. after    7 cycles
 SCF Done:  E(RB3LYP) =  -711.646657908     A.U. after    7 cycles
 Optimization completed.
    -- Stationary point found.
 Normal termination of Gaussian 16 at Sun Dec 13 16:16:39 2020.

 --------------------------------------------------------------------
 #N Geom=AllCheck Guess=TCheck SCRF=Check GenChk RB3LYP/6-31G(d) Freq
 --------------------------------------------------------------------

 Structure from the checkpoint file:  "JID_7260.chk"
 ------------------------------
 CID_60913769_JID_7260_neutraal
 ------------------------------
 Charge =  0 Multiplicity = 1

 SCF Done:  E(RB3LYP) =  -711.646657908     A.U. after    1 cycles

  Exact polarizability: 161.884  12.446 174.987  16.421  -2.321 138.149
 Approx polarizability: 206.667  17.418 260.158  32.807  -6.497 234.872

                      1                      2                      3
                      A                      A                      A
 Frequencies --     21.7718                33.0746                46.6438
 Red. masses --      4.4492                 3.1309                 3.2144
 Frc consts  --      0.0012                 0.0020                 0.0041
 IR Inten    --      0.1811                 1.1217                 0.5803

                      4                      5                      6
                      A                      A                      A
 Frequencies --     66.0003                66.2216                86.8010
 Red. masses --      3.8036                 3.8828                 3.1335
 Frc consts  --      0.0098                 0.0100                 0.0139
 IR Inten    --      2.2529                 0.2480                 0.2822

                      7                      8                      9
                      A                      A                      A
 Frequencies --    117.0534               133.1562               155.8198
 Red. masses --      3.1329                 2.5348                 2.3911
 Frc consts  --      0.0253                 0.0265                 0.0342
 IR Inten    --      0.3714                 1.0725                 1.3766

                     10                     11                     12
                      A                      A                      A
 Frequencies --    204.8671               217.0585               246.9168
 Red. masses --      2.6017                 1.9842                 3.3255
 Frc consts  --      0.0643                 0.0551                 0.1195
 IR Inten    --      1.9960                 0.1846                 2.2811

                     13                     14                     15
                      A                      A                      A
 Frequencies --    252.0754               288.6594               312.7691
 Red. masses --      1.6293                 2.0590                 2.2019
 Frc consts  --      0.0610                 0.1011                 0.1269
 IR Inten    --      0.1448                 1.2586                 0.6506

                     16                     17                     18
                      A                      A                      A
 Frequencies --    356.7259               402.2570               417.6220
 Red. masses --      2.0747                 2.7102                 2.9755
 Frc consts  --      0.1556                 0.2584                 0.3058
 IR Inten    --      0.2226                 4.2621                 3.0647

                     19                     20                     21
                      A                      A                      A
 Frequencies --    427.6572               436.6338               492.5377
 Red. masses --      2.4878                 3.0720                 2.0075
 Frc consts  --      0.2681                 0.3451                 0.2869
 IR Inten    --      7.0401                 2.4022                 2.1524

                     22                     23                     24
                      A                      A                      A
 Frequencies --    511.8050               567.6289               611.5019
 Red. masses --      4.2775                 3.8332                 2.7182
 Frc consts  --      0.6602                 0.7277                 0.5989
 IR Inten    --      2.0534                 4.1140                 1.3952

                     25                     26                     27
                      A                      A                      A
 Frequencies --    617.4395               644.9952               732.6991
 Red. masses --      2.7136                 6.7447                 2.0414
 Frc consts  --      0.6095                 1.6532                 0.6457
 IR Inten    --      1.5678                 3.2404                25.9422

                     28                     29                     30
                      A                      A                      A
 Frequencies --    774.4934               793.0632               803.1958
 Red. masses --      1.3888                 4.0463                 1.3797
 Frc consts  --      0.4908                 1.4994                 0.5244
 IR Inten    --      3.2617                 1.1674                24.9665

                     31                     32                     33
                      A                      A                      A
 Frequencies --    805.4585               822.2260               871.4197
 Red. masses --      1.6170                 1.7806                 2.4638
 Frc consts  --      0.6181                 0.7093                 1.1023
 IR Inten    --     38.1440                 2.6669                 2.5907

                     34                     35                     36
                      A                      A                      A
 Frequencies --    894.0723               907.3717               918.2374
 Red. masses --      2.4768                 1.9436                 2.0178
 Frc consts  --      1.1665                 0.9428                 1.0024
 IR Inten    --      4.3439                 2.5558                 2.6426

                     37                     38                     39
                      A                      A                      A
 Frequencies --    930.9950               938.5555               946.7711
 Red. masses --      1.3712                 2.1620                 1.3426
 Frc consts  --      0.7002                 1.1221                 0.7091
 IR Inten    --      7.9448                 7.8823                 0.4569

                     40                     41                     42
                      A                      A                      A
 Frequencies --    970.5598               982.6525               990.5904
 Red. masses --      1.5694                 1.9293                 1.4517
 Frc consts  --      0.8710                 1.0976                 0.8393
 IR Inten    --      0.0653                 0.4514                 4.0071

                     43                     44                     45
                      A                      A                      A
 Frequencies --    992.9762              1016.7621              1036.6335
 Red. masses --      1.3881                 1.6609                 2.1100
 Frc consts  --      0.8064                 1.0117                 1.3359
 IR Inten    --      1.6278                 2.9964                23.4296

                     46                     47                     48
                      A                      A                      A
 Frequencies --   1047.5781              1076.4142              1083.1250
 Red. masses --      3.7176                 2.6401                 2.6407
 Frc consts  --      2.4037                 1.8023                 1.8253
 IR Inten    --      7.7255                 0.7594                 3.0816

                     49                     50                     51
                      A                      A                      A
 Frequencies --   1098.0250              1132.4909              1142.3750
 Red. masses --      2.2997                 1.9425                 1.6274
 Frc consts  --      1.6336                 1.4679                 1.2513
 IR Inten    --     10.2408                 7.8241                 2.7002

                     52                     53                     54
                      A                      A                      A
 Frequencies --   1162.8068              1170.4037              1181.2917
 Red. masses --      1.5908                 1.7387                 1.8923
 Frc consts  --      1.2673                 1.4033                 1.5558
 IR Inten    --     13.2998                10.9127                 3.0459

                     55                     56                     57
                      A                      A                      A
 Frequencies --   1182.6114              1193.4859              1210.6378
 Red. masses --      2.5246                 1.5091                 1.6191
 Frc consts  --      2.0803                 1.2665                 1.3982
 IR Inten    --     54.1603                 0.8353                10.9932

                     58                     59                     60
                      A                      A                      A
 Frequencies --   1231.3584              1248.6522              1255.8695
 Red. masses --      1.8095                 1.5634                 1.4587
 Frc consts  --      1.6165                 1.4361                 1.3555
 IR Inten    --     14.3416                 7.9671                22.4252

                     61                     62                     63
                      A                      A                      A
 Frequencies --   1257.4007              1281.5895              1283.3411
 Red. masses --      1.4818                 1.7210                 1.2070
 Frc consts  --      1.3803                 1.6654                 1.1713
 IR Inten    --      1.1002                17.4157                24.5300

                     64                     65                     66
                      A                      A                      A
 Frequencies --   1315.5109              1318.0541              1322.8964
 Red. masses --      2.7688                 1.5926                 1.2072
 Frc consts  --      2.8231                 1.6301                 1.2448
 IR Inten    --      3.3494                 4.1880                 0.5174

                     67                     68                     69
                      A                      A                      A
 Frequencies --   1329.3972              1352.0443              1371.2139
 Red. masses --      1.4322                 1.4139                 1.3216
 Frc consts  --      1.4913                 1.5228                 1.4641
 IR Inten    --     15.1953                16.5764                 5.3157

                     70                     71                     72
                      A                      A                      A
 Frequencies --   1385.6666              1392.4122              1397.4854
 Red. masses --      1.2372                 1.4068                 1.4585
 Frc consts  --      1.3996                 1.6070                 1.6782
 IR Inten    --      0.7389                47.0606                 9.1023

                     73                     74                     75
                      A                      A                      A
 Frequencies --   1410.8303              1416.7962              1422.8976
 Red. masses --      1.4035                 1.3542                 1.4628
 Frc consts  --      1.6460                 1.6015                 1.7449
 IR Inten    --     10.4695                22.2599                 0.5725

                     76                     77                     78
                      A                      A                      A
 Frequencies --   1438.9039              1447.8862              1474.2580
 Red. masses --      1.4232                 1.3484                 2.3112
 Frc consts  --      1.7361                 1.6655                 2.9596
 IR Inten    --     24.0471                 1.2398                21.5377

                     79                     80                     81
                      A                      A                      A
 Frequencies --   1504.9567              1509.1641              1516.4914
 Red. masses --      1.0981                 1.1000                 1.1582
 Frc consts  --      1.4654                 1.4762                 1.5693
 IR Inten    --      5.2621                 0.7881                 8.6492

                     82                     83                     84
                      A                      A                      A
 Frequencies --   1518.2617              1522.4508              1528.2748
 Red. masses --      1.1188                 1.1064                 2.1769
 Frc consts  --      1.5195                 1.5110                 2.9956
 IR Inten    --      7.0475                 2.1831                10.1759

                     85                     86                     87
                      A                      A                      A
 Frequencies --   1532.0788              1545.4399              1546.9312
 Red. masses --      1.0868                 1.0978                 1.0631
 Frc consts  --      1.5030                 1.5448                 1.4988
 IR Inten    --     14.8013                11.7294                 4.6651

                     88                     89                     90
                      A                      A                      A
 Frequencies --   1555.6726              1568.1552              1631.2169
 Red. masses --      1.0831                 1.0960                 5.0937
 Frc consts  --      1.5444                 1.5879                 7.9855
 IR Inten    --      4.4482                 2.1191                13.7501

                     91                     92                     93
                      A                      A                      A
 Frequencies --   1651.6243              2909.7294              2928.0158
 Red. masses --      5.6401                 1.0744                 1.0788
 Frc consts  --      9.0648                 5.3596                 5.4495
 IR Inten    --      1.0885                57.5126                15.9882

                     94                     95                     96
                      A                      A                      A
 Frequencies --   2935.7192              2999.8522              3017.2605
 Red. masses --      1.0760                 1.0696                 1.0670
 Frc consts  --      5.4636                 5.6709                 5.7234
 IR Inten    --    141.0935                69.6976                63.3296

                     97                     98                     99
                      A                      A                      A
 Frequencies --   3039.2124              3042.5461              3044.9773
 Red. masses --      1.0851                 1.0398                 1.0595
 Frc consts  --      5.9052                 5.6712                 5.7876
 IR Inten    --     65.8902                14.1044                34.0828

                    100                    101                    102
                      A                      A                      A
 Frequencies --   3048.2062              3068.3660              3070.2544
 Red. masses --      1.0618                 1.0944                 1.0732
 Frc consts  --      5.8129                 6.0705                 5.9603
 IR Inten    --     49.7894                19.2218                 5.3011

                    103                    104                    105
                      A                      A                      A
 Frequencies --   3076.1028              3076.4539              3081.6685
 Red. masses --      1.0773                 1.0937                 1.1010
 Frc consts  --      6.0059                 6.0987                 6.1604
 IR Inten    --     36.9443                50.6485                10.0076

                    106                    107                    108
                      A                      A                      A
 Frequencies --   3095.5720              3109.9254              3114.9545
 Red. masses --      1.1003                 1.1029                 1.1009
 Frc consts  --      6.2123                 6.2845                 6.2935
 IR Inten    --     37.9234                57.5845                48.1187

                    109                    110                    111
                      A                      A                      A
 Frequencies --   3122.7370              3151.1610              3173.6913
 Red. masses --      1.1063                 1.0894                 1.0886
 Frc consts  --      6.3564                 6.3738                 6.4602
 IR Inten    --     29.5431                30.6041                14.6915

                    112                    113                    114
                      A                      A                      A
 Frequencies --   3186.8044              3209.3848              3486.2450
 Red. masses --      1.0895                 1.0965                 1.0731
 Frc consts  --      6.5188                 6.6543                 7.6843
 IR Inten    --     18.3742                18.4277                 0.5634

 - Thermochemistry -
 -------------------
 Temperature   298.150 Kelvin.  Pressure   1.00000 Atm.
 Atom     1 has atomic number  6 and mass  12.00000

 Molecular mass:   233.18920 amu.
 Principal axes and moments of inertia in atomic units:
                           1         2         3
     Eigenvalues --  2891.843956317.846868140.95595
           X            0.99931   0.03702   0.00020
           Y           -0.03701   0.99929  -0.00726
           Z           -0.00046   0.00725   0.99997
 This molecule is an asymmetric top.
 Rotational symmetry number  1.
 Warning -- assumption of classical behavior for rotation
           may cause significant error
 Rotational temperatures (Kelvin)      0.02995     0.01371     0.01064
 Rotational constants (GHZ):           0.62408     0.28566     0.22169
 Zero-point vibrational energy     945167.7 (Joules/Mol)
                                  225.90049 (Kcal/Mol)
 Warning -- explicit consideration of  25 degrees of freedom as
           vibrations may cause significant error
 Vibrational temperatures:     31.32    47.59    67.11    94.96    95.28
          (Kelvin)            124.89   168.41   191.58   224.19   294.76
                              312.30   355.26   362.68   415.32   450.01
                              513.25   578.76   600.86   615.30   628.22
                              708.65   736.37   816.69   879.81   888.36
                              928.00  1054.19  1114.32  1141.04  1155.62
                             1158.88  1183.00  1253.78  1286.37  1305.51
                             1321.14  1339.49  1350.37  1362.19  1396.42
                             1413.82  1425.24  1428.67  1462.89  1491.48
                             1507.23  1548.72  1558.38  1579.81  1629.40
                             1643.62  1673.02  1683.95  1699.62  1701.51
                             1717.16  1741.84  1771.65  1796.53  1806.92
                             1809.12  1843.92  1846.44  1892.73  1896.39
                             1903.35  1912.71  1945.29  1972.87  1993.67
                             2003.37  2010.67  2029.87  2038.45  2047.23
                             2070.26  2083.19  2121.13  2165.30  2171.35
                             2181.89  2184.44  2190.47  2198.85  2204.32
                             2223.54  2225.69  2238.27  2256.23  2346.96
                             2376.32  4186.45  4212.76  4223.85  4316.12
                             4341.16  4372.75  4377.55  4381.04  4385.69
                             4414.69  4417.41  4425.83  4426.33  4433.83
                             4453.84  4474.49  4481.72  4492.92  4533.82
                             4566.23  4585.10  4617.59  5015.93

 Zero-point correction=                           0.359995 (Hartree/Particle)
 Thermal correction to Energy=                    0.376874
 Thermal correction to Enthalpy=                  0.377819
 Thermal correction to Gibbs Free Energy=         0.313323
 Sum of electronic and zero-point Energies=           -711.286663
 Sum of electronic and thermal Energies=              -711.269784
 Sum of electronic and thermal Enthalpies=            -711.268839
 Sum of electronic and thermal Free Energies=         -711.333335

                     E (Thermal)             CV                S
                      KCal/Mol        Cal/Mol-Kelvin    Cal/Mol-Kelvin
 Total                  236.492             64.069            135.743
 Electronic               0.000              0.000              0.000
 Translational            0.889              2.981             42.242
 Rotational               0.889              2.981             33.364
 Vibrational            234.715             58.107             60.138
 Vibration     1          0.593              1.985              6.466
 Vibration     2          0.594              1.983              5.636
 Vibration     3          0.595              1.979              4.955
 Vibration     4          0.597              1.970              4.269
 Vibration     5          0.598              1.970              4.263
 Vibration     6          0.601              1.958              3.731
 Vibration     7          0.608              1.935              3.148
 Vibration     8          0.613              1.920              2.900
 Vibration     9          0.620              1.896              2.600
 Vibration    10          0.640              1.833              2.089
 Vibration    11          0.646              1.815              1.983
 Vibration    12          0.661              1.768              1.752
 Vibration    13          0.664              1.759              1.716
 Vibration    14          0.685              1.695              1.482
 Vibration    15          0.701              1.649              1.348
 Vibration    16          0.732              1.561              1.136
 Vibration    17          0.768              1.465              0.954
 Vibration    18          0.781              1.432              0.900
 Vibration    19          0.789              1.410              0.866
 Vibration    20          0.797              1.390              0.837
 Vibration    21          0.848              1.267              0.677
 Vibration    22          0.867              1.224              0.629
 Vibration    23          0.924              1.101              0.509
 Vibration    24          0.971              1.007              0.430
 Vibration    25          0.977              0.995              0.421

 Optimization completed.
    -- Stationary point found.
 Normal termination of Gaussian 16 at Sun Dec 13 16:32:39 2020.

 ----------------------------------------------------------------------
 # B3LYP/6-311++G(d,p) empiricaldispersion=gd3bj scf=xqc pop=npa geom=c
 heck
 ----------------------------------------------------------------------

 --------------------------------------
 CID_60913769_JID_7260_Energie_neutraal
 --------------------------------------
 Structure from the checkpoint file:  "JID_7260.chk"
 Charge =  0 Multiplicity = 1

 SCF Done:  E(RB3LYP) =  -711.839250087     A.U. after   15 cycles
 Normal termination of Gaussian 16 at Sun Dec 13 16:41:36 2020.

 ----------------------------------------------------------------------
 # B3LYP/6-311++G(d,p) empiricaldispersion=gd3bj scf=xqc pop=npa geom=c
 heck
 ----------------------------------------------------------------------

 ------------------------------------
 CID_60913769_JID_7260_Energie_kation
 ------------------------------------
 Structure from the checkpoint file:  "JID_7260.chk"
 Charge =  1 Multiplicity = 2

 SCF Done:  E(UB3LYP) =  -711.569887681     A.U. after   26 cycles
 Normal termination of Gaussian 16 at Sun Dec 13 17:03:47 2020.
 Gaussian 16:  ES64L-G16RevA.03 25-Dec-2016

 ----------------------------------------------------------------------
 # B3LYP/6-311++G(d,p) empiricaldispersion=gd3bj scf=xqc pop=npa geom=c
 heck
 ----------------------------------------------------------------------

 -----------------------------------
 CID_60913769_JID_7260_Energie_anion
 -----------------------------------
 Structure from the checkpoint file:  "JID_7260.chk"
 Charge = -1 Multiplicity = 2

                         Standard orientation:
 ---------------------------------------------------------------------
 Center     Atomic      Atomic             Coordinates (Angstroms)
 Number     Number       Type             X           Y           Z
 ---------------------------------------------------------------------
      1          6           0        4.656736    1.831156   -0.761149
      2          6           0        4.757185    0.532592    0.045967
      3          6           0        3.424477    0.065526    0.634698
      4          7           0        2.462653   -0.281307   -0.409045
      5          6           0        1.168991   -0.707335    0.110632
      6          6           0        1.184997   -2.107716    0.746530
      7          6           0       -0.289475   -2.511334    0.683509
      8          7           0       -0.727554   -1.970101   -0.594898
      9          6           0        0.124615   -0.850339   -1.008954
     10          6           0       -2.134840   -1.958052   -0.905912
     11          6           0       -3.072066   -1.180113    0.063551
     12          6           0       -2.721090    0.277603    0.198604
     13          6           0       -3.084637    1.202467   -0.790771
     14          7           0       -2.744748    2.494517   -0.786321
     15          6           0       -2.010480    2.931326    0.245967
     16          6           0       -1.608942    2.111869    1.300013
     17          6           0       -1.973261    0.767107    1.272780
     18          1           0        4.045556    1.704267   -1.662374
     19          1           0        5.645801    2.167704   -1.090169
     20          1           0        4.212364    2.636135   -0.162138
     21          1           0        5.158665   -0.267547   -0.587735
     22          1           0        5.465939    0.674304    0.872062
     23          1           0        3.597297   -0.830866    1.241864
     24          1           0        3.035453    0.841481    1.326014
     25          1           0        2.312797    0.538095   -0.995624
     26          1           0        0.775476    0.002665    0.863468
     27          1           0        1.581347   -2.121932    1.766094
     28          1           0        1.795772   -2.769104    0.122237
     29          1           0       -0.436850   -3.599460    0.718367
     30          1           0       -0.833053   -2.088040    1.549420
     31          1           0       -0.438027    0.080179   -1.147658
     32          1           0        0.636011   -1.080326   -1.956567
     33          1           0       -2.253699   -1.548398   -1.916010
     34          1           0       -2.497242   -2.995825   -0.944706
     35          1           0       -4.097347   -1.289033   -0.313065
     36          1           0       -3.049178   -1.657041    1.049962
     37          1           0       -3.683668    0.871555   -1.639639
     38          1           0       -1.738717    3.985162    0.228955
     39          1           0       -1.025078    2.518008    2.120648
     40          1           0       -1.675346    0.097717    2.075660
 ---------------------------------------------------------------------

 SCF Done:  E(UB3LYP) =  -711.830112076     A.U. after   33 cycles
 SCF Done:  E(UB3LYP) =  -711.830112076     a.u. after    1 cycles

 The electronic state is 2-A.
 Alpha  occ. eigenvalues --  -14.20278 -14.19802 -14.19265 -10.09926 -10.09885
 Alpha  occ. eigenvalues --  -10.09588 -10.09427 -10.09331 -10.09218 -10.08865
 Alpha  occ. eigenvalues --  -10.07651 -10.07581 -10.07255 -10.07139 -10.07103
 Alpha  occ. eigenvalues --  -10.06845 -10.06814  -0.83877  -0.83075  -0.80876
 Alpha  occ. eigenvalues --   -0.71347  -0.69356  -0.67516  -0.65859  -0.62812
 Alpha  occ. eigenvalues --   -0.61051  -0.57555  -0.54690  -0.52141  -0.50193
 Alpha  occ. eigenvalues --   -0.49078  -0.47727  -0.46410  -0.41558  -0.40689
 Alpha  occ. eigenvalues --   -0.40089  -0.38683  -0.38002  -0.36067  -0.35304
 Alpha  occ. eigenvalues --   -0.34379  -0.33383  -0.33269  -0.33103  -0.31320
 Alpha  occ. eigenvalues --   -0.30564  -0.29627  -0.29194  -0.28797  -0.28012
 Alpha  occ. eigenvalues --   -0.27707  -0.26526  -0.25673  -0.25320  -0.24904
 Alpha  occ. eigenvalues --   -0.24406  -0.24161  -0.23323  -0.22816  -0.18027
 Alpha  occ. eigenvalues --   -0.15335  -0.14868  -0.13630  -0.10071   0.04177
 Alpha virt. eigenvalues --    0.05857   0.06675   0.06974   0.07456   0.08168
 Alpha virt. eigenvalues --    0.08363   0.08733   0.08913   0.09604   0.09914
 Alpha virt. eigenvalues --    0.10170   0.10525   0.11079   0.11711   0.11995

  Beta  occ. eigenvalues --  -14.20270 -14.19801 -14.19071 -10.09913 -10.09884
  Beta  occ. eigenvalues --  -10.09574 -10.09414 -10.09322 -10.09180 -10.08860
  Beta  occ. eigenvalues --  -10.07639 -10.07555 -10.07245 -10.07113 -10.07104
  Beta  occ. eigenvalues --  -10.06806 -10.06676  -0.83859  -0.82821  -0.80863
  Beta  occ. eigenvalues --   -0.71208  -0.69268  -0.67415  -0.65780  -0.62785
  Beta  occ. eigenvalues --   -0.60983  -0.57511  -0.54642  -0.51892  -0.50118
  Beta  occ. eigenvalues --   -0.49010  -0.47706  -0.46369  -0.41483  -0.40665
  Beta  occ. eigenvalues --   -0.40023  -0.38651  -0.37929  -0.36021  -0.35229
  Beta  occ. eigenvalues --   -0.34343  -0.33352  -0.33214  -0.33064  -0.31284
  Beta  occ. eigenvalues --   -0.30530  -0.29561  -0.29071  -0.28585  -0.27952
  Beta  occ. eigenvalues --   -0.27453  -0.26489  -0.25641  -0.25291  -0.24871
  Beta  occ. eigenvalues --   -0.24368  -0.24120  -0.23303  -0.22782  -0.17201
  Beta  occ. eigenvalues --   -0.15010  -0.14652  -0.13601  -0.10030
  Beta virt. eigenvalues --    0.06237   0.06685   0.07411   0.07604   0.07961
  Beta virt. eigenvalues --    0.08343   0.08621   0.08980   0.09236   0.09655
  Beta virt. eigenvalues --    0.10080   0.10385   0.10751   0.11197   0.11750

 Mulliken charges and spin densities:
               1          2
     1  C    0.247331  -0.745213
     2  C   -0.382300   0.097532
     3  C    0.243072  -0.429679
     4  N    0.118759   0.027960
     5  C   -0.622044   0.042467
     6  C    0.055191  -0.135224
     7  C   -0.058333  -0.445697
     8  N    0.098453   0.038685
     9  C   -0.422144  -0.017348
    10  C   -0.074250  -0.189262
    11  C    0.916314  -1.530798
    12  C   -0.603247   1.279282
    13  C   -1.022933   0.570550
    14  N   -0.081914   0.084904
    15  C    0.086835  -0.474047
    16  C    0.148588  -0.345438
    17  C    0.498130  -0.473735
    18  H   -0.008476   0.137157
    19  H   -0.274465   0.420389
    20  H   -0.045590   0.186618
    21  H    0.115552   0.022321
    22  H   -0.131089   0.263796
    23  H    0.000126   0.147164
    24  H   -0.173596   0.295320
    25  H    0.307315  -0.110886
    26  H    0.502416  -0.364642
    27  H   -0.184337   0.332649
    28  H    0.220798  -0.038188
    29  H   -0.178238   0.340628
    30  H    0.139249  -0.047489
    31  H    0.170014   0.037556
    32  H    0.123104   0.045334
    33  H    0.097779   0.031483
    34  H   -0.144461   0.302685
    35  H   -0.001994   0.168248
    36  H   -0.243117   0.416767
    37  H    0.078433   0.067322
    38  H    0.074629   0.071235
    39  H   -0.307429   0.478505
    40  H   -0.282129   0.441087
 Sum of Mulliken charges =  -1.00000   1.00000

 Dipole moment (field-independent basis, Debye):
    X=             -0.1464    Y=             -1.9654    Z=             -1.9096  Tot=              2.7442
 Quadrupole moment (field-independent basis, Debye-Ang):
   XX=           -183.5237   YY=           -158.1905   ZZ=           -139.5727
   XY=             -7.4109   XZ=              1.6351   YZ=              3.4917

 Summary of Natural Population Analysis:

                                       Natural Population
                Natural  -----------------------------------------------
    Atom  No    Charge         Core      Valence    Rydberg      Total
 -----------------------------------------------------------------------
      C    1   -0.29016      0.99967     2.28536    0.00513     3.29016
      C    2   -0.19393      0.99964     2.18518    0.00911     3.19393
      C    3   -0.08508      0.99963     2.07483    0.01062     3.08508
      N    4   -0.33764      0.99972     2.82736    0.01056     3.83764
      C    5   -0.01697      0.99958     2.00593    0.01145     3.01697
      C    6   -0.19589      0.99961     2.18738    0.00890     3.19589
      C    7   -0.07930      0.99963     2.06899    0.01068     3.07930
      N    8   -0.28790      0.99972     2.77646    0.01173     3.78790
      C    9   -0.07776      0.99960     2.06936    0.00880     3.07776
      C   10   -0.07114      0.99961     2.05980    0.01172     3.07114
      C   11   -0.20874      0.99960     2.19909    0.01006     3.20874
      C   12   -0.03551      0.99949     2.02536    0.01066     3.03551
      C   13    0.02447      0.99952     1.96275    0.01326     2.97553
      N   14   -0.21358      0.99971     2.70231    0.01156     3.71358
      C   15    0.02079      0.99959     1.96362    0.01600     2.97921
      C   16   -0.12340      0.99956     2.11415    0.00970     3.12340
      C   17   -0.06110      0.99951     2.05146    0.01013     3.06110
      H   18    0.09452      0.00000     0.40454    0.00094     0.40548
      H   19    0.09938      0.00000     0.39969    0.00094     0.40062
      H   20    0.09904      0.00000     0.39980    0.00116     0.40096
      H   21    0.09572      0.00000     0.40314    0.00114     0.40428
      H   22    0.09614      0.00000     0.40288    0.00098     0.40386
      H   23    0.09170      0.00000     0.40676    0.00154     0.40830
      H   24    0.07900      0.00000     0.41931    0.00169     0.42100
      H   25    0.17148      0.00000     0.32508    0.00345     0.32852
      H   26    0.08568      0.00000     0.41148    0.00285     0.41432
      H   27    0.10034      0.00000     0.39874    0.00092     0.39966
      H   28    0.09973      0.00000     0.39895    0.00132     0.40027
      H   29    0.09181      0.00000     0.40705    0.00113     0.40819
      H   30    0.08090      0.00000     0.41710    0.00200     0.41910
      H   31    0.09772      0.00000     0.40079    0.00148     0.40228
      H   32    0.08771      0.00000     0.41075    0.00154     0.41229
      H   33    0.09311      0.00000     0.40599    0.00090     0.40689
      H   34    0.09239      0.00000     0.40644    0.00117     0.40761
      H   35    0.10127      0.00000     0.39758    0.00116     0.39873
      H   36    0.10260      0.00000     0.39580    0.00160     0.39740
      H   37    0.08414      0.00000     0.41430    0.00156     0.41586
      H   38    0.08664      0.00000     0.41213    0.00123     0.41336
      H   39    0.10253      0.00000     0.39641    0.00106     0.39747
      H   40    0.09931      0.00000     0.39862    0.00207     0.40069
 =======================================================================
   * Total *   -0.00000     16.99338    46.79271    0.21390    64.00000

 Normal termination of Gaussian 16 at Sun Dec 13 17:29:32 2020.
