 Gaussian 16, Revision A.03,

 -----------------------------------------------------------
 # opt freq B3LYP/6-31G(d) empiricaldispersion=gd3bj scf=xqc
 -----------------------------------------------------------

 ------------------------------
 CID_82229759_JID_3033_neutraal
 ------------------------------
 Symbolic Z-matrix:
 Charge =  0 Multiplicity = 1

 SCF Done:  E(RB3LYP) =  -574.260004932     A.U. after   14 cycles
 SCF Done:  E(RB3LYP) =  -574.263441771     A.U. after   11 cycles
 SCF Done:  E(RB3LYP) =  -574.263864281     A.U. after   11 cycles
 SCF Done:  E(RB3LYP) =  -574.264163397     A.U. after   11 cycles
 SCF Done:  E(RB3LYP) =  -574.264315184     A.U. after   11 cycles
 SCF Done:  E(RB3LYP) =  -574.264422181     A.U. after   11 cycles
 SCF Done:  E(RB3LYP) =  -574.264516371     A.U. after   11 cycles
 SCF Done:  E(RB3LYP) =  -574.264575450     A.U. after   11 cycles
 SCF Done:  E(RB3LYP) =  -574.264592330     A.U. after   10 cycles
 SCF Done:  E(RB3LYP) =  -574.264594965     A.U. after    8 cycles
 SCF Done:  E(RB3LYP) =  -574.264596453     A.U. after    8 cycles
 SCF Done:  E(RB3LYP) =  -574.264596746     A.U. after    7 cycles
 SCF Done:  E(RB3LYP) =  -574.264596955     A.U. after    7 cycles
 SCF Done:  E(RB3LYP) =  -574.264597036     A.U. after    7 cycles
 SCF Done:  E(RB3LYP) =  -574.264597073     A.U. after    7 cycles
 SCF Done:  E(RB3LYP) =  -574.264597088     A.U. after    7 cycles
 Optimization completed.
    -- Stationary point found.
 Normal termination of Gaussian 16 at Wed Dec  9 22:24:12 2020.

 --------------------------------------------------------------------
 #N Geom=AllCheck Guess=TCheck SCRF=Check GenChk RB3LYP/6-31G(d) Freq
 --------------------------------------------------------------------

 Structure from the checkpoint file:  "JID_3033.chk"
 ------------------------------
 CID_82229759_JID_3033_neutraal
 ------------------------------
 Charge =  0 Multiplicity = 1

 SCF Done:  E(RB3LYP) =  -574.264597088     A.U. after    1 cycles

  Exact polarizability: 169.085  -1.553 131.301  -1.885  -1.835  66.603
 Approx polarizability: 240.784  -0.623 208.382  -4.815  -3.783 101.510

                      1                      2                      3
                      A                      A                      A
 Frequencies --     74.8116                97.9892               120.1440
 Red. masses --      2.4130                 1.4252                 2.5968
 Frc consts  --      0.0080                 0.0081                 0.0221
 IR Inten    --      4.2304                 2.9500                 0.6233

                      4                      5                      6
                      A                      A                      A
 Frequencies --    134.8376               153.9543               191.6314
 Red. masses --      1.3995                 1.3979                 2.6184
 Frc consts  --      0.0150                 0.0195                 0.0567
 IR Inten    --      1.7778                 0.4222                28.9756

                      7                      8                      9
                      A                      A                      A
 Frequencies --    263.2150               277.5563               279.9976
 Red. masses --      2.5699                 1.8612                 2.2847
 Frc consts  --      0.1049                 0.0845                 0.1055
 IR Inten    --      8.3637                 4.3943                 1.6345

                     10                     11                     12
                      A                      A                      A
 Frequencies --    308.4089               332.8366               362.4700
 Red. masses --      2.3418                 2.3334                 1.9471
 Frc consts  --      0.1312                 0.1523                 0.1507
 IR Inten    --     37.9276                20.0451                 3.2776

                     13                     14                     15
                      A                      A                      A
 Frequencies --    404.0613               431.7361               435.0151
 Red. masses --      2.9973                 4.3656                 5.0877
 Frc consts  --      0.2883                 0.4794                 0.5673
 IR Inten    --     20.0253                57.3861                 1.1961

                     16                     17                     18
                      A                      A                      A
 Frequencies --    466.2061               519.7421               539.6227
 Red. masses --      4.1768                 4.6429                 2.6235
 Frc consts  --      0.5349                 0.7389                 0.4501
 IR Inten    --     43.8519                14.5804                 0.2015

                     19                     20                     21
                      A                      A                      A
 Frequencies --    546.4802               600.1109               643.1587
 Red. masses --      3.3951                 3.8156                 2.9274
 Frc consts  --      0.5974                 0.8096                 0.7135
 IR Inten    --      3.0817                20.3956                 0.8034

                     22                     23                     24
                      A                      A                      A
 Frequencies --    654.6757               714.6212               726.5591
 Red. masses --      2.6899                 3.6700                 2.3245
 Frc consts  --      0.6793                 1.1042                 0.7230
 IR Inten    --    103.2539                75.3453               108.7968

                     25                     26                     27
                      A                      A                      A
 Frequencies --    748.0739               809.8607               832.1943
 Red. masses --      2.3250                 1.5540                 3.0472
 Frc consts  --      0.7666                 0.6005                 1.2434
 IR Inten    --     32.1740                58.6541                 4.1339

                     28                     29                     30
                      A                      A                      A
 Frequencies --    906.2487               948.8609               998.6199
 Red. masses --      2.3046                 2.3002                 1.7254
 Frc consts  --      1.1152                 1.2202                 1.0138
 IR Inten    --      4.8261                 5.1273                 4.5367

                     31                     32                     33
                      A                      A                      A
 Frequencies --   1032.7727              1057.7597              1077.7367
 Red. masses --      2.9185                 1.4099                 1.5851
 Frc consts  --      1.8341                 0.9294                 1.0847
 IR Inten    --     16.7550                 2.2497                 2.0862

                     34                     35                     36
                      A                      A                      A
 Frequencies --   1081.9058              1092.7258              1125.2436
 Red. masses --      2.0947                 2.1945                 1.9374
 Frc consts  --      1.4446                 1.5439                 1.4453
 IR Inten    --      4.4628                 2.8829                28.2513

                     37                     38                     39
                      A                      A                      A
 Frequencies --   1142.1952              1159.5193              1199.7536
 Red. masses --      3.3009                 1.6010                 3.4336
 Frc consts  --      2.5373                 1.2682                 2.9120
 IR Inten    --     94.6173                 4.1326                12.0187

                     40                     41                     42
                      A                      A                      A
 Frequencies --   1248.3359              1269.8730              1293.6037
 Red. masses --      1.7750                 2.3916                 1.5738
 Frc consts  --      1.6297                 2.2723                 1.5517
 IR Inten    --     84.5810                 3.3335                52.7588

                     43                     44                     45
                      A                      A                      A
 Frequencies --   1300.0692              1361.1255              1390.6381
 Red. masses --      1.2628                 3.4473                 2.3848
 Frc consts  --      1.2576                 3.7630                 2.7173
 IR Inten    --     22.0700                29.9143                59.0793

                     46                     47                     48
                      A                      A                      A
 Frequencies --   1410.3588              1421.2577              1435.6632
 Red. masses --      1.5561                 1.4284                 1.3484
 Frc consts  --      1.8237                 1.7000                 1.6375
 IR Inten    --     22.5600                28.4610                 0.8313

                     49                     50                     51
                      A                      A                      A
 Frequencies --   1446.2360              1465.1600              1506.5319
 Red. masses --      1.2366                 2.3233                 1.2923
 Frc consts  --      1.5239                 2.9385                 1.7281
 IR Inten    --      0.7447                42.7409                 8.1433

                     52                     53                     54
                      A                      A                      A
 Frequencies --   1510.9634              1518.4833              1521.8895
 Red. masses --      1.4862                 1.0846                 1.1062
 Frc consts  --      1.9991                 1.4735                 1.5096
 IR Inten    --     14.1683                 8.6552                 6.4168

                     55                     56                     57
                      A                      A                      A
 Frequencies --   1528.0235              1538.8243              1546.0638
 Red. masses --      1.1460                 1.0489                 1.6291
 Frc consts  --      1.5764                 1.4635                 2.2943
 IR Inten    --      4.0707                 0.7722                35.9987

                     58                     59                     60
                      A                      A                      A
 Frequencies --   1549.0364              1647.5994              1673.3382
 Red. masses --      1.9651                 6.4353                 4.0255
 Frc consts  --      2.7782                10.2925                 6.6411
 IR Inten    --    130.3001                16.2684                63.7522

                     61                     62                     63
                      A                      A                      A
 Frequencies --   1698.3017              3004.8444              3015.6122
 Red. masses --      1.2689                 1.0563                 1.0702
 Frc consts  --      2.1563                 5.6195                 5.7340
 IR Inten    --     89.5678                59.8989                57.7368

                     64                     65                     66
                      A                      A                      A
 Frequencies --   3040.4291              3044.6370              3074.0748
 Red. masses --      1.0657                 1.0439                 1.0850
 Frc consts  --      5.8043                 5.7014                 6.0411
 IR Inten    --     66.2569                32.2740                24.4926

                     67                     68                     69
                      A                      A                      A
 Frequencies --   3094.3576              3102.4680              3122.5108
 Red. masses --      1.0983                 1.0992                 1.0970
 Frc consts  --      6.1961                 6.2338                 6.3019
 IR Inten    --     21.7527                39.7410                49.9779

                     70                     71                     72
                      A                      A                      A
 Frequencies --   3151.6495              3163.0921              3167.2496
 Red. masses --      1.0941                 1.0897                 1.0957
 Frc consts  --      6.4032                 6.4234                 6.4761
 IR Inten    --     15.9679                20.9850                 6.3553

                     73                     74                     75
                      A                      A                      A
 Frequencies --   3533.4631              3588.4203              3628.8555
 Red. masses --      1.0483                 1.0764                 1.0966
 Frc consts  --      7.7112                 8.1662                 8.5086
 IR Inten    --      2.8562                 7.9066                 4.0909

 - Thermochemistry -
 -------------------
 Temperature   298.150 Kelvin.  Pressure   1.00000 Atm.
 Atom     1 has atomic number  6 and mass  12.00000

 Molecular mass:   178.11061 amu.
 Principal axes and moments of inertia in atomic units:
                           1         2         3
     Eigenvalues --  1287.114522806.425824005.41407
           X            0.99980  -0.02023   0.00059
           Y            0.02023   0.99978  -0.00531
           Z           -0.00048   0.00532   0.99999
 This molecule is an asymmetric top.
 Rotational symmetry number  1.
 Warning -- assumption of classical behavior for rotation
           may cause significant error
 Rotational temperatures (Kelvin)      0.06729     0.03086     0.02162
 Rotational constants (GHZ):           1.40216     0.64307     0.45058
 Zero-point vibrational energy     607142.8 (Joules/Mol)
                                  145.11062 (Kcal/Mol)
 Warning -- explicit consideration of  20 degrees of freedom as
           vibrations may cause significant error
 Vibrational temperatures:    107.64   140.98   172.86   194.00   221.51
          (Kelvin)            275.71   378.71   399.34   402.85   443.73
                              478.88   521.51   581.35   621.17   625.89
                              670.77   747.79   776.40   786.26   863.43
                              925.36   941.93  1028.18  1045.36  1076.31
                             1165.21  1197.34  1303.89  1365.20  1436.79
                             1485.93  1521.88  1550.62  1556.62  1572.19
                             1618.97  1643.36  1668.29  1726.18  1796.08
                             1827.06  1861.21  1870.51  1958.36  2000.82
                             2029.19  2044.87  2065.60  2080.81  2108.04
                             2167.56  2173.94  2184.76  2189.66  2198.48
                             2214.03  2224.44  2228.72  2370.53  2407.56
                             2443.48  4323.30  4338.79  4374.50  4380.55
                             4422.91  4452.09  4463.76  4492.60  4534.52
                             4550.98  4556.97  5083.87  5162.94  5221.11

 Zero-point correction=                           0.231248 (Hartree/Particle)
 Thermal correction to Energy=                    0.243768
 Thermal correction to Enthalpy=                  0.244712
 Thermal correction to Gibbs Free Energy=         0.193389
 Sum of electronic and zero-point Energies=           -574.033349
 Sum of electronic and thermal Energies=              -574.020829
 Sum of electronic and thermal Enthalpies=            -574.019885
 Sum of electronic and thermal Free Energies=         -574.071208

                     E (Thermal)             CV                S
                      KCal/Mol        Cal/Mol-Kelvin    Cal/Mol-Kelvin
 Total                  152.967             48.803            108.018
 Electronic               0.000              0.000              0.000
 Translational            0.889              2.981             41.439
 Rotational               0.889              2.981             31.048
 Vibrational            151.189             42.841             35.531
 Vibration     1          0.599              1.966              4.023
 Vibration     2          0.603              1.951              3.494
 Vibration     3          0.609              1.932              3.098
 Vibration     4          0.613              1.919              2.876
 Vibration     5          0.619              1.898              2.623
 Vibration     6          0.634              1.851              2.212
 Vibration     7          0.670              1.740              1.640
 Vibration     8          0.679              1.715              1.549
 Vibration     9          0.680              1.711              1.534
 Vibration    10          0.698              1.658              1.371
 Vibration    11          0.715              1.610              1.246
 Vibration    12          0.736              1.550              1.111
 Vibration    13          0.769              1.461              0.948
 Vibration    14          0.793              1.401              0.853
 Vibration    15          0.796              1.394              0.842
 Vibration    16          0.824              1.325              0.748
 Vibration    17          0.875              1.206              0.611
 Vibration    18          0.895              1.162              0.566
 Vibration    19          0.902              1.147              0.552
 Vibration    20          0.958              1.032              0.449

                           ! Non-Optimized Parameters !
 Normal termination of Gaussian 16 at Wed Dec  9 22:31:05 2020.

 ----------------------------------------------------------------------
 # B3LYP/6-311++G(d,p) empiricaldispersion=gd3bj scf=xqc pop=npa geom=c
 heck
 ----------------------------------------------------------------------

 --------------------------------------
 CID_82229759_JID_3033_Energie_neutraal
 --------------------------------------
 Structure from the checkpoint file:  "JID_3033.chk"
 Charge =  0 Multiplicity = 1

 SCF Done:  E(RB3LYP) =  -574.427683941     A.U. after   15 cycles
 Normal termination of Gaussian 16 at Wed Dec  9 22:33:45 2020.

 ----------------------------------------------------------------------
 # B3LYP/6-311++G(d,p) empiricaldispersion=gd3bj scf=xqc pop=npa geom=c
 heck
 ----------------------------------------------------------------------

 ------------------------------------
 CID_82229759_JID_3033_Energie_kation
 ------------------------------------
 Structure from the checkpoint file:  "JID_3033.chk"
 Charge =  1 Multiplicity = 2

 SCF Done:  E(UB3LYP) =  -574.181191021     A.U. after   22 cycles
 Normal termination of Gaussian 16 at Wed Dec  9 22:38:56 2020.
 Gaussian 16:  ES64L-G16RevA.03 25-Dec-2016

 ----------------------------------------------------------------------
 # B3LYP/6-311++G(d,p) empiricaldispersion=gd3bj scf=xqc pop=npa geom=c
 heck
 ----------------------------------------------------------------------

 -----------------------------------
 CID_82229759_JID_3033_Energie_anion
 -----------------------------------
 Structure from the checkpoint file:  "JID_3033.chk"
 Charge = -1 Multiplicity = 2

                         Standard orientation:
 ---------------------------------------------------------------------
 Center     Atomic      Atomic             Coordinates (Angstroms)
 Number     Number       Type             X           Y           Z
 ---------------------------------------------------------------------
      1          6           0       -3.161110    0.943735   -0.036462
      2          6           0       -1.783997    0.326691   -0.018619
      3          6           0       -0.616991    1.107528   -0.050933
      4          6           0        0.636290    0.481312   -0.077581
      5          6           0        0.749446   -0.918634   -0.078621
      6          6           0       -0.415826   -1.685581   -0.000906
      7          6           0       -1.671839   -1.078629    0.034442
      8          7           0       -2.837379   -1.871229    0.043175
      9          7           0        2.006469   -1.538005   -0.177971
     10          6           0        3.178839   -0.675279   -0.235257
     11          6           0        2.909652    0.644636    0.482943
     12          8           0        1.773666    1.277634   -0.093332
     13          6           0       -0.680041    2.617301   -0.051473
     14          1           0       -3.656144    0.892561    0.946510
     15          1           0       -3.810140    0.419437   -0.748659
     16          1           0       -3.136316    1.996225   -0.324040
     17          1           0       -0.335067   -2.771013    0.001823
     18          1           0       -2.662151   -2.829274    0.323801
     19          1           0       -3.592672   -1.482524    0.595960
     20          1           0        2.104229   -2.357879    0.405662
     21          1           0        3.428500   -0.455421   -1.281898
     22          1           0        4.035312   -1.192629    0.209186
     23          1           0        2.736881    0.465700    1.554966
     24          1           0        3.741095    1.344515    0.365504
     25          1           0       -1.085755    3.001842   -0.996185
     26          1           0       -1.323042    2.991663    0.752961
     27          1           0        0.315769    3.041879    0.079442
 ---------------------------------------------------------------------

 SCF Done:  E(UB3LYP) =  -574.415075409     A.U. after   32 cycles

 The electronic state is 2-A.
 Alpha  occ. eigenvalues --  -19.03851 -14.21186 -14.20696 -10.12032 -10.10628
 Alpha  occ. eigenvalues --  -10.09890 -10.09873 -10.09653 -10.07149 -10.06429
 Alpha  occ. eigenvalues --  -10.06332 -10.06083 -10.05139  -0.95752  -0.82322
 Alpha  occ. eigenvalues --   -0.80783  -0.73400  -0.67376  -0.64879  -0.62178
 Alpha  occ. eigenvalues --   -0.58509  -0.56563  -0.53362  -0.49141  -0.45767
 Alpha  occ. eigenvalues --   -0.43261  -0.41082  -0.40246  -0.37669  -0.36249
 Alpha  occ. eigenvalues --   -0.34526  -0.33260  -0.33093  -0.32493  -0.30919
 Alpha  occ. eigenvalues --   -0.30294  -0.29749  -0.29484  -0.28416  -0.26916
 Alpha  occ. eigenvalues --   -0.25746  -0.24515  -0.23490  -0.22290  -0.18195
 Alpha  occ. eigenvalues --   -0.16004  -0.10311  -0.08038   0.04334
 Alpha virt. eigenvalues --    0.06007   0.07187   0.08329   0.08698   0.09123
 Alpha virt. eigenvalues --    0.09978   0.10154   0.10601   0.11000   0.11368
 Alpha virt. eigenvalues --    0.12606   0.13084   0.13179   0.14028   0.14597

  Beta  occ. eigenvalues --  -19.03848 -14.21160 -14.20657 -10.12012 -10.10627
  Beta  occ. eigenvalues --  -10.09865 -10.09858 -10.09652 -10.07147 -10.06406
  Beta  occ. eigenvalues --  -10.06322 -10.06080 -10.05124  -0.95745  -0.82274
  Beta  occ. eigenvalues --   -0.80731  -0.73373  -0.67345  -0.64845  -0.62135
  Beta  occ. eigenvalues --   -0.58477  -0.56515  -0.53309  -0.49094  -0.45713
  Beta  occ. eigenvalues --   -0.43219  -0.41045  -0.40216  -0.37606  -0.36200
  Beta  occ. eigenvalues --   -0.34485  -0.33230  -0.33056  -0.32450  -0.30893
  Beta  occ. eigenvalues --   -0.30270  -0.29716  -0.29441  -0.28390  -0.26894
  Beta  occ. eigenvalues --   -0.25718  -0.24492  -0.23464  -0.22260  -0.18162
  Beta  occ. eigenvalues --   -0.15980  -0.10280  -0.08011
  Beta virt. eigenvalues --    0.06584   0.07345   0.07847   0.09142   0.09272
  Beta virt. eigenvalues --    0.09381   0.10020   0.10332   0.11136   0.11414
  Beta virt. eigenvalues --    0.11846   0.12676   0.13179   0.13383   0.14331

 Mulliken charges and spin densities:
               1          2
     1  C    2.068362  -2.598438
     2  C   -0.055649   1.006573
     3  C    1.262800  -0.409731
     4  C   -0.603038  -0.105197
     5  C    0.279788  -0.110743
     6  C   -0.055317  -0.410002
     7  C   -1.384247   0.331640
     8  N   -0.297759  -0.005573
     9  N   -0.349245   0.257762
    10  C    0.681224  -1.014571
    11  C   -0.024653  -0.181509
    12  O   -0.194161   0.041147
    13  C   -0.382387  -0.231786
    14  H   -0.190615   0.359010
    15  H    0.011553   0.144441
    16  H    0.098353   0.045306
    17  H   -0.477968   0.632429
    18  H   -0.163204   0.398509
    19  H   -0.159406   0.406011
    20  H   -0.176831   0.438633
    21  H    0.224938  -0.076210
    22  H   -1.057003   1.252095
    23  H    0.041936   0.103830
    24  H   -0.341319   0.501548
    25  H    0.074553   0.070432
    26  H    0.058496   0.086016
    27  H    0.110799   0.068378
 Sum of Mulliken charges =  -1.00000   1.00000

 Dipole moment (field-independent basis, Debye):
    X=             -1.6429    Y=              5.1800    Z=             -2.0233  Tot=              5.7987
 Quadrupole moment (field-independent basis, Debye-Ang):
   XX=           -154.4721   YY=           -123.0066   ZZ=           -104.4416
   XY=              2.4096   XZ=             -3.3826   YZ=              3.8525

 Summary of Natural Population Analysis:

                                       Natural Population
                Natural  -----------------------------------------------
    Atom  No    Charge         Core      Valence    Rydberg      Total
 -----------------------------------------------------------------------
      C    1   -0.29904      0.99965     2.29319    0.00621     3.29904
      C    2   -0.04959      0.99945     2.04044    0.00970     3.04959
      C    3   -0.02195      0.99946     2.01422    0.00828     3.02195
      C    4    0.11938      0.99928     1.86850    0.01284     2.88062
      C    5    0.06922      0.99945     1.92028    0.01105     2.93078
      C    6   -0.13480      0.99949     2.12513    0.01018     3.13480
      C    7    0.08667      0.99945     1.90269    0.01119     2.91333
      N    8   -0.40191      0.99972     2.89182    0.01037     3.90191
      N    9   -0.31926      0.99969     2.80719    0.01238     3.81926
      C   10   -0.09751      0.99963     2.08635    0.01153     3.09751
      C   11   -0.01438      0.99958     2.00244    0.01237     3.01438
      O   12   -0.28629      0.99987     3.27803    0.00839     4.28629
      C   13   -0.29631      0.99964     2.29167    0.00500     3.29631
      H   14    0.10005      0.00000     0.39863    0.00132     0.39995
      H   15    0.10494      0.00000     0.39388    0.00118     0.39506
      H   16    0.10286      0.00000     0.39629    0.00085     0.39714
      H   17    0.09883      0.00000     0.39955    0.00162     0.40117
      H   18    0.18404      0.00000     0.31327    0.00269     0.31596
      H   19    0.18481      0.00000     0.31266    0.00253     0.31519
      H   20    0.19140      0.00000     0.30235    0.00625     0.30860
      H   21    0.08808      0.00000     0.41055    0.00137     0.41192
      H   22    0.10390      0.00000     0.39168    0.00442     0.39610
      H   23    0.08272      0.00000     0.41567    0.00160     0.41728
      H   24    0.09128      0.00000     0.40742    0.00130     0.40872
      H   25    0.10013      0.00000     0.39869    0.00118     0.39987
      H   26    0.10019      0.00000     0.39875    0.00106     0.39981
      H   27    0.11255      0.00000     0.38636    0.00109     0.38745
 =======================================================================
   * Total *   -0.00000     12.99436    34.84770    0.15794    48.00000

 Normal termination of Gaussian 16 at Wed Dec  9 22:46:13 2020.
