 Gaussian 16, Revision A.03,

 -----------------------------------------------------------
 # opt freq B3LYP/6-31G(d) empiricaldispersion=gd3bj scf=xqc
 -----------------------------------------------------------

 -------------------------------
 CID_154038519_JID_3413_neutraal
 -------------------------------
 Symbolic Z-matrix:
 Charge =  0 Multiplicity = 1

 SCF Done:  E(RB3LYP) =  -574.195086542     A.U. after   14 cycles
 SCF Done:  E(RB3LYP) =  -574.198756093     A.U. after   12 cycles
 SCF Done:  E(RB3LYP) =  -574.199830426     A.U. after   12 cycles
 SCF Done:  E(RB3LYP) =  -574.201345019     A.U. after   13 cycles
 SCF Done:  E(RB3LYP) =  -574.201908615     A.U. after   12 cycles
 SCF Done:  E(RB3LYP) =  -574.202368213     A.U. after   11 cycles
 SCF Done:  E(RB3LYP) =  -574.202413162     A.U. after   10 cycles
 SCF Done:  E(RB3LYP) =  -574.202426927     A.U. after   10 cycles
 SCF Done:  E(RB3LYP) =  -574.202432725     A.U. after    9 cycles
 SCF Done:  E(RB3LYP) =  -574.202436234     A.U. after   10 cycles
 SCF Done:  E(RB3LYP) =  -574.202437448     A.U. after    9 cycles
 SCF Done:  E(RB3LYP) =  -574.202438452     A.U. after    9 cycles
 SCF Done:  E(RB3LYP) =  -574.202439014     A.U. after    8 cycles
 Optimization completed.
    -- Stationary point found.
 Normal termination of Gaussian 16 at Wed Dec  9 23:11:10 2020.

 --------------------------------------------------------------------
 #N Geom=AllCheck Guess=TCheck SCRF=Check GenChk RB3LYP/6-31G(d) Freq
 --------------------------------------------------------------------

 Structure from the checkpoint file:  "JID_3413.chk"
 -------------------------------
 CID_154038519_JID_3413_neutraal
 -------------------------------
 Charge =  0 Multiplicity = 1

 SCF Done:  E(RB3LYP) =  -574.202439014     A.U. after    1 cycles

  Exact polarizability: 166.291   1.405 145.151   1.355  -1.747  65.499
 Approx polarizability: 235.226  -1.394 242.670  -1.259  -4.707  99.923

                      1                      2                      3
                      A                      A                      A
 Frequencies --     24.8495                57.4646                99.7125
 Red. masses --      3.8605                 2.8324                 3.2249
 Frc consts  --      0.0014                 0.0055                 0.0189
 IR Inten    --      0.2424                 0.3878                 6.6834

                      4                      5                      6
                      A                      A                      A
 Frequencies --    124.3045               148.3374               161.5479
 Red. masses --      2.7841                 4.0696                 1.4538
 Frc consts  --      0.0253                 0.0528                 0.0224
 IR Inten    --      2.3733                 0.7664                 0.8150

                      7                      8                      9
                      A                      A                      A
 Frequencies --    201.1085               212.2623               272.7639
 Red. masses --      1.1741                 1.3398                 2.7294
 Frc consts  --      0.0280                 0.0356                 0.1196
 IR Inten    --      0.0967                 0.3831                 1.8979

                     10                     11                     12
                      A                      A                      A
 Frequencies --    290.7030               305.2385               322.3883
 Red. masses --      2.9413                 3.4012                 2.5734
 Frc consts  --      0.1464                 0.1867                 0.1576
 IR Inten    --      1.9792                 0.3003                 0.5810

                     13                     14                     15
                      A                      A                      A
 Frequencies --    334.5270               402.5544               423.7887
 Red. masses --      3.4023                 1.6268                 2.1655
 Frc consts  --      0.2243                 0.1553                 0.2291
 IR Inten    --      3.9726                50.0726                29.6092

                     16                     17                     18
                      A                      A                      A
 Frequencies --    449.7892               495.1987               507.7197
 Red. masses --      2.6254                 3.5212                 4.4490
 Frc consts  --      0.3129                 0.5087                 0.6757
 IR Inten    --     16.4972                 8.8522                 0.5415

                     19                     20                     21
                      A                      A                      A
 Frequencies --    538.5585               566.6305               624.3188
 Red. masses --      3.7264                 3.5090                 4.8841
 Frc consts  --      0.6368                 0.6638                 1.1216
 IR Inten    --     12.9713                 0.6318                17.1925

                     22                     23                     24
                      A                      A                      A
 Frequencies --    669.4167               708.6261               711.4620
 Red. masses --      3.9265                 3.0877                 2.8427
 Frc consts  --      1.0367                 0.9135                 0.8478
 IR Inten    --      2.2348                10.9580                11.8046

                     25                     26                     27
                      A                      A                      A
 Frequencies --    790.7053               842.1417               867.8486
 Red. masses --      1.6402                 5.1088                 1.4740
 Frc consts  --      0.6042                 2.1347                 0.6541
 IR Inten    --     24.8926                 5.1059                 3.2744

                     28                     29                     30
                      A                      A                      A
 Frequencies --    897.0027               959.5391               961.6440
 Red. masses --      1.4975                 1.3095                 3.7031
 Frc consts  --      0.7099                 0.7104                 2.0177
 IR Inten    --     16.9981                 5.0699                79.6342

                     31                     32                     33
                      A                      A                      A
 Frequencies --    993.0267              1017.9865              1053.5150
 Red. masses --      3.1500                 5.2436                 1.8076
 Frc consts  --      1.8301                 3.2016                 1.1820
 IR Inten    --     34.6904                33.3176                47.9322

                     34                     35                     36
                      A                      A                      A
 Frequencies --   1071.4202              1092.4976              1131.0609
 Red. masses --      1.5290                 1.5170                 2.3203
 Frc consts  --      1.0341                 1.0668                 1.7489
 IR Inten    --      4.4402                24.4493                 5.8605

                     37                     38                     39
                      A                      A                      A
 Frequencies --   1147.9661              1153.4045              1159.0380
 Red. masses --      1.7016                 1.2453                 1.3565
 Frc consts  --      1.3212                 0.9761                 1.0736
 IR Inten    --      1.2665                 1.2819                25.9184

                     40                     41                     42
                      A                      A                      A
 Frequencies --   1208.4764              1225.6222              1292.9511
 Red. masses --      1.5679                 1.1765                 3.0041
 Frc consts  --      1.3491                 1.0412                 2.9589
 IR Inten    --      5.0685                 5.0763                56.2555

                     43                     44                     45
                      A                      A                      A
 Frequencies --   1296.0219              1359.0300              1381.1392
 Red. masses --      3.9079                 2.3871                 2.0725
 Frc consts  --      3.8674                 2.5976                 2.3293
 IR Inten    --     24.9747                 7.3245                10.2100

                     46                     47                     48
                      A                      A                      A
 Frequencies --   1392.2598              1402.3264              1434.8213
 Red. masses --      2.4182                 1.4737                 1.3283
 Frc consts  --      2.7617                 1.7075                 1.6112
 IR Inten    --     60.6458               148.3008                 0.9913

                     49                     50                     51
                      A                      A                      A
 Frequencies --   1472.1323              1492.4880              1508.7606
 Red. masses --      1.1944                 2.2573                 1.0598
 Frc consts  --      1.5251                 2.9625                 1.4214
 IR Inten    --      2.0863                49.2182                 8.6820

                     52                     53                     54
                      A                      A                      A
 Frequencies --   1512.3883              1515.6459              1518.1576
 Red. masses --      1.0530                 1.2079                 1.0995
 Frc consts  --      1.4191                 1.6349                 1.4930
 IR Inten    --      5.6172                10.3411                12.8866

                     55                     56                     57
                      A                      A                      A
 Frequencies --   1521.4294              1543.0388              1554.5497
 Red. masses --      1.1672                 1.1613                 1.8117
 Frc consts  --      1.5918                 1.6291                 2.5795
 IR Inten    --      4.1120                 7.7729                19.1715

                     58                     59                     60
                      A                      A                      A
 Frequencies --   1561.4064              1633.9397              1663.8100
 Red. masses --      1.1075                 4.9162                 5.2447
 Frc consts  --      1.5908                 7.7330                 8.5542
 IR Inten    --     99.5043                40.9091               123.3469

                     61                     62                     63
                      A                      A                      A
 Frequencies --   1712.4460              2990.1818              3004.8838
 Red. masses --      6.2257                 1.0538                 1.0536
 Frc consts  --     10.7565                 5.5514                 5.6053
 IR Inten    --     12.3586                81.2261                67.8397

                     64                     65                     66
                      A                      A                      A
 Frequencies --   3053.5026              3075.1055              3079.1072
 Red. masses --      1.0384                 1.0850                 1.0885
 Frc consts  --      5.7046                 6.0452                 6.0803
 IR Inten    --     16.2275                31.6784                41.5064

                     67                     68                     69
                      A                      A                      A
 Frequencies --   3108.0986              3139.3099              3151.0857
 Red. masses --      1.0999                 1.0989                 1.0961
 Frc consts  --      6.2602                 6.3810                 6.4126
 IR Inten    --     16.8506                 2.8773                48.8531

                     70                     71                     72
                      A                      A                      A
 Frequencies --   3158.8015              3186.6651              3224.9130
 Red. masses --      1.1007                 1.0881                 1.0908
 Frc consts  --      6.4708                 6.5104                 6.6842
 IR Inten    --     13.7878                16.5140                15.8222

                     73                     74                     75
                      A                      A                      A
 Frequencies --   3233.8689              3298.2276              3756.7308
 Red. masses --      1.0915                 1.0888                 1.0676
 Frc consts  --      6.7252                 6.9786                 8.8776
 IR Inten    --     14.7837                 3.1538                67.1403

 - Thermochemistry -
 -------------------
 Temperature   298.150 Kelvin.  Pressure   1.00000 Atm.
 Atom     1 has atomic number  6 and mass  12.00000

 Molecular mass:   178.11061 amu.
 Principal axes and moments of inertia in atomic units:
                           1         2         3
     Eigenvalues --  1374.318483375.472734559.22327
           X            0.99958   0.02827   0.00629
           Y           -0.02824   0.99959  -0.00446
           Z           -0.00642   0.00428   0.99997
 This molecule is an asymmetric top.
 Rotational symmetry number  1.
 Warning -- assumption of classical behavior for rotation
           may cause significant error
 Rotational temperatures (Kelvin)      0.06302     0.02566     0.01900
 Rotational constants (GHZ):           1.31319     0.53466     0.39584
 Zero-point vibrational energy     600856.7 (Joules/Mol)
                                  143.60819 (Kcal/Mol)
 Warning -- explicit consideration of  20 degrees of freedom as
           vibrations may cause significant error
 Vibrational temperatures:     35.75    82.68   143.46   178.85   213.42
          (Kelvin)            232.43   289.35   305.40   392.45   418.26
                              439.17   463.84   481.31   579.19   609.74
                              647.15   712.48   730.50   774.87   815.25
                              898.26   963.14  1019.55  1023.64  1137.65
                             1211.65  1248.64  1290.59  1380.56  1383.59
                             1428.74  1464.66  1515.77  1541.53  1571.86
                             1627.34  1651.67  1659.49  1667.60  1738.73
                             1763.40  1860.27  1864.69  1955.34  1987.15
                             2003.15  2017.63  2064.39  2118.07  2147.36
                             2170.77  2175.99  2180.68  2184.29  2189.00
                             2220.09  2236.65  2246.52  2350.87  2393.85
                             2463.83  4302.20  4323.36  4393.31  4424.39
                             4430.15  4471.86  4516.77  4533.71  4544.81
                             4584.90  4639.93  4652.82  4745.41  5405.10

 Zero-point correction=                           0.228854 (Hartree/Particle)
 Thermal correction to Energy=                    0.242166
 Thermal correction to Enthalpy=                  0.243110
 Thermal correction to Gibbs Free Energy=         0.188628
 Sum of electronic and zero-point Energies=           -573.973585
 Sum of electronic and thermal Energies=              -573.960273
 Sum of electronic and thermal Enthalpies=            -573.959329
 Sum of electronic and thermal Free Energies=         -574.013811

                     E (Thermal)             CV                S
                      KCal/Mol        Cal/Mol-Kelvin    Cal/Mol-Kelvin
 Total                  151.961             49.890            114.667
 Electronic               0.000              0.000              0.000
 Translational            0.889              2.981             41.439
 Rotational               0.889              2.981             31.426
 Vibrational            150.184             43.929             41.803
 Vibration     1          0.593              1.985              6.203
 Vibration     2          0.596              1.975              4.542
 Vibration     3          0.604              1.949              3.460
 Vibration     4          0.610              1.929              3.032
 Vibration     5          0.618              1.904              2.693
 Vibration     6          0.622              1.890              2.532
 Vibration     7          0.638              1.838              2.123
 Vibration     8          0.643              1.822              2.024
 Vibration     9          0.676              1.724              1.579
 Vibration    10          0.687              1.691              1.470
 Vibration    11          0.696              1.664              1.388
 Vibration    12          0.707              1.631              1.298
 Vibration    13          0.716              1.607              1.238
 Vibration    14          0.768              1.465              0.953
 Vibration    15          0.786              1.419              0.879
 Vibration    16          0.809              1.361              0.796
 Vibration    17          0.851              1.261              0.670
 Vibration    18          0.863              1.233              0.639
 Vibration    19          0.894              1.165              0.568
 Vibration    20          0.923              1.103              0.511

                           ! Non-Optimized Parameters !
 Normal termination of Gaussian 16 at Wed Dec  9 23:18:06 2020.

 ----------------------------------------------------------------------
 # B3LYP/6-311++G(d,p) empiricaldispersion=gd3bj scf=xqc pop=npa geom=c
 heck
 ----------------------------------------------------------------------

 ---------------------------------------
 CID_154038519_JID_3413_Energie_neutraal
 ---------------------------------------
 Structure from the checkpoint file:  "JID_3413.chk"
 Charge =  0 Multiplicity = 1

 SCF Done:  E(RB3LYP) =  -574.366611291     A.U. after   16 cycles
 Normal termination of Gaussian 16 at Wed Dec  9 23:21:29 2020.

 ----------------------------------------------------------------------
 # B3LYP/6-311++G(d,p) empiricaldispersion=gd3bj scf=xqc pop=npa geom=c
 heck
 ----------------------------------------------------------------------

 -------------------------------------
 CID_154038519_JID_3413_Energie_kation
 -------------------------------------
 Structure from the checkpoint file:  "JID_3413.chk"
 Charge =  1 Multiplicity = 2

 SCF Done:  E(UB3LYP) =  -574.103155585     A.U. after   24 cycles
 Normal termination of Gaussian 16 at Wed Dec  9 23:28:38 2020.
 Gaussian 16:  ES64L-G16RevA.03 25-Dec-2016

 ----------------------------------------------------------------------
 # B3LYP/6-311++G(d,p) empiricaldispersion=gd3bj scf=xqc pop=npa geom=c
 heck
 ----------------------------------------------------------------------

 ------------------------------------
 CID_154038519_JID_3413_Energie_anion
 ------------------------------------
 Structure from the checkpoint file:  "JID_3413.chk"
 Charge = -1 Multiplicity = 2

                         Standard orientation:
 ---------------------------------------------------------------------
 Center     Atomic      Atomic             Coordinates (Angstroms)
 Number     Number       Type             X           Y           Z
 ---------------------------------------------------------------------
      1          6           0        3.533588    0.728585    0.655510
      2          6           0        2.413897   -0.139537    0.127901
      3          7           0        2.794773   -1.338499   -0.150903
      4          8           0        1.782427   -2.163048   -0.684089
      5          6           0        1.059739    0.458522   -0.000735
      6          6           0       -0.100553   -0.307835    0.168211
      7          6           0       -1.384190    0.268917    0.095513
      8          6           0       -1.474622    1.648866   -0.185746
      9          6           0       -0.321201    2.409269   -0.349275
     10          6           0        0.942508    1.836886   -0.248089
     11          7           0       -2.523143   -0.504179    0.301362
     12          6           0       -2.393295   -1.951154    0.303623
     13          6           0       -3.817790    0.056634   -0.037089
     14          1           0        4.426781    0.119345    0.806920
     15          1           0        3.248976    1.201571    1.601939
     16          1           0        3.782489    1.530559   -0.049536
     17          1           0        2.275953   -2.980002   -0.853439
     18          1           0        0.008942   -1.362997    0.355717
     19          1           0       -2.439452    2.131770   -0.277529
     20          1           0       -0.415448    3.470865   -0.561809
     21          1           0        1.824504    2.452735   -0.378483
     22          1           0       -3.379716   -2.395820    0.448613
     23          1           0       -1.966245   -2.342817   -0.633218
     24          1           0       -1.755299   -2.284912    1.129667
     25          1           0       -4.023411    0.951499    0.561369
     26          1           0       -3.903126    0.332276   -1.101297
     27          1           0       -4.594262   -0.675859    0.191638
 ---------------------------------------------------------------------

 SCF Done:  E(UB3LYP) =  -574.354705731     A.U. after   33 cycles
 SCF Done:  E(UB3LYP) =  -574.354705731     a.u. after    1 cycles

 The electronic state is 2-A.
 Alpha  occ. eigenvalues --  -19.04410 -14.22627 -14.21270 -10.08933 -10.08780
 Alpha  occ. eigenvalues --  -10.08320 -10.08229 -10.06261 -10.05703 -10.05219
 Alpha  occ. eigenvalues --  -10.04299 -10.04087 -10.03839  -0.96089  -0.83119
 Alpha  occ. eigenvalues --   -0.75802  -0.71955  -0.63558  -0.62885  -0.60842
 Alpha  occ. eigenvalues --   -0.60160  -0.54199  -0.49903  -0.46558  -0.43657
 Alpha  occ. eigenvalues --   -0.42163  -0.37347  -0.36679  -0.36000  -0.34933
 Alpha  occ. eigenvalues --   -0.34626  -0.32660  -0.31214  -0.30311  -0.29200
 Alpha  occ. eigenvalues --   -0.28849  -0.28423  -0.27691  -0.27473  -0.26448
 Alpha  occ. eigenvalues --   -0.24953  -0.23734  -0.22621  -0.17647  -0.15539
 Alpha  occ. eigenvalues --   -0.15444  -0.11882  -0.08064   0.04896
 Alpha virt. eigenvalues --    0.06699   0.07596   0.07865   0.08688   0.09293
 Alpha virt. eigenvalues --    0.10451   0.10670   0.11248   0.11753   0.11938
 Alpha virt. eigenvalues --    0.12585   0.13189   0.14035   0.14447   0.14974

  Beta  occ. eigenvalues --  -19.04377 -14.22371 -14.21274 -10.08942 -10.08705
  Beta  occ. eigenvalues --  -10.08283 -10.08184 -10.06263 -10.05618 -10.05231
  Beta  occ. eigenvalues --  -10.04252 -10.03947 -10.03769  -0.95914  -0.83102
  Beta  occ. eigenvalues --   -0.75550  -0.71799  -0.63334  -0.62763  -0.60747
  Beta  occ. eigenvalues --   -0.60078  -0.54080  -0.49599  -0.46472  -0.43551
  Beta  occ. eigenvalues --   -0.42095  -0.37253  -0.36561  -0.35874  -0.34879
  Beta  occ. eigenvalues --   -0.34536  -0.32360  -0.31146  -0.30254  -0.29151
  Beta  occ. eigenvalues --   -0.28787  -0.28328  -0.27477  -0.27217  -0.26382
  Beta  occ. eigenvalues --   -0.24652  -0.23614  -0.22522  -0.17355  -0.15240
  Beta  occ. eigenvalues --   -0.14964  -0.11151  -0.07716
  Beta virt. eigenvalues --    0.07272   0.07851   0.08136   0.08595   0.09094
  Beta virt. eigenvalues --    0.09716   0.10767   0.11176   0.11488   0.11777
  Beta virt. eigenvalues --    0.12265   0.12752   0.13430   0.14196   0.14698

 Mulliken charges and spin densities:
               1          2
     1  C   -0.697734  -0.089120
     2  C   -0.194803  -0.280820
     3  N   -0.237615   0.125461
     4  O   -0.114195   0.000975
     5  C    1.938096  -0.065706
     6  C    0.058939  -0.188461
     7  C   -1.015630   0.610250
     8  C   -0.042532   0.132822
     9  C   -0.043442  -0.403640
    10  C   -0.952206   0.079772
    11  N   -0.174193   0.270153
    12  C    0.423577  -0.838872
    13  C    0.910487  -1.276116
    14  H    0.129242   0.011300
    15  H    0.137593   0.003366
    16  H    0.004987   0.148008
    17  H    0.217005   0.042361
    18  H    0.352916  -0.183169
    19  H    0.127314  -0.019902
    20  H   -0.149313   0.301597
    21  H    0.104426  -0.032615
    22  H   -0.469918   0.607755
    23  H   -0.020111   0.180100
    24  H   -0.102858   0.244230
    25  H   -0.458726   0.606362
    26  H   -0.122898   0.269945
    27  H   -0.608405   0.743962
 Sum of Mulliken charges =  -1.00000   1.00000

 Dipole moment (field-independent basis, Debye):
    X=              6.5094    Y=              0.6340    Z=              0.0050  Tot=              6.5402
 Quadrupole moment (field-independent basis, Debye-Ang):
   XX=           -154.8685   YY=           -107.3282   ZZ=            -99.0925
   XY=             -6.0526   XZ=              4.7784   YZ=              1.4978

 Summary of Natural Population Analysis:

                                       Natural Population
                Natural  -----------------------------------------------
    Atom  No    Charge         Core      Valence    Rydberg      Total
 -----------------------------------------------------------------------
      C    1   -0.29486      0.99963     2.29045    0.00479     3.29486
      C    2    0.11433      0.99959     1.86907    0.01701     2.88567
      N    3   -0.07047      0.99960     2.55619    0.01468     3.57047
      O    4   -0.28755      0.99990     3.28017    0.00748     4.28755
      C    5   -0.03350      0.99948     2.02368    0.01034     3.03350
      C    6   -0.10164      0.99950     2.09317    0.00897     3.10164
      C    7    0.09195      0.99949     1.89743    0.01113     2.90805
      C    8   -0.10537      0.99953     2.09659    0.00924     3.10537
      C    9   -0.10200      0.99957     2.09266    0.00977     3.10200
      C   10   -0.11033      0.99953     2.10192    0.00888     3.11033
      N   11   -0.25438      0.99966     2.74299    0.01173     3.75438
      C   12   -0.17354      0.99964     2.16559    0.00831     3.17354
      C   13   -0.17348      0.99964     2.16515    0.00868     3.17348
      H   14    0.10523      0.00000     0.39312    0.00164     0.39477
      H   15    0.10041      0.00000     0.39850    0.00109     0.39959
      H   16    0.09924      0.00000     0.39904    0.00172     0.40076
      H   17    0.22750      0.00000     0.26893    0.00357     0.27250
      H   18    0.11229      0.00000     0.38587    0.00184     0.38771
      H   19    0.09984      0.00000     0.39901    0.00115     0.40016
      H   20    0.09490      0.00000     0.40427    0.00083     0.40510
      H   21    0.09568      0.00000     0.40329    0.00104     0.40432
      H   22    0.09899      0.00000     0.39970    0.00132     0.40101
      H   23    0.09050      0.00000     0.40817    0.00133     0.40950
      H   24    0.09368      0.00000     0.40505    0.00127     0.40632
      H   25    0.09580      0.00000     0.40239    0.00181     0.40420
      H   26    0.08698      0.00000     0.41136    0.00165     0.41302
      H   27    0.09980      0.00000     0.39843    0.00177     0.40020
 =======================================================================
   * Total *   -0.00000     12.99477    34.85219    0.15304    48.00000

 Normal termination of Gaussian 16 at Wed Dec  9 23:38:35 2020.
