 Gaussian 16, Revision A.03,

 -----------------------------------------------------------
 # opt freq B3LYP/6-31G(d) empiricaldispersion=gd3bj scf=xqc
 -----------------------------------------------------------

 -------------------------------
 CID_64148928_JID_10985_neutraal
 -------------------------------
 Symbolic Z-matrix:
 Charge =  0 Multiplicity = 1

 SCF Done:  E(RB3LYP) =  -1273.87232388     A.U. after   15 cycles
 SCF Done:  E(RB3LYP) =  -1273.88115610     A.U. after   13 cycles
 SCF Done:  E(RB3LYP) =  -1273.88334672     A.U. after   12 cycles
 SCF Done:  E(RB3LYP) =  -1273.88416358     A.U. after   12 cycles
 SCF Done:  E(RB3LYP) =  -1273.88467001     A.U. after   12 cycles
 SCF Done:  E(RB3LYP) =  -1273.88484484     A.U. after   12 cycles
 SCF Done:  E(RB3LYP) =  -1273.88490635     A.U. after   10 cycles
 SCF Done:  E(RB3LYP) =  -1273.88493637     A.U. after   10 cycles
 SCF Done:  E(RB3LYP) =  -1273.88495593     A.U. after   11 cycles
 SCF Done:  E(RB3LYP) =  -1273.88496998     A.U. after   11 cycles
 SCF Done:  E(RB3LYP) =  -1273.89639515     A.U. after   10 cycles
 SCF Done:  E(RB3LYP) =  -1273.89640236     A.U. after   11 cycles
 SCF Done:  E(RB3LYP) =  -1273.89640808     A.U. after   10 cycles
 SCF Done:  E(RB3LYP) =  -1273.89640816     A.U. after    9 cycles
 SCF Done:  E(RB3LYP) =  -1273.89640841     A.U. after    9 cycles
 Optimization completed.
    -- Stationary point found.
 Normal termination of Gaussian 16 at Sat Dec 12 17:03:50 2020.

 --------------------------------------------------------------------
 #N Geom=AllCheck Guess=TCheck SCRF=Check GenChk RB3LYP/6-31G(d) Freq
 --------------------------------------------------------------------

 Structure from the checkpoint file:  "JID_10985.chk"
 -------------------------------
 CID_64148928_JID_10985_neutraal
 -------------------------------
 Charge =  0 Multiplicity = 1

 SCF Done:  E(RB3LYP) =  -1273.89640841     A.U. after    1 cycles

  Exact polarizability: 256.544   3.599 198.651  14.075  -9.300 107.969
 Approx polarizability: 346.732   1.840 317.874  31.947 -24.779 180.027

                      1                      2                      3
                      A                      A                      A
 Frequencies --     21.0061                31.2879                54.3236
 Red. masses --      4.8269                 2.8116                 3.7892
 Frc consts  --      0.0013                 0.0016                 0.0066
 IR Inten    --      0.6968                 0.0146                 0.6560

                      4                      5                      6
                      A                      A                      A
 Frequencies --     60.1816                70.5239                91.7016
 Red. masses --      4.7213                 4.0567                 4.8986
 Frc consts  --      0.0101                 0.0119                 0.0243
 IR Inten    --      1.2325                 0.5425                 4.7545

                      7                      8                      9
                      A                      A                      A
 Frequencies --    122.9443               136.9077               148.1485
 Red. masses --      4.4844                 1.1113                 3.3080
 Frc consts  --      0.0399                 0.0123                 0.0428
 IR Inten    --      2.0040                 0.0068                 1.2156

                     10                     11                     12
                      A                      A                      A
 Frequencies --    159.7902               168.0714               207.6280
 Red. masses --      1.8458                 1.9184                 2.3148
 Frc consts  --      0.0278                 0.0319                 0.0588
 IR Inten    --      0.8263                 2.0832                 1.5969

                     13                     14                     15
                      A                      A                      A
 Frequencies --    229.5705               244.9026               265.1628
 Red. masses --      1.5011                 5.2157                 4.9664
 Frc consts  --      0.0466                 0.1843                 0.2057
 IR Inten    --      0.9588                 8.4722                 0.9205

                     16                     17                     18
                      A                      A                      A
 Frequencies --    280.3603               301.5147               309.1366
 Red. masses --      3.6101                 2.5426                 2.4754
 Frc consts  --      0.1672                 0.1362                 0.1394
 IR Inten    --      0.4246                 0.3920                 1.1949

                     19                     20                     21
                      A                      A                      A
 Frequencies --    320.5470               338.3754               353.3637
 Red. masses --      2.9103                 7.6008                 2.3681
 Frc consts  --      0.1762                 0.5127                 0.1742
 IR Inten    --      3.3004                 3.4533                16.1900

                     22                     23                     24
                      A                      A                      A
 Frequencies --    378.6850               409.5766               425.7150
 Red. masses --      4.1757                 1.6251                 5.2460
 Frc consts  --      0.3528                 0.1606                 0.5602
 IR Inten    --      1.9314                14.8354                 3.8732

                     25                     26                     27
                      A                      A                      A
 Frequencies --    446.1408               460.8552               466.0576
 Red. masses --      3.9595                 3.3168                 4.5436
 Frc consts  --      0.4643                 0.4150                 0.5815
 IR Inten    --     10.3406                18.6576                 3.9139

                     28                     29                     30
                      A                      A                      A
 Frequencies --    487.5082               528.7617               556.8974
 Red. masses --      2.5626                 5.8566                 3.6432
 Frc consts  --      0.3588                 0.9648                 0.6657
 IR Inten    --     24.4637                27.7269                 8.9142

                     31                     32                     33
                      A                      A                      A
 Frequencies --    587.4404               605.4846               632.5598
 Red. masses --      6.5550                 4.5277                 4.0073
 Frc consts  --      1.3328                 0.9780                 0.9447
 IR Inten    --     46.0840               137.7931                 2.9227

                     34                     35                     36
                      A                      A                      A
 Frequencies --    645.7007               672.0212               715.9259
 Red. masses --      4.4891                 4.0762                 2.3777
 Frc consts  --      1.1027                 1.0846                 0.7180
 IR Inten    --     26.2027                54.4517                42.0901

                     37                     38                     39
                      A                      A                      A
 Frequencies --    721.1240               729.1946               766.5828
 Red. masses --      3.8949                 4.2374                 3.7424
 Frc consts  --      1.1934                 1.3275                 1.2958
 IR Inten    --      9.3237                 4.1387                17.3151

                     40                     41                     42
                      A                      A                      A
 Frequencies --    772.5272               806.8742               847.8942
 Red. masses --      2.0289                 1.2912                 1.8077
 Frc consts  --      0.7134                 0.4953                 0.7657
 IR Inten    --    191.3358                 3.6089                54.2428

                     43                     44                     45
                      A                      A                      A
 Frequencies --    861.3682               869.1622               875.0636
 Red. masses --      1.4235                 1.3856                 2.6075
 Frc consts  --      0.6223                 0.6167                 1.1764
 IR Inten    --      1.4794                70.3024               101.6039

                     46                     47                     48
                      A                      A                      A
 Frequencies --    899.5378               927.8466               971.4670
 Red. masses --      1.5606                 1.3285                 2.6882
 Frc consts  --      0.7440                 0.6738                 1.4947
 IR Inten    --     49.2625               169.2101                 8.5057

                     49                     50                     51
                      A                      A                      A
 Frequencies --   1002.8904              1033.5052              1036.5531
 Red. masses --      4.6177                 1.3962                 3.8598
 Frc consts  --      2.7364                 0.8787                 2.4434
 IR Inten    --      1.6053                25.1885                21.1595

                     52                     53                     54
                      A                      A                      A
 Frequencies --   1040.7584              1059.3415              1084.4843
 Red. masses --      1.5650                 1.4213                 1.5728
 Frc consts  --      0.9987                 0.9398                 1.0899
 IR Inten    --      0.4456                 5.2891                 0.0388

                     55                     56                     57
                      A                      A                      A
 Frequencies --   1087.6366              1104.8864              1119.3866
 Red. masses --      1.8022                 1.6424                 5.1420
 Frc consts  --      1.2561                 1.1813                 3.7961
 IR Inten    --     13.0514                 8.7934                92.5387

                     58                     59                     60
                      A                      A                      A
 Frequencies --   1123.7515              1154.5768              1172.1622
 Red. masses --      6.1470                 1.4659                 1.8435
 Frc consts  --      4.5736                 1.1513                 1.4923
 IR Inten    --     59.2051                 2.9035                86.5177

                     61                     62                     63
                      A                      A                      A
 Frequencies --   1229.1529              1249.9123              1252.0804
 Red. masses --      1.6776                 3.0674                 2.8930
 Frc consts  --      1.4934                 2.8235                 2.6721
 IR Inten    --     14.0076                43.9403                23.0505

                     64                     65                     66
                      A                      A                      A
 Frequencies --   1285.6437              1294.8911              1317.1985
 Red. masses --      1.6723                 1.6632                 1.6771
 Frc consts  --      1.6286                 1.6431                 1.7144
 IR Inten    --      4.3718                19.4914                14.4299

                     67                     68                     69
                      A                      A                      A
 Frequencies --   1329.4608              1337.9308              1359.9414
 Red. masses --      2.6133                 3.9172                 1.5601
 Frc consts  --      2.7214                 4.1314                 1.7000
 IR Inten    --     74.5156                23.5149                23.8350

                     70                     71                     72
                      A                      A                      A
 Frequencies --   1365.6371              1388.5336              1416.3131
 Red. masses --      4.5253                 2.1619                 3.2421
 Frc consts  --      4.9724                 2.4558                 3.8317
 IR Inten    --     66.0960                37.8925                 2.1803

                     73                     74                     75
                      A                      A                      A
 Frequencies --   1439.8104              1444.8471              1452.5780
 Red. masses --      1.2583                 1.3177                 1.2291
 Frc consts  --      1.5369                 1.6207                 1.5279
 IR Inten    --      0.1128                 1.7373                 0.2830

                     76                     77                     78
                      A                      A                      A
 Frequencies --   1468.8580              1470.7701              1506.2114
 Red. masses --      2.8541                 2.7097                 1.0451
 Frc consts  --      3.6281                 3.4535                 1.3969
 IR Inten    --     31.1225                 9.6947                 0.0215

                     79                     80                     81
                      A                      A                      A
 Frequencies --   1511.2560              1517.1948              1521.7993
 Red. masses --      1.2309                 2.9014                 1.0443
 Frc consts  --      1.6563                 3.9350                 1.4250
 IR Inten    --      6.2256                50.3053                14.6501

                     82                     83                     84
                      A                      A                      A
 Frequencies --   1524.8275              1527.3442              1532.7482
 Red. masses --      1.1870                 1.1892                 1.0734
 Frc consts  --      1.6262                 1.6344                 1.4858
 IR Inten    --      6.9433                16.8429                13.3786

                     85                     86                     87
                      A                      A                      A
 Frequencies --   1537.6033              1560.2606              1606.3718
 Red. masses --      1.1359                 2.7853                 3.0090
 Frc consts  --      1.5823                 3.9950                 4.5747
 IR Inten    --     13.4154                72.2460                31.4068

                     88                     89                     90
                      A                      A                      A
 Frequencies --   1643.3552              1661.0216              1685.5406
 Red. masses --      4.6202                 1.4185                 3.5578
 Frc consts  --      7.3515                 2.3058                 5.9554
 IR Inten    --      8.8608                42.4167                46.8317

                     91                     92                     93
                      A                      A                      A
 Frequencies --   3038.2671              3042.1306              3043.0094
 Red. masses --      1.0390                 1.0381                 1.0701
 Frc consts  --      5.6508                 5.6605                 5.8382
 IR Inten    --     34.6782                39.0182                20.8047

                     94                     95                     96
                      A                      A                      A
 Frequencies --   3051.9552              3085.2670              3091.0701
 Red. masses --      1.0361                 1.1003                 1.1002
 Frc consts  --      5.6862                 6.1708                 6.1933
 IR Inten    --     22.1527                25.4248                12.1304

                     97                     98                     99
                      A                      A                      A
 Frequencies --   3109.3110              3129.6272              3129.6522
 Red. masses --      1.0975                 1.1001                 1.0998
 Frc consts  --      6.2513                 6.3485                 6.3469
 IR Inten    --     12.0009                14.8733                56.3540

                    100                    101                    102
                      A                      A                      A
 Frequencies --   3131.0000              3131.3390              3170.6178
 Red. masses --      1.0998                 1.1002                 1.0899
 Frc consts  --      6.3524                 6.3559                 6.4553
 IR Inten    --      1.9685                24.8663                20.6193

                    103                    104                    105
                      A                      A                      A
 Frequencies --   3186.6609              3286.1354              3411.7017
 Red. masses --      1.0909                 1.0976                 1.0858
 Frc consts  --      6.5268                 6.9832                 7.4462
 IR Inten    --      6.9833                 0.3838               503.5737

                    106                    107                    108
                      A                      A                      A
 Frequencies --   3489.9466              3522.6034              3594.5334
 Red. masses --      1.0506                 1.0749                 1.0941
 Frc consts  --      7.5389                 7.8586                 8.3293
 IR Inten    --     15.7984                33.2922                11.6660

 - Thermochemistry -
 -------------------
 Temperature   298.150 Kelvin.  Pressure   1.00000 Atm.
 Atom     1 has atomic number  6 and mass  12.00000

 Molecular mass:   294.11505 amu.
 Principal axes and moments of inertia in atomic units:
                           1         2         3
     Eigenvalues --  3268.865939199.09330**********
           X            0.99984   0.01695   0.00528
           Y           -0.01692   0.99984  -0.00570
           Z           -0.00537   0.00561   0.99997
 This molecule is an asymmetric top.
 Rotational symmetry number  1.
 Warning -- assumption of classical behavior for rotation
           may cause significant error
 Rotational temperatures (Kelvin)      0.02650     0.00942     0.00738
 Rotational constants (GHZ):           0.55210     0.19619     0.15378
 Zero-point vibrational energy     813982.7 (Joules/Mol)
                                  194.54653 (Kcal/Mol)
 Warning -- explicit consideration of  32 degrees of freedom as
           vibrations may cause significant error
 Vibrational temperatures:     30.22    45.02    78.16    86.59   101.47
          (Kelvin)            131.94   176.89   196.98   213.15   229.90
                              241.82   298.73   330.30   352.36   381.51
                              403.38   433.81   444.78   461.20   486.85
                              508.41   544.84   589.29   612.51   641.90
                              663.07   670.55   701.42   760.77   801.25
                              845.20   871.16   910.11   929.02   966.89
                             1030.06  1037.54  1049.15  1102.94  1111.49
                             1160.91  1219.93  1239.32  1250.53  1259.02
                             1294.23  1334.96  1397.72  1442.94  1486.98
                             1491.37  1497.42  1524.16  1560.33  1564.87
                             1589.69  1610.55  1616.83  1661.18  1686.48
                             1768.48  1798.35  1801.46  1849.75  1863.06
                             1895.15  1912.80  1924.98  1956.65  1964.85
                             1997.79  2037.76  2071.57  2078.81  2089.94
                             2113.36  2116.11  2167.10  2174.36  2182.90
                             2189.53  2193.89  2197.51  2205.28  2212.27
                             2244.87  2311.21  2364.42  2389.84  2425.12
                             4371.39  4376.95  4378.21  4391.08  4439.01
                             4447.36  4473.61  4502.84  4502.87  4504.81
                             4505.30  4561.81  4584.89  4728.02  4908.68
                             5021.25  5068.24  5171.73

 Zero-point correction=                           0.310030 (Hartree/Particle)
 Thermal correction to Energy=                    0.330009
 Thermal correction to Enthalpy=                  0.330953
 Thermal correction to Gibbs Free Energy=         0.260595
 Sum of electronic and zero-point Energies=          -1273.586379
 Sum of electronic and thermal Energies=             -1273.566400
 Sum of electronic and thermal Enthalpies=           -1273.565455
 Sum of electronic and thermal Free Energies=        -1273.635814

                     E (Thermal)             CV                S
                      KCal/Mol        Cal/Mol-Kelvin    Cal/Mol-Kelvin
 Total                  207.084             75.627            148.082
 Electronic               0.000              0.000              0.000
 Translational            0.889              2.981             42.934
 Rotational               0.889              2.981             34.222
 Vibrational            205.306             69.665             70.926
 Vibration     1          0.593              1.986              6.537
 Vibration     2          0.594              1.983              5.746
 Vibration     3          0.596              1.976              4.653
 Vibration     4          0.597              1.973              4.451
 Vibration     5          0.598              1.968              4.139
 Vibration     6          0.602              1.955              3.623
 Vibration     7          0.610              1.930              3.054
 Vibration     8          0.614              1.916              2.847
 Vibration     9          0.618              1.905              2.696
 Vibration    10          0.622              1.892              2.552
 Vibration    11          0.625              1.882              2.457
 Vibration    12          0.641              1.829              2.064
 Vibration    13          0.652              1.796              1.882
 Vibration    14          0.660              1.771              1.767
 Vibration    15          0.671              1.737              1.628
 Vibration    16          0.680              1.710              1.531
 Vibration    17          0.694              1.671              1.408
 Vibration    18          0.698              1.656              1.367
 Vibration    19          0.706              1.634              1.307
 Vibration    20          0.719              1.599              1.220
 Vibration    21          0.730              1.568              1.151
 Vibration    22          0.749              1.516              1.044
 Vibration    23          0.774              1.449              0.928
 Vibration    24          0.788              1.414              0.873
 Vibration    25          0.805              1.369              0.808
 Vibration    26          0.819              1.337              0.764
 Vibration    27          0.823              1.325              0.749
 Vibration    28          0.843              1.278              0.690
 Vibration    29          0.884              1.186              0.590
 Vibration    30          0.912              1.125              0.530
 Vibration    31          0.945              1.059              0.472
 Vibration    32          0.964              1.020              0.440

                           ! Non-Optimized Parameters !
 Normal termination of Gaussian 16 at Sat Dec 12 17:21:58 2020.

 ----------------------------------------------------------------------
 # B3LYP/6-311++G(d,p) empiricaldispersion=gd3bj scf=xqc pop=npa geom=c
 heck
 ----------------------------------------------------------------------

 ---------------------------------------
 CID_64148928_JID_10985_Energie_neutraal
 ---------------------------------------
 Structure from the checkpoint file:  "JID_10985.chk"
 Charge =  0 Multiplicity = 1

 SCF Done:  E(RB3LYP) =  -1274.16933987     A.U. after   16 cycles
 Normal termination of Gaussian 16 at Sat Dec 12 17:29:34 2020.

 ----------------------------------------------------------------------
 # B3LYP/6-311++G(d,p) empiricaldispersion=gd3bj scf=xqc pop=npa geom=c
 heck
 ----------------------------------------------------------------------

 -------------------------------------
 CID_64148928_JID_10985_Energie_kation
 -------------------------------------
 Structure from the checkpoint file:  "JID_10985.chk"
 Charge =  1 Multiplicity = 2

 SCF Done:  E(UB3LYP) =  -1273.88075453     A.U. after   26 cycles
 Normal termination of Gaussian 16 at Sat Dec 12 17:46:14 2020.
 Gaussian 16:  ES64L-G16RevA.03 25-Dec-2016

 ----------------------------------------------------------------------
 # B3LYP/6-311++G(d,p) empiricaldispersion=gd3bj scf=xqc pop=npa geom=c
 heck
 ----------------------------------------------------------------------

 ------------------------------------
 CID_64148928_JID_10985_Energie_anion
 ------------------------------------
 Structure from the checkpoint file:  "JID_10985.chk"
 Charge = -1 Multiplicity = 2

                         Standard orientation:
 ---------------------------------------------------------------------
 Center     Atomic      Atomic             Coordinates (Angstroms)
 Number     Number       Type             X           Y           Z
 ---------------------------------------------------------------------
      1          6           0       -3.498909   -3.110554   -0.332913
      2          6           0       -4.152648   -2.052914    0.569858
      3          6           0       -3.619619   -0.672815    0.347668
      4          7           0       -4.348108    0.408031    0.091433
      5          6           0       -3.457086    1.438343   -0.062435
      6          6           0       -2.172416    0.969416    0.098784
      7          7           0       -2.287797   -0.376812    0.382294
      8         16           0       -0.650229    1.825959    0.139230
      9          8           0       -0.912978    3.185315   -0.339807
     10          8           0        0.004852    1.556053    1.418379
     11          7           0        0.288598    1.060406   -1.104889
     12          6           0        1.436840    0.315148   -0.679969
     13          6           0        1.302529   -1.071324   -0.523592
     14          6           0        2.410074   -1.808486   -0.094264
     15          6           0        3.638197   -1.202038    0.168710
     16          6           0        3.775846    0.192284   -0.000800
     17          6           0        2.664177    0.923375   -0.414590
     18          6           0        5.087359    0.882867    0.276076
     19          6           0        4.807313   -2.035692    0.628385
     20          7           0        0.051807   -1.686198   -0.761740
     21          1           0       -3.640632   -2.862720   -1.390312
     22          1           0       -3.937712   -4.096747   -0.151070
     23          1           0       -2.421727   -3.187350   -0.143733
     24          1           0       -5.229963   -2.006116    0.389801
     25          1           0       -4.016936   -2.335961    1.622631
     26          1           0       -3.765496    2.452395   -0.270763
     27          1           0       -1.499675   -1.029446    0.405194
     28          1           0        0.500274    1.796276   -1.776530
     29          1           0        2.310712   -2.884663    0.031409
     30          1           0        2.741300    2.002082   -0.525305
     31          1           0        5.009213    1.959233    0.098651
     32          1           0        5.408465    0.739663    1.315599
     33          1           0        5.893877    0.495995   -0.360172
     34          1           0        5.658233   -1.949730   -0.059044
     35          1           0        5.165320   -1.712441    1.613872
     36          1           0        4.538299   -3.093385    0.700086
     37          1           0        0.141933   -2.672672   -0.984880
     38          1           0       -0.448249   -1.204343   -1.506899
 ---------------------------------------------------------------------

 SCF Done:  E(UB3LYP) =  -1274.16692527     A.U. after   33 cycles
 SCF Done:  E(UB3LYP) =  -1274.16692527     a.u. after    1 cycles

 The electronic state is 2-A.
 Alpha  occ. eigenvalues --  -88.97905 -19.03488 -19.03294 -14.27504 -14.26022
 Alpha  occ. eigenvalues --  -14.23262 -14.21034 -10.14740 -10.13359 -10.12534
 Alpha  occ. eigenvalues --  -10.11991 -10.11123 -10.09719 -10.09315 -10.09131
 Alpha  occ. eigenvalues --  -10.08963 -10.08923 -10.08507 -10.08100 -10.07300
 Alpha  occ. eigenvalues --   -8.04066  -6.00343  -6.00303  -6.00182  -1.03543
 Alpha  occ. eigenvalues --   -0.93450  -0.92725  -0.85772  -0.81902  -0.78900
 Alpha  occ. eigenvalues --   -0.76481  -0.71479  -0.68316  -0.67686  -0.65986
 Alpha  occ. eigenvalues --   -0.61528  -0.59639  -0.58086  -0.54723  -0.52992
 Alpha  occ. eigenvalues --   -0.51881  -0.50431  -0.48866  -0.46225  -0.44211
 Alpha  occ. eigenvalues --   -0.43306  -0.42045  -0.40373  -0.39584  -0.37302
 Alpha  occ. eigenvalues --   -0.37034  -0.36779  -0.35531  -0.35437  -0.35099
 Alpha  occ. eigenvalues --   -0.34656  -0.34171  -0.33275  -0.32050  -0.30895
 Alpha  occ. eigenvalues --   -0.30805  -0.29481  -0.28858  -0.28212  -0.27597
 Alpha  occ. eigenvalues --   -0.26582  -0.26356  -0.26216  -0.24551  -0.24158
 Alpha  occ. eigenvalues --   -0.23120  -0.22580  -0.20984  -0.20116  -0.19064
 Alpha  occ. eigenvalues --   -0.15940  -0.15010  -0.12789   0.03580
 Alpha virt. eigenvalues --    0.05405   0.05899   0.06721   0.07072   0.07380
 Alpha virt. eigenvalues --    0.08173   0.08388   0.08790   0.09214   0.09422
 Alpha virt. eigenvalues --    0.09629   0.10148   0.10799   0.11219   0.11408

  Beta  occ. eigenvalues --  -88.97891 -19.03475 -19.03281 -14.27458 -14.25981
  Beta  occ. eigenvalues --  -14.23204 -14.21043 -10.14703 -10.13336 -10.12500
  Beta  occ. eigenvalues --  -10.11978 -10.11105 -10.09698 -10.09308 -10.09121
  Beta  occ. eigenvalues --  -10.08962 -10.08914 -10.08489 -10.08088 -10.07242
  Beta  occ. eigenvalues --   -8.04052  -6.00315  -6.00286  -6.00169  -1.03501
  Beta  occ. eigenvalues --   -0.93395  -0.92699  -0.85708  -0.81817  -0.78851
  Beta  occ. eigenvalues --   -0.76440  -0.71410  -0.68264  -0.67643  -0.65916
  Beta  occ. eigenvalues --   -0.61480  -0.59583  -0.58009  -0.54653  -0.52953
  Beta  occ. eigenvalues --   -0.51825  -0.50375  -0.48799  -0.46159  -0.44157
  Beta  occ. eigenvalues --   -0.43247  -0.41986  -0.40305  -0.39539  -0.37267
  Beta  occ. eigenvalues --   -0.36973  -0.36694  -0.35477  -0.35393  -0.35058
  Beta  occ. eigenvalues --   -0.34616  -0.34130  -0.33202  -0.32020  -0.30864
  Beta  occ. eigenvalues --   -0.30774  -0.29393  -0.28784  -0.28158  -0.27544
  Beta  occ. eigenvalues --   -0.26539  -0.26316  -0.26175  -0.24492  -0.24101
  Beta  occ. eigenvalues --   -0.23076  -0.22517  -0.20921  -0.19977  -0.19057
  Beta  occ. eigenvalues --   -0.15876  -0.14823  -0.12674
  Beta virt. eigenvalues --    0.05487   0.05978   0.06452   0.07068   0.07531
  Beta virt. eigenvalues --    0.07672   0.08567   0.08795   0.09088   0.09328
  Beta virt. eigenvalues --    0.09571   0.09731   0.10450   0.10929   0.11303

 Mulliken charges and spin densities:
               1          2
     1  C    0.776151  -1.198281
     2  C   -1.832436   1.439866
     3  C    0.828012  -0.978050
     4  N   -0.122138   0.006234
     5  C   -0.154888   0.322246
     6  C   -0.873475  -0.185041
     7  N    0.058325   0.047337
     8  S    1.097578  -0.423910
     9  O   -0.168272   0.001840
    10  O   -0.064247   0.008654
    11  N   -0.165283  -0.015743
    12  C   -0.385815  -0.069191
    13  C    0.759133  -1.366233
    14  C    0.185971  -0.804343
    15  C   -0.400333   0.854181
    16  C   -0.292992   1.150374
    17  C   -0.657375   0.527408
    18  C    0.065258  -0.554703
    19  C    1.027631  -1.617349
    20  N   -0.333460  -0.009223
    21  H   -0.202000   0.343789
    22  H   -0.508110   0.670886
    23  H    0.078391   0.066632
    24  H    0.173998  -0.016825
    25  H   -0.047007   0.214952
    26  H    0.179057   0.018720
    27  H    0.430442  -0.016732
    28  H    0.263977   0.082940
    29  H   -0.720346   0.838795
    30  H    0.134643  -0.013384
    31  H    0.068472   0.078202
    32  H    0.102222   0.044992
    33  H    0.041296   0.104990
    34  H    0.037560   0.105777
    35  H    0.020490   0.128404
    36  H   -0.149807   0.318456
    37  H   -0.285863   0.606042
    38  H    0.035240   0.287287
 Sum of Mulliken charges =  -1.00000   1.00000

 Dipole moment (field-independent basis, Debye):
    X=              2.9267    Y=              5.9223    Z=             -0.1300  Tot=              6.6072
 Quadrupole moment (field-independent basis, Debye-Ang):
   XX=           -196.5250   YY=           -195.8922   ZZ=           -154.5828
   XY=              1.9575   XZ=             -3.1824   YZ=             -8.9667

 Summary of Natural Population Analysis:

                                       Natural Population
                Natural  -----------------------------------------------
    Atom  No    Charge         Core      Valence    Rydberg      Total
 -----------------------------------------------------------------------
      C    1   -0.28276      0.99967     2.27790    0.00520     3.28276
      C    2   -0.21244      0.99960     2.20411    0.00873     3.21244
      C    3    0.21153      0.99962     1.76964    0.01921     2.78847
      N    4   -0.26243      0.99970     2.75365    0.00907     3.76243
      C    5   -0.00548      0.99951     1.99294    0.01304     3.00548
      C    6   -0.08801      0.99939     2.07077    0.01785     3.08801
      N    7   -0.27525      0.99961     2.76709    0.00855     3.77525
      S    8    1.09726      4.99917     1.80216    0.10140     6.90274
      O    9   -0.46291      0.99991     3.45802    0.00498     4.46291
      O   10   -0.44736      0.99990     3.44213    0.00533     4.44736
      N   11   -0.43208      0.99972     2.91928    0.01309     3.93208
      C   12    0.04256      0.99941     1.94461    0.01342     2.95744
      C   13    0.09263      0.99942     1.89587    0.01209     2.90737
      C   14   -0.11288      0.99948     2.10368    0.00973     3.11288
      C   15    0.00111      0.99949     1.99005    0.00936     2.99889
      C   16   -0.03043      0.99948     2.02170    0.00926     3.03043
      C   17   -0.08722      0.99947     2.08006    0.00768     3.08722
      C   18   -0.29075      0.99964     2.28670    0.00440     3.29075
      C   19   -0.29332      0.99964     2.28901    0.00468     3.29332
      N   20   -0.41448      0.99973     2.90338    0.01138     3.91448
      H   21    0.09970      0.00000     0.39874    0.00156     0.40030
      H   22    0.10208      0.00000     0.39660    0.00132     0.39792
      H   23    0.10026      0.00000     0.39755    0.00220     0.39974
      H   24    0.10918      0.00000     0.38939    0.00143     0.39082
      H   25    0.10556      0.00000     0.39334    0.00111     0.39444
      H   26    0.10383      0.00000     0.39518    0.00099     0.39617
      H   27    0.22496      0.00000     0.27194    0.00309     0.27504
      H   28    0.19939      0.00000     0.29889    0.00172     0.30061
      H   29    0.10305      0.00000     0.39498    0.00197     0.39695
      H   30    0.09836      0.00000     0.40014    0.00150     0.40164
      H   31    0.10077      0.00000     0.39845    0.00078     0.39923
      H   32    0.10192      0.00000     0.39682    0.00125     0.39808
      H   33    0.10138      0.00000     0.39723    0.00139     0.39862
      H   34    0.10252      0.00000     0.39628    0.00120     0.39748
      H   35    0.10355      0.00000     0.39520    0.00125     0.39645
      H   36    0.10530      0.00000     0.39377    0.00092     0.39470
      H   37    0.19584      0.00000     0.29699    0.00717     0.30416
      H   38    0.19507      0.00000     0.30207    0.00286     0.30493
 =======================================================================
   * Total *    0.00000     23.99154    53.68629    0.32217    78.00000

 Normal termination of Gaussian 16 at Sat Dec 12 18:07:37 2020.
