 Gaussian 16, Revision A.03,

 -----------------------------------------------------------
 # opt freq B3LYP/6-31G(d) empiricaldispersion=gd3bj scf=xqc
 -----------------------------------------------------------

 -------------------------------
 CID_116827973_JID_5784_neutraal
 -------------------------------
 Symbolic Z-matrix:
 Charge =  0 Multiplicity = 1

 SCF Done:  E(RB3LYP) =  -959.829190666     A.U. after   15 cycles
 SCF Done:  E(RB3LYP) =  -959.831447147     A.U. after   12 cycles
 SCF Done:  E(RB3LYP) =  -959.831919024     A.U. after   12 cycles
 SCF Done:  E(RB3LYP) =  -959.832559155     A.U. after   12 cycles
 SCF Done:  E(RB3LYP) =  -959.832884664     A.U. after   12 cycles
 SCF Done:  E(RB3LYP) =  -959.832857084     A.U. after   12 cycles
 SCF Done:  E(RB3LYP) =  -959.833041387     A.U. after   12 cycles
 SCF Done:  E(RB3LYP) =  -959.833234513     A.U. after   12 cycles
 SCF Done:  E(RB3LYP) =  -959.833234642     A.U. after   11 cycles
 SCF Done:  E(RB3LYP) =  -959.833244683     A.U. after   10 cycles
 SCF Done:  E(RB3LYP) =  -959.833248712     A.U. after    9 cycles
 SCF Done:  E(RB3LYP) =  -959.833249226     A.U. after    9 cycles
 SCF Done:  E(RB3LYP) =  -959.833249260     A.U. after    8 cycles
 SCF Done:  E(RB3LYP) =  -959.833249302     A.U. after    7 cycles
 Optimization completed.
    -- Stationary point found.
 Normal termination of Gaussian 16 at Thu Dec 10 16:56:47 2020.

 --------------------------------------------------------------------
 #N Geom=AllCheck Guess=TCheck SCRF=Check GenChk RB3LYP/6-31G(d) Freq
 --------------------------------------------------------------------

 Structure from the checkpoint file:  "JID_5784.chk"
 -------------------------------
 CID_116827973_JID_5784_neutraal
 -------------------------------
 Charge =  0 Multiplicity = 1

 SCF Done:  E(RB3LYP) =  -959.833249302     A.U. after    1 cycles

  Exact polarizability: 231.220   1.708 147.431   1.886 -12.597 118.074
 Approx polarizability: 289.871  10.167 236.846   4.635 -36.746 195.487

                      1                      2                      3
                      A                      A                      A
 Frequencies --     27.4664                42.4601                58.3160
 Red. masses --      3.3266                 3.8605                 3.2679
 Frc consts  --      0.0015                 0.0041                 0.0065
 IR Inten    --      0.0450                 0.0849                 0.2952

                      4                      5                      6
                      A                      A                      A
 Frequencies --     71.5336                84.9207               114.5077
 Red. masses --      2.6657                 2.4926                 3.9251
 Frc consts  --      0.0080                 0.0106                 0.0303
 IR Inten    --      0.5511                 1.2634                 0.0848

                      7                      8                      9
                      A                      A                      A
 Frequencies --    130.1379               138.7943               163.4017
 Red. masses --      1.0924                 1.7203                 1.8082
 Frc consts  --      0.0109                 0.0195                 0.0284
 IR Inten    --      0.0552                 1.4281                 1.3435

                     10                     11                     12
                      A                      A                      A
 Frequencies --    187.4613               218.2376               221.0399
 Red. masses --      2.7888                 1.0838                 3.2919
 Frc consts  --      0.0577                 0.0304                 0.0948
 IR Inten    --      1.9753                 0.1309                 1.0027

                     13                     14                     15
                      A                      A                      A
 Frequencies --    236.1789               240.3180               259.6136
 Red. masses --      3.5310                 1.7544                 3.6406
 Frc consts  --      0.1160                 0.0597                 0.1446
 IR Inten    --      3.7720                 0.7103                 0.5523

                     16                     17                     18
                      A                      A                      A
 Frequencies --    289.2758               309.2980               347.0050
 Red. masses --      1.6311                 2.8441                 3.4014
 Frc consts  --      0.0804                 0.1603                 0.2413
 IR Inten    --      0.3832                 0.6959                 1.2960

                     19                     20                     21
                      A                      A                      A
 Frequencies --    406.7132               417.4370               449.2950
 Red. masses --      3.9580                 3.0965                 5.7619
 Frc consts  --      0.3858                 0.3179                 0.6853
 IR Inten    --      1.7905                 0.2195                12.0869

                     22                     23                     24
                      A                      A                      A
 Frequencies --    471.9932               525.5131               570.7459
 Red. masses --      2.7645                 4.5783                 3.0292
 Frc consts  --      0.3629                 0.7449                 0.5814
 IR Inten    --      0.1059                 2.3596                 3.4750

                     25                     26                     27
                      A                      A                      A
 Frequencies --    633.1861               668.8330               676.4985
 Red. masses --      5.6825                 6.1092                 3.4165
 Frc consts  --      1.3423                 1.6102                 0.9212
 IR Inten    --      3.0441                 1.3892                13.0508

                     28                     29                     30
                      A                      A                      A
 Frequencies --    719.5191               754.8535               781.4420
 Red. masses --      5.9116                 3.8544                 1.8340
 Frc consts  --      1.8032                 1.2940                 0.6598
 IR Inten    --      0.4662                 1.3068                 3.4624

                     31                     32                     33
                      A                      A                      A
 Frequencies --    811.1561               847.5173               859.2706
 Red. masses --      1.8770                 1.7737                 1.2438
 Frc consts  --      0.7276                 0.7506                 0.5411
 IR Inten    --      3.2330                33.6332                 0.9907

                     34                     35                     36
                      A                      A                      A
 Frequencies --    876.0313               951.4948               968.7527
 Red. masses --      2.0879                 3.3137                 1.3465
 Frc consts  --      0.9441                 1.7676                 0.7445
 IR Inten    --      4.4958                70.7516                 0.0715

                     37                     38                     39
                      A                      A                      A
 Frequencies --    974.0368               980.9708               990.5849
 Red. masses --      1.5384                 1.3609                 1.5667
 Frc consts  --      0.8600                 0.7716                 0.9058
 IR Inten    --     13.1092                 3.4918                 4.5642

                     40                     41                     42
                      A                      A                      A
 Frequencies --    995.8541               997.8470              1032.7335
 Red. masses --      1.1916                 1.4547                 3.6738
 Frc consts  --      0.6963                 0.8534                 2.3086
 IR Inten    --      3.3853                 0.3078                17.7089

                     43                     44                     45
                      A                      A                      A
 Frequencies --   1042.2287              1050.5668              1090.6645
 Red. masses --      2.3294                 2.5155                 1.8046
 Frc consts  --      1.4908                 1.6358                 1.2648
 IR Inten    --      5.6800                 4.7444                20.6839

                     46                     47                     48
                      A                      A                      A
 Frequencies --   1133.4971              1145.1290              1148.2993
 Red. masses --      1.3712                 1.6295                 1.8991
 Frc consts  --      1.0380                 1.2590                 1.4754
 IR Inten    --      1.2752                 6.6370                 1.1347

                     49                     50                     51
                      A                      A                      A
 Frequencies --   1178.3428              1190.2533              1220.6339
 Red. masses --      1.4649                 1.8204                 1.1906
 Frc consts  --      1.1984                 1.5194                 1.0451
 IR Inten    --      6.7742                 2.8017                13.8079

                     52                     53                     54
                      A                      A                      A
 Frequencies --   1243.9617              1249.6927              1302.8573
 Red. masses --      2.7155                 2.7976                 1.6555
 Frc consts  --      2.4758                 2.5742                 1.6557
 IR Inten    --      8.8630                55.6157                 3.2961

                     55                     56                     57
                      A                      A                      A
 Frequencies --   1321.3924              1344.7310              1364.5478
 Red. masses --      1.5114                 2.0007                 1.3994
 Frc consts  --      1.5549                 2.1316                 1.5352
 IR Inten    --      1.2022                 4.0759                 1.9027

                     58                     59                     60
                      A                      A                      A
 Frequencies --   1381.2410              1385.5271              1405.8069
 Red. masses --      1.1646                 1.4535                 1.5927
 Frc consts  --      1.3090                 1.6440                 1.8545
 IR Inten    --      3.2023                 2.9070                 0.7670

                     61                     62                     63
                      A                      A                      A
 Frequencies --   1436.3182              1442.6490              1462.7041
 Red. masses --      1.2778                 1.2318                 1.6171
 Frc consts  --      1.5531                 1.5105                 2.0385
 IR Inten    --      3.5047                 0.5295                18.2947

                     64                     65                     66
                      A                      A                      A
 Frequencies --   1463.3768              1484.5287              1500.6632
 Red. masses --      1.5219                 1.0527                 1.0510
 Frc consts  --      1.9202                 1.3669                 1.3945
 IR Inten    --     13.5678                 7.2106                14.2922

                     67                     68                     69
                      A                      A                      A
 Frequencies --   1513.7269              1516.7305              1525.7755
 Red. masses --      1.0657                 1.0455                 1.0457
 Frc consts  --      1.4387                 1.4170                 1.4343
 IR Inten    --      0.2594                 4.5817                 8.3055

                     70                     71                     72
                      A                      A                      A
 Frequencies --   1529.1123              1529.9287              1535.1685
 Red. masses --      1.0600                 1.0553                 1.0646
 Frc consts  --      1.4602                 1.4554                 1.4783
 IR Inten    --      1.5766                 4.8205                 6.9049

                     73                     74                     75
                      A                      A                      A
 Frequencies --   1542.1185              1558.4481              1621.6148
 Red. masses --      1.0551                 2.3285                 6.1092
 Frc consts  --      1.4784                 3.3320                 9.4652
 IR Inten    --      1.0012                 8.3540                 1.0530

                     76                     77                     78
                      A                      A                      A
 Frequencies --   1671.2331              1710.0594              3023.6039
 Red. masses --      5.7456                 9.4011                 1.0816
 Frc consts  --      9.4549                16.1977                 5.8257
 IR Inten    --     15.4454               164.8798                10.6222

                     79                     80                     81
                      A                      A                      A
 Frequencies --   3024.3357              3038.4322              3047.3011
 Red. masses --      1.0332                 1.0619                 1.0374
 Frc consts  --      5.5679                 5.7759                 5.6756
 IR Inten    --     58.4008                28.9062                35.8130

                     82                     83                     84
                      A                      A                      A
 Frequencies --   3053.1289              3072.9233              3079.3315
 Red. masses --      1.0367                 1.1018                 1.0292
 Frc consts  --      5.6937                 6.1297                 5.7500
 IR Inten    --     22.0882                15.4841                20.1878

                     85                     86                     87
                      A                      A                      A
 Frequencies --   3085.2100              3099.3776              3111.5283
 Red. masses --      1.1028                 1.1021                 1.1013
 Frc consts  --      6.1846                 6.2376                 6.2821
 IR Inten    --     27.9891                37.8115                35.9574

                     88                     89                     90
                      A                      A                      A
 Frequencies --   3117.9480              3121.5886              3131.0278
 Red. masses --      1.1013                 1.1020                 1.1019
 Frc consts  --      6.3083                 6.3267                 6.3646
 IR Inten    --     37.9107                44.4754                36.0272

                     91                     92                     93
                      A                      A                      A
 Frequencies --   3171.2450              3176.4545              3181.8488
 Red. masses --      1.1057                 1.1071                 1.0885
 Frc consts  --      6.5517                 6.5817                 6.4930
 IR Inten    --      6.8053                 4.7000                17.1859

                     94                     95                     96
                      A                      A                      A
 Frequencies --   3187.9582              3206.5944              3210.8945
 Red. masses --      1.0869                 1.0938                 1.0931
 Frc consts  --      6.5080                 6.6264                 6.6399
 IR Inten    --     11.4183                15.7084                 3.8569

 - Thermochemistry -
 -------------------
 Temperature   298.150 Kelvin.  Pressure   1.00000 Atm.
 Atom     1 has atomic number  6 and mass  12.00000

 Molecular mass:   221.12382 amu.
 Principal axes and moments of inertia in atomic units:
                           1         2         3
     Eigenvalues --  1349.528178248.179688895.79058
           X            0.99998   0.00575   0.00139
           Y           -0.00574   0.99998  -0.00208
           Z           -0.00140   0.00207   1.00000
 This molecule is an asymmetric top.
 Rotational symmetry number  1.
 Warning -- assumption of classical behavior for rotation
           may cause significant error
 Rotational temperatures (Kelvin)      0.06418     0.01050     0.00974
 Rotational constants (GHZ):           1.33731     0.21880     0.20288
 Zero-point vibrational energy     770912.5 (Joules/Mol)
                                  184.25251 (Kcal/Mol)
 Warning -- explicit consideration of  24 degrees of freedom as
           vibrations may cause significant error
 Vibrational temperatures:     39.52    61.09    83.90   102.92   122.18
          (Kelvin)            164.75   187.24   199.69   235.10   269.72
                              314.00   318.03   339.81   345.76   373.53
                              416.20   445.01   499.26   585.17   600.60
                              646.44   679.09   756.10   821.18   911.01
                              962.30   973.33  1035.23  1086.07  1124.32
                             1167.07  1219.39  1236.30  1260.41  1368.99
                             1393.82  1401.42  1411.40  1425.23  1432.81
                             1435.68  1485.87  1499.53  1511.53  1569.22
                             1630.85  1647.59  1652.15  1695.37  1712.51
                             1756.22  1789.78  1798.03  1874.52  1901.19
                             1934.77  1963.28  1987.30  1993.46  2022.64
                             2066.54  2075.65  2104.50  2105.47  2135.91
                             2159.12  2177.92  2182.24  2195.25  2200.05
                             2201.23  2208.77  2218.76  2242.26  2333.14
                             2404.53  2460.39  4350.29  4351.34  4371.63
                             4384.39  4392.77  4421.25  4430.47  4438.93
                             4459.31  4476.80  4486.03  4491.27  4504.85
                             4562.71  4570.21  4577.97  4586.76  4613.57
                             4619.76

 Zero-point correction=                           0.293625 (Hartree/Particle)
 Thermal correction to Energy=                    0.310665
 Thermal correction to Enthalpy=                  0.311609
 Thermal correction to Gibbs Free Energy=         0.247829
 Sum of electronic and zero-point Energies=           -959.539624
 Sum of electronic and thermal Energies=              -959.522585
 Sum of electronic and thermal Enthalpies=            -959.521641
 Sum of electronic and thermal Free Energies=         -959.585420

                     E (Thermal)             CV                S
                      KCal/Mol        Cal/Mol-Kelvin    Cal/Mol-Kelvin
 Total                  194.945             62.125            134.235
 Electronic               0.000              0.000              0.000
 Translational            0.889              2.981             42.083
 Rotational               0.889              2.981             32.959
 Vibrational            193.167             56.163             59.192
 Vibration     1          0.593              1.984              6.004
 Vibration     2          0.595              1.980              5.141
 Vibration     3          0.596              1.974              4.513
 Vibration     4          0.598              1.968              4.111
 Vibration     5          0.601              1.960              3.774
 Vibration     6          0.607              1.937              3.191
 Vibration     7          0.612              1.923              2.944
 Vibration     8          0.614              1.915              2.820
 Vibration     9          0.623              1.887              2.510
 Vibration    10          0.632              1.857              2.253
 Vibration    11          0.646              1.813              1.974
 Vibration    12          0.648              1.809              1.951
 Vibration    13          0.655              1.785              1.831
 Vibration    14          0.657              1.779              1.801
 Vibration    15          0.668              1.746              1.664
 Vibration    16          0.686              1.694              1.478
 Vibration    17          0.699              1.656              1.366
 Vibration    18          0.725              1.581              1.180
 Vibration    19          0.771              1.456              0.938
 Vibration    20          0.780              1.432              0.901
 Vibration    21          0.808              1.362              0.798
 Vibration    22          0.829              1.312              0.732
 Vibration    23          0.880              1.194              0.597
 Vibration    24          0.927              1.095              0.503

 Optimization completed.
    -- Stationary point found.
 Normal termination of Gaussian 16 at Thu Dec 10 17:08:21 2020.

 ----------------------------------------------------------------------
 # B3LYP/6-311++G(d,p) empiricaldispersion=gd3bj scf=xqc pop=npa geom=c
 heck
 ----------------------------------------------------------------------

 ---------------------------------------
 CID_116827973_JID_5784_Energie_neutraal
 ---------------------------------------
 Structure from the checkpoint file:  "JID_5784.chk"
 Charge =  0 Multiplicity = 1

 SCF Done:  E(RB3LYP) =  -960.008214379     A.U. after   16 cycles
 Normal termination of Gaussian 16 at Thu Dec 10 17:15:27 2020.

 ----------------------------------------------------------------------
 # B3LYP/6-311++G(d,p) empiricaldispersion=gd3bj scf=xqc pop=npa geom=c
 heck
 ----------------------------------------------------------------------

 -------------------------------------
 CID_116827973_JID_5784_Energie_kation
 -------------------------------------
 Structure from the checkpoint file:  "JID_5784.chk"
 Charge =  1 Multiplicity = 2

 SCF Done:  E(UB3LYP) =  -959.713177365     A.U. after   29 cycles
 Normal termination of Gaussian 16 at Thu Dec 10 17:32:34 2020.
 Gaussian 16:  ES64L-G16RevA.03 25-Dec-2016

 ----------------------------------------------------------------------
 # B3LYP/6-311++G(d,p) empiricaldispersion=gd3bj scf=xqc pop=npa geom=c
 heck
 ----------------------------------------------------------------------

 ------------------------------------
 CID_116827973_JID_5784_Energie_anion
 ------------------------------------
 Structure from the checkpoint file:  "JID_5784.chk"
 Charge = -1 Multiplicity = 2

                         Standard orientation:
 ---------------------------------------------------------------------
 Center     Atomic      Atomic             Coordinates (Angstroms)
 Number     Number       Type             X           Y           Z
 ---------------------------------------------------------------------
      1          6           0       -5.563652    0.600034    0.609502
      2          6           0       -4.056342    0.756045    0.392799
      3          6           0       -3.324209   -0.565827    0.071810
      4          6           0       -3.816885   -1.208825   -1.235956
      5          6           0       -1.821520   -0.353438    0.049622
      6          6           0       -1.217349    0.461863   -0.918394
      7          6           0        0.158549    0.665226   -0.928488
      8          6           0        0.977319    0.053722    0.031759
      9          6           0        0.382747   -0.770629    0.994263
     10          6           0       -0.997759   -0.961555    1.002603
     11          6           0        2.455176    0.263505    0.006014
     12          7           0        3.101664    1.359567    0.020195
     13          6           0        2.420386    2.635583    0.158021
     14         16           0        3.353129   -1.285011   -0.083746
     15          6           0        5.067251   -0.674046   -0.000467
     16          1           0       -6.076285    0.271419   -0.300575
     17          1           0       -6.013337    1.551026    0.915306
     18          1           0       -5.774300   -0.135920    1.395318
     19          1           0       -3.871837    1.474125   -0.417765
     20          1           0       -3.602364    1.189692    1.292776
     21          1           0       -3.542456   -1.266272    0.890169
     22          1           0       -3.686262   -0.528038   -2.085374
     23          1           0       -3.256727   -2.124150   -1.452669
     24          1           0       -4.878520   -1.468058   -1.175790
     25          1           0       -1.828624    0.941202   -1.677945
     26          1           0        0.609263    1.289670   -1.694030
     27          1           0        1.004867   -1.255935    1.739841
     28          1           0       -1.444476   -1.598015    1.762547
     29          1           0        2.469657    3.178757   -0.794687
     30          1           0        1.367914    2.568204    0.462804
     31          1           0        2.964309    3.237753    0.894688
     32          1           0        5.272261   -0.011105   -0.842394
     33          1           0        5.229364   -0.126772    0.929764
     34          1           0        5.713569   -1.554326   -0.041942
 ---------------------------------------------------------------------

 SCF Done:  E(UB3LYP) =  -959.998580422     A.U. after   33 cycles
 SCF Done:  E(UB3LYP) =  -959.998580422     a.u. after    1 cycles

 The electronic state is 2-A.
 Alpha  occ. eigenvalues --  -88.74033 -14.17989 -10.11829 -10.09151 -10.08458
 Alpha  occ. eigenvalues --  -10.06893 -10.05986 -10.05960 -10.05839 -10.05829
 Alpha  occ. eigenvalues --  -10.05696 -10.05559 -10.05390 -10.05366 -10.05270
 Alpha  occ. eigenvalues --   -7.82668  -5.79062  -5.78634  -5.78101  -0.81245
 Alpha  occ. eigenvalues --   -0.74631  -0.70204  -0.68372  -0.64328  -0.63256
 Alpha  occ. eigenvalues --   -0.61479  -0.59391  -0.54895  -0.53763  -0.50224
 Alpha  occ. eigenvalues --   -0.49131  -0.45267  -0.42954  -0.38560  -0.36905
 Alpha  occ. eigenvalues --   -0.35884  -0.35310  -0.33854  -0.33243  -0.32828
 Alpha  occ. eigenvalues --   -0.32098  -0.31769  -0.31313  -0.30746  -0.29762
 Alpha  occ. eigenvalues --   -0.28712  -0.27878  -0.26549  -0.25948  -0.24797
 Alpha  occ. eigenvalues --   -0.23800  -0.22344  -0.22286  -0.21885  -0.21188
 Alpha  occ. eigenvalues --   -0.20708  -0.14521  -0.13769  -0.13267  -0.12336
 Alpha  occ. eigenvalues --    0.04642
 Alpha virt. eigenvalues --    0.06370   0.06877   0.07878   0.08304   0.08444
 Alpha virt. eigenvalues --    0.09116   0.09609   0.09917   0.10551   0.10609
 Alpha virt. eigenvalues --    0.10987   0.11380   0.11712   0.12173   0.12438

  Beta  occ. eigenvalues --  -88.74026 -14.17805 -10.11735 -10.09127 -10.08467
  Beta  occ. eigenvalues --  -10.06906 -10.05939 -10.05852 -10.05777 -10.05760
  Beta  occ. eigenvalues --  -10.05708 -10.05564 -10.05326 -10.05225 -10.05155
  Beta  occ. eigenvalues --   -7.82661  -5.79061  -5.78624  -5.78086  -0.80923
  Beta  occ. eigenvalues --   -0.74397  -0.70051  -0.68272  -0.64100  -0.63086
  Beta  occ. eigenvalues --   -0.61367  -0.59287  -0.54769  -0.53688  -0.50086
  Beta  occ. eigenvalues --   -0.48903  -0.45162  -0.42800  -0.38444  -0.36788
  Beta  occ. eigenvalues --   -0.35772  -0.35208  -0.33674  -0.33134  -0.32746
  Beta  occ. eigenvalues --   -0.31987  -0.31654  -0.31260  -0.30685  -0.29698
  Beta  occ. eigenvalues --   -0.28576  -0.27819  -0.26340  -0.25887  -0.24483
  Beta  occ. eigenvalues --   -0.23658  -0.22241  -0.22167  -0.21776  -0.21011
  Beta  occ. eigenvalues --   -0.20333  -0.14082  -0.13521  -0.12483  -0.11824
  Beta virt. eigenvalues --    0.06639   0.07054   0.07879   0.08577   0.08699
  Beta virt. eigenvalues --    0.08743   0.09302   0.09739   0.09890   0.10547
  Beta virt. eigenvalues --    0.10748   0.11119   0.11603   0.11908   0.12326

 Mulliken charges and spin densities:
               1          2
     1  C    1.592561  -2.229646
     2  C   -1.733229   1.410418
     3  C    0.123110  -0.131490
     4  C    0.311849  -1.031470
     5  C    0.824010   0.197294
     6  C   -0.154178  -0.161191
     7  C   -0.184825  -0.006096
     8  C    1.012405  -0.098884
     9  C   -0.977836   0.300307
    10  C   -0.625892   0.229800
    11  C   -0.403293   0.062745
    12  N   -0.001649   0.091747
    13  C   -0.422281  -0.006096
    14  S   -0.149869  -0.006278
    15  C   -0.460704  -0.114950
    16  H   -0.311744   0.458167
    17  H   -0.406318   0.546308
    18  H   -0.266557   0.394099
    19  H   -0.016002   0.138726
    20  H    0.093674   0.052013
    21  H    0.213834  -0.055071
    22  H    0.005528   0.143394
    23  H    0.119860   0.009387
    24  H   -0.229262   0.367558
    25  H    0.024523   0.101965
    26  H    0.151821   0.009480
    27  H    0.134504   0.012393
    28  H    0.012093   0.115891
    29  H    0.134489   0.018144
    30  H    0.125216   0.015387
    31  H    0.124583   0.001365
    32  H    0.121758   0.050093
    33  H    0.159770   0.032686
    34  H    0.058051   0.081807
 Sum of Mulliken charges =  -1.00000   1.00000

 Dipole moment (field-independent basis, Debye):
    X=              7.5581    Y=             -0.2557    Z=              0.1338  Tot=              7.5636
 Quadrupole moment (field-independent basis, Debye-Ang):
   XX=           -219.6642   YY=           -123.9442   ZZ=           -119.8936
   XY=              4.3556   XZ=              2.4322   YZ=             -3.9935

 Summary of Natural Population Analysis:

                                       Natural Population
                Natural  -----------------------------------------------
    Atom  No    Charge         Core      Valence    Rydberg      Total
 -----------------------------------------------------------------------
      C    1   -0.28669      0.99967     2.28196    0.00506     3.28669
      C    2   -0.18128      0.99962     2.17290    0.00876     3.18128
      C    3   -0.11790      0.99957     2.10766    0.01067     3.11790
      C    4   -0.28136      0.99965     2.27596    0.00575     3.28136
      C    5    0.03224      0.99950     1.95688    0.01139     2.96776
      C    6   -0.11551      0.99952     2.10633    0.00966     3.11551
      C    7   -0.07047      0.99948     2.06210    0.00889     3.07047
      C    8   -0.04926      0.99941     2.03899    0.01086     3.04926
      C    9   -0.07515      0.99947     2.06594    0.00974     3.07515
      C   10   -0.11061      0.99952     2.10098    0.01011     3.11061
      C   11    0.09446      0.99944     1.88798    0.01812     2.90554
      N   12   -0.24672      0.99960     2.73208    0.01504     3.74672
      C   13   -0.19105      0.99964     2.18308    0.00833     3.19105
      S   14    0.10748      4.99955     2.87209    0.02088     7.89252
      C   15   -0.35053      0.99962     2.34415    0.00675     3.35053
      H   16    0.09804      0.00000     0.40033    0.00163     0.40196
      H   17    0.09964      0.00000     0.39906    0.00130     0.40036
      H   18    0.09438      0.00000     0.40439    0.00124     0.40562
      H   19    0.09274      0.00000     0.40596    0.00130     0.40726
      H   20    0.09682      0.00000     0.40206    0.00112     0.40318
      H   21    0.09237      0.00000     0.40556    0.00208     0.40763
      H   22    0.09508      0.00000     0.40402    0.00089     0.40492
      H   23    0.09972      0.00000     0.39956    0.00072     0.40028
      H   24    0.10000      0.00000     0.39903    0.00097     0.40000
      H   25    0.09646      0.00000     0.40193    0.00161     0.40354
      H   26    0.09703      0.00000     0.40187    0.00110     0.40297
      H   27    0.10077      0.00000     0.39845    0.00079     0.39923
      H   28    0.09543      0.00000     0.40344    0.00114     0.40457
      H   29    0.09186      0.00000     0.40729    0.00085     0.40814
      H   30    0.09127      0.00000     0.40692    0.00181     0.40873
      H   31    0.08956      0.00000     0.40957    0.00086     0.41044
      H   32    0.10649      0.00000     0.39124    0.00227     0.39351
      H   33    0.10553      0.00000     0.39270    0.00177     0.39447
      H   34    0.09923      0.00000     0.39939    0.00138     0.40077
 =======================================================================
   * Total *    0.00005     18.99326    40.82185    0.18484    59.99995

 Normal termination of Gaussian 16 at Thu Dec 10 17:50:59 2020.
