 Gaussian 16, Revision A.03,

 -----------------------------------------------------------
 # opt freq B3LYP/6-31G(d) empiricaldispersion=gd3bj scf=xqc
 -----------------------------------------------------------

 -------------------------------
 CID_133357562_JID_8313_neutraal
 -------------------------------
 Symbolic Z-matrix:
 Charge =  0 Multiplicity = 1

 SCF Done:  E(RB3LYP) =  -1482.37708262     A.U. after   15 cycles
 SCF Done:  E(RB3LYP) =  -1482.38466173     A.U. after   13 cycles
 SCF Done:  E(RB3LYP) =  -1482.38765755     A.U. after   13 cycles
 SCF Done:  E(RB3LYP) =  -1482.38972815     A.U. after   13 cycles
 SCF Done:  E(RB3LYP) =  -1482.39195758     A.U. after   13 cycles
 SCF Done:  E(RB3LYP) =  -1482.39473322     A.U. after   15 cycles
 SCF Done:  E(RB3LYP) =  -1482.39636783     A.U. after   12 cycles
 SCF Done:  E(RB3LYP) =  -1482.39744640     A.U. after   12 cycles
 SCF Done:  E(RB3LYP) =  -1482.39760671     A.U. after   11 cycles
 SCF Done:  E(RB3LYP) =  -1482.39768285     A.U. after   11 cycles
 SCF Done:  E(RB3LYP) =  -1482.39771462     A.U. after   10 cycles
 SCF Done:  E(RB3LYP) =  -1482.39771648     A.U. after    8 cycles
 SCF Done:  E(RB3LYP) =  -1482.39771701     A.U. after    8 cycles
 SCF Done:  E(RB3LYP) =  -1482.39771714     A.U. after    7 cycles
 SCF Done:  E(RB3LYP) =  -1482.39771716     A.U. after    6 cycles
 Optimization completed.
    -- Stationary point found.
 Normal termination of Gaussian 16 at Fri Dec 11 20:00:27 2020.

 --------------------------------------------------------------------
 #N Geom=AllCheck Guess=TCheck SCRF=Check GenChk RB3LYP/6-31G(d) Freq
 --------------------------------------------------------------------

 Structure from the checkpoint file:  "JID_8313.chk"
 -------------------------------
 CID_133357562_JID_8313_neutraal
 -------------------------------
 Charge =  0 Multiplicity = 1

 SCF Done:  E(RB3LYP) =  -1482.39771716     A.U. after    1 cycles

  Exact polarizability: 282.234   7.075 191.075  -0.109  -3.167 105.198
 Approx polarizability: 375.252   3.482 342.210   0.804 -11.738 169.417

                      1                      2                      3
                      A                      A                      A
 Frequencies --     36.7864                45.9823                65.5126
 Red. masses --      3.7874                 3.7884                 4.0948
 Frc consts  --      0.0030                 0.0047                 0.0104
 IR Inten    --      0.6796                 0.2946                 2.3874

                      4                      5                      6
                      A                      A                      A
 Frequencies --     89.1098                91.6120               113.2582
 Red. masses --      4.9543                 4.8050                 3.2016
 Frc consts  --      0.0232                 0.0238                 0.0242
 IR Inten    --      0.2308                 0.8930                 0.5935

                      7                      8                      9
                      A                      A                      A
 Frequencies --    143.2355               157.1100               160.9503
 Red. masses --      1.3990                 3.3406                 3.5666
 Frc consts  --      0.0169                 0.0486                 0.0544
 IR Inten    --      1.2502                 2.3991                 3.1832

                     10                     11                     12
                      A                      A                      A
 Frequencies --    193.0855               202.3335               242.9966
 Red. masses --      1.9933                 3.9892                 1.0499
 Frc consts  --      0.0438                 0.0962                 0.0365
 IR Inten    --      0.2633                 0.8710                 0.0860

                     13                     14                     15
                      A                      A                      A
 Frequencies --    254.5526               258.2552               291.0419
 Red. masses --      1.6488                 6.0164                 6.5760
 Frc consts  --      0.0629                 0.2364                 0.3282
 IR Inten    --      0.1915                 0.3079                 0.3028

                     16                     17                     18
                      A                      A                      A
 Frequencies --    295.6175               305.0342               345.2996
 Red. masses --      1.8639                 3.4895                 4.8418
 Frc consts  --      0.0960                 0.1913                 0.3401
 IR Inten    --      1.2391                 2.6421                 0.6030

                     19                     20                     21
                      A                      A                      A
 Frequencies --    362.7538               386.8289               424.6854
 Red. masses --      3.3002                10.0651                 3.6736
 Frc consts  --      0.2559                 0.8874                 0.3904
 IR Inten    --      1.1939                 2.0265                 2.4420

                     22                     23                     24
                      A                      A                      A
 Frequencies --    517.7520               529.5913               532.5382
 Red. masses --      3.4977                 6.6215                 5.0514
 Frc consts  --      0.5524                 1.0942                 0.8440
 IR Inten    --      0.4431                 0.5970                 1.8869

                     25                     26                     27
                      A                      A                      A
 Frequencies --    567.0783               577.4151               591.3815
 Red. masses --      7.4672                 3.8714                 2.8405
 Frc consts  --      1.4148                 0.7605                 0.5853
 IR Inten    --      0.1463                 2.7844                 0.7029

                     28                     29                     30
                      A                      A                      A
 Frequencies --    628.4201               684.2924               695.2098
 Red. masses --     11.2280                10.1129                11.4630
 Frc consts  --      2.6125                 2.7900                 3.2642
 IR Inten    --      9.4774                15.9589                 0.8699

                     31                     32                     33
                      A                      A                      A
 Frequencies --    708.0841               737.6962               785.4363
 Red. masses --      6.5586                 4.3705                 2.9934
 Frc consts  --      1.9374                 1.4013                 1.0880
 IR Inten    --      1.5151                 4.4737                 0.4199

                     34                     35                     36
                      A                      A                      A
 Frequencies --    794.8144               830.4199               873.0065
 Red. masses --     11.0622                 2.9528                 1.6442
 Frc consts  --      4.1174                 1.1997                 0.7383
 IR Inten    --     21.0918                 5.0662                 1.1065

                     37                     38                     39
                      A                      A                      A
 Frequencies --    912.2314               948.6061               982.2109
 Red. masses --      3.0609                 2.5317                 1.4291
 Frc consts  --      1.5008                 1.3422                 0.8123
 IR Inten    --      3.9457                 2.9703                 1.6843

                     40                     41                     42
                      A                      A                      A
 Frequencies --    983.9512               996.8277              1001.3814
 Red. masses --      1.3166                 2.8346                 1.1808
 Frc consts  --      0.7510                 1.6595                 0.6976
 IR Inten    --      2.2042                65.6722                 3.6814

                     43                     44                     45
                      A                      A                      A
 Frequencies --   1008.0263              1021.4084              1025.6296
 Red. masses --      2.0784                 1.8474                 2.1460
 Frc consts  --      1.2443                 1.1356                 1.3300
 IR Inten    --      3.3358                 8.8619                59.3602

                     46                     47                     48
                      A                      A                      A
 Frequencies --   1051.8464              1079.6420              1093.2979
 Red. masses --      1.3320                 8.7879                 1.8596
 Frc consts  --      0.8683                 6.0352                 1.3096
 IR Inten    --      3.7899                39.0464                 9.7306

                     49                     50                     51
                      A                      A                      A
 Frequencies --   1111.5705              1157.7349              1173.8696
 Red. masses --      2.2393                 3.5801                 1.7839
 Frc consts  --      1.6302                 2.8272                 1.4483
 IR Inten    --     27.2760                41.3857                 5.5972

                     52                     53                     54
                      A                      A                      A
 Frequencies --   1193.9342              1198.0271              1235.9604
 Red. masses --      1.9751                 3.2406                 1.8328
 Frc consts  --      1.6588                 2.7404                 1.6496
 IR Inten    --      6.9232                46.4010                37.1875

                     55                     56                     57
                      A                      A                      A
 Frequencies --   1263.5943              1291.2689              1325.5129
 Red. masses --      1.3987                 2.9385                 3.2045
 Frc consts  --      1.3158                 2.8868                 3.3173
 IR Inten    --     17.7280                25.0308                 7.5634

                     58                     59                     60
                      A                      A                      A
 Frequencies --   1333.2038              1353.5129              1366.7406
 Red. masses --      1.6124                 2.2770                 1.8925
 Frc consts  --      1.6886                 2.4578                 2.0829
 IR Inten    --      3.9718                 7.2215                27.3641

                     61                     62                     63
                      A                      A                      A
 Frequencies --   1367.5471              1387.2280              1389.6881
 Red. masses --      1.8913                 1.1862                 1.4129
 Frc consts  --      2.0840                 1.3449                 1.6076
 IR Inten    --     51.2703                25.7283                28.4022

                     64                     65                     66
                      A                      A                      A
 Frequencies --   1402.3169              1408.4013              1432.8880
 Red. masses --      1.2935                 1.4701                 1.7621
 Frc consts  --      1.4987                 1.7181                 2.1315
 IR Inten    --     14.7809                23.5423                56.8550

                     67                     68                     69
                      A                      A                      A
 Frequencies --   1437.6743              1444.0965              1485.4237
 Red. masses --      1.6217                 1.2700                 1.0513
 Frc consts  --      1.9749                 1.5604                 1.3667
 IR Inten    --      7.3351                 0.4734                 9.1541

                     70                     71                     72
                      A                      A                      A
 Frequencies --   1498.4259              1510.6938              1516.8167
 Red. masses --      1.2498                 2.2528                 1.2880
 Frc consts  --      1.6534                 3.0292                 1.7460
 IR Inten    --     35.0024               214.1266                55.0570

                     73                     74                     75
                      A                      A                      A
 Frequencies --   1523.2274              1527.2694              1533.2614
 Red. masses --      1.1599                 1.0722                 1.6842
 Frc consts  --      1.5857                 1.4735                 2.3328
 IR Inten    --     48.6375                26.7354               146.4619

                     76                     77                     78
                      A                      A                      A
 Frequencies --   1536.9943              1544.0387              1555.8798
 Red. masses --      1.4294                 1.0912                 1.1767
 Frc consts  --      1.9895                 1.5327                 1.6783
 IR Inten    --    128.0828                12.1504                28.3467

                     79                     80                     81
                      A                      A                      A
 Frequencies --   1575.0891              1610.3435              3026.8536
 Red. masses --      8.0218                 7.5388                 1.0832
 Frc consts  --     11.7255                11.5184                 5.8472
 IR Inten    --     61.1030               793.4914                13.6546

                     82                     83                     84
                      A                      A                      A
 Frequencies --   3031.0170              3051.4853              3057.7362
 Red. masses --      1.0659                 1.0357                 1.0410
 Frc consts  --      5.7695                 5.6822                 5.7345
 IR Inten    --     32.7087                19.2723                14.3162

                     85                     86                     87
                      A                      A                      A
 Frequencies --   3065.6991              3087.7440              3088.2530
 Red. masses --      1.0640                 1.0289                 1.0956
 Frc consts  --      5.8921                 5.7799                 6.1564
 IR Inten    --     46.1239                13.5751                24.1586

                     88                     89                     90
                      A                      A                      A
 Frequencies --   3100.8373              3115.3140              3120.3010
 Red. masses --      1.0872                 1.1025                 1.1017
 Frc consts  --      6.1593                 6.3040                 6.3200
 IR Inten    --      2.8458                15.1011                24.3079

                     91                     92                     93
                      A                      A                      A
 Frequencies --   3125.3801              3127.2090              3154.1023
 Red. masses --      1.1015                 1.1015                 1.1004
 Frc consts  --      6.3392                 6.3468                 6.4500
 IR Inten    --     35.2763                55.4694                12.8631

                     94                     95                     96
                      A                      A                      A
 Frequencies --   3181.0277              3182.5722              3191.1266
 Red. masses --      1.0903                 1.1059                 1.1084
 Frc consts  --      6.5005                 6.5999                 6.6502
 IR Inten    --     44.0913                 2.9958                 1.6077

 - Thermochemistry -
 -------------------
 Temperature   298.150 Kelvin.  Pressure   1.00000 Atm.
 Atom     1 has atomic number  6 and mass  12.00000

 Molecular mass:   280.08164 amu.
 Principal axes and moments of inertia in atomic units:
                           1         2         3
     Eigenvalues --  2183.275309840.63953**********
           X            0.99993  -0.01146   0.00186
           Y            0.01145   0.99991   0.00722
           Z           -0.00195  -0.00720   0.99997
 This molecule is an asymmetric top.
 Rotational symmetry number  1.
 Warning -- assumption of classical behavior for rotation
           may cause significant error
 Rotational temperatures (Kelvin)      0.03967     0.00880     0.00740
 Rotational constants (GHZ):           0.82662     0.18340     0.15415
 Zero-point vibrational energy     723879.1 (Joules/Mol)
                                  173.01125 (Kcal/Mol)
 Warning -- explicit consideration of  27 degrees of freedom as
           vibrations may cause significant error
 Vibrational temperatures:     52.93    66.16    94.26   128.21   131.81
          (Kelvin)            162.95   206.08   226.05   231.57   277.81
                              291.11   349.62   366.24   371.57   418.74
                              425.33   438.88   496.81   521.92   556.56
                              611.03   744.93   761.96   766.20   815.90
                              830.77   850.87   904.16   984.54  1000.25
                             1018.78  1061.38  1130.07  1143.56  1194.79
                             1256.06  1312.50  1364.83  1413.18  1415.69
                             1434.21  1440.76  1450.33  1469.58  1475.65
                             1513.37  1553.36  1573.01  1599.30  1665.72
                             1688.94  1717.81  1723.69  1778.27  1818.03
                             1857.85  1907.12  1918.18  1947.40  1966.43
                             1967.60  1995.91  1999.45  2017.62  2026.38
                             2061.61  2068.49  2077.73  2137.19  2155.90
                             2173.55  2182.36  2191.58  2197.40  2206.02
                             2211.39  2221.53  2238.56  2266.20  2316.93
                             4354.97  4360.96  4390.41  4399.40  4410.86
                             4442.57  4443.31  4461.41  4482.24  4489.42
                             4496.72  4499.36  4538.05  4576.79  4579.01
                             4591.32

 Zero-point correction=                           0.275711 (Hartree/Particle)
 Thermal correction to Energy=                    0.293081
 Thermal correction to Enthalpy=                  0.294025
 Thermal correction to Gibbs Free Energy=         0.229822
 Sum of electronic and zero-point Energies=          -1482.122006
 Sum of electronic and thermal Energies=             -1482.104636
 Sum of electronic and thermal Enthalpies=           -1482.103692
 Sum of electronic and thermal Free Energies=        -1482.167896

                     E (Thermal)             CV                S
                      KCal/Mol        Cal/Mol-Kelvin    Cal/Mol-Kelvin
 Total                  183.911             65.242            135.128
 Electronic               0.000              0.000              0.000
 Translational            0.889              2.981             42.788
 Rotational               0.889              2.981             33.886
 Vibrational            182.134             59.281             58.454
 Vibration     1          0.594              1.982              5.425
 Vibration     2          0.595              1.979              4.983
 Vibration     3          0.597              1.971              4.284
 Vibration     4          0.602              1.957              3.680
 Vibration     5          0.602              1.955              3.625
 Vibration     6          0.607              1.938              3.212
 Vibration     7          0.616              1.910              2.760
 Vibration     8          0.621              1.895              2.584
 Vibration     9          0.622              1.890              2.539
 Vibration    10          0.635              1.849              2.198
 Vibration    11          0.639              1.837              2.112
 Vibration    12          0.659              1.774              1.781
 Vibration    13          0.665              1.755              1.699
 Vibration    14          0.667              1.749              1.674
 Vibration    15          0.687              1.690              1.468
 Vibration    16          0.690              1.682              1.442
 Vibration    17          0.696              1.664              1.389
 Vibration    18          0.724              1.585              1.188
 Vibration    19          0.737              1.549              1.110
 Vibration    20          0.755              1.498              1.012
 Vibration    21          0.787              1.417              0.876
 Vibration    22          0.873              1.211              0.615
 Vibration    23          0.885              1.185              0.588
 Vibration    24          0.888              1.178              0.582
 Vibration    25          0.923              1.102              0.510
 Vibration    26          0.934              1.080              0.490
 Vibration    27          0.949              1.050              0.465

 Optimization completed.
    -- Stationary point found.
 Normal termination of Gaussian 16 at Fri Dec 11 20:15:10 2020.

 ----------------------------------------------------------------------
 # B3LYP/6-311++G(d,p) empiricaldispersion=gd3bj scf=xqc pop=npa geom=c
 heck
 ----------------------------------------------------------------------

 ---------------------------------------
 CID_133357562_JID_8313_Energie_neutraal
 ---------------------------------------
 Structure from the checkpoint file:  "JID_8313.chk"
 Charge =  0 Multiplicity = 1

 SCF Done:  E(RB3LYP) =  -1482.62519017     A.U. after   16 cycles
 Normal termination of Gaussian 16 at Fri Dec 11 20:21:33 2020.

 ----------------------------------------------------------------------
 # B3LYP/6-311++G(d,p) empiricaldispersion=gd3bj scf=xqc pop=npa geom=c
 heck
 ----------------------------------------------------------------------

 -------------------------------------
 CID_133357562_JID_8313_Energie_kation
 -------------------------------------
 Structure from the checkpoint file:  "JID_8313.chk"
 Charge =  1 Multiplicity = 2

 SCF Done:  E(UB3LYP) =  -1482.35210305     A.U. after   24 cycles
 Normal termination of Gaussian 16 at Fri Dec 11 20:34:24 2020.
 Gaussian 16:  ES64L-G16RevA.03 25-Dec-2016

 ----------------------------------------------------------------------
 # B3LYP/6-311++G(d,p) empiricaldispersion=gd3bj scf=xqc pop=npa geom=c
 heck
 ----------------------------------------------------------------------

 ------------------------------------
 CID_133357562_JID_8313_Energie_anion
 ------------------------------------
 Structure from the checkpoint file:  "JID_8313.chk"
 Charge = -1 Multiplicity = 2

                         Standard orientation:
 ---------------------------------------------------------------------
 Center     Atomic      Atomic             Coordinates (Angstroms)
 Number     Number       Type             X           Y           Z
 ---------------------------------------------------------------------
      1          6           0        5.522938   -0.807203   -0.388376
      2          6           0        4.013612   -0.820811   -0.609685
      3          6           0        3.275187   -1.972427    0.089380
      4          6           0        1.803321   -1.548156    0.019942
      5          7           0        1.867035   -0.083627   -0.000253
      6          6           0        3.249609    0.427516   -0.112902
      7          6           0        3.737191    1.005409    1.218419
      8          6           0        0.793373    0.744618   -0.059312
      9          7           0        1.049160    2.068483   -0.151129
     10          6           0        0.016852    2.914744   -0.213523
     11          7           0       -1.283233    2.638585   -0.195341
     12          6           0       -1.556817    1.326087   -0.103310
     13          6           0       -0.561298    0.328497   -0.032384
     14         16           0       -1.325364   -1.255395    0.077481
     15          6           0       -2.894882   -0.425464    0.017273
     16          7           0       -2.863131    0.865711   -0.073060
     17         16           0       -4.360244   -1.388913    0.083221
     18          6           0       -5.594377   -0.044733   -0.008314
     19          1           0        5.980139   -1.707477   -0.813609
     20          1           0        5.772351   -0.778266    0.677460
     21          1           0        5.988914    0.061272   -0.867537
     22          1           0        3.818354   -0.905461   -1.687982
     23          1           0        3.446841   -2.942998   -0.384596
     24          1           0        3.600863   -2.048919    1.133441
     25          1           0        1.228146   -1.911340    0.877916
     26          1           0        1.326967   -1.927133   -0.894241
     27          1           0        3.262813    1.223350   -0.861793
     28          1           0        4.743462    1.424796    1.114070
     29          1           0        3.063508    1.807029    1.529244
     30          1           0        3.760019    0.243470    2.005425
     31          1           0        0.283465    3.967500   -0.288188
     32          1           0       -5.475852    0.631854    0.838641
     33          1           0       -5.475896    0.510762   -0.939183
     34          1           0       -6.571439   -0.532029    0.024938
 ---------------------------------------------------------------------

 SCF Done:  E(UB3LYP) =  -1482.62499227     A.U. after   33 cycles
 SCF Done:  E(UB3LYP) =  -1482.62499227     a.u. after    1 cycles

 The electronic state is 2-A.
 Alpha  occ. eigenvalues --  -88.75776 -88.75681 -14.22697 -14.18325 -14.17290
 Alpha  occ. eigenvalues --  -14.17281 -10.13541 -10.12307 -10.10883 -10.10797
 Alpha  occ. eigenvalues --  -10.10672 -10.10550 -10.10458 -10.08432 -10.08286
 Alpha  occ. eigenvalues --  -10.07934 -10.06952 -10.05695  -7.84404  -7.84279
 Alpha  occ. eigenvalues --   -5.80729  -5.80683  -5.80382  -5.80271  -5.79911
 Alpha  occ. eigenvalues --   -5.79688  -0.88050  -0.85381  -0.82225  -0.75709
 Alpha  occ. eigenvalues --   -0.71299  -0.69738  -0.68132  -0.66532  -0.63431
 Alpha  occ. eigenvalues --   -0.61093  -0.56914  -0.56662  -0.53221  -0.51657
 Alpha  occ. eigenvalues --   -0.48368  -0.46463  -0.44535  -0.41307  -0.40191
 Alpha  occ. eigenvalues --   -0.38655  -0.36882  -0.35726  -0.34974  -0.34019
 Alpha  occ. eigenvalues --   -0.33840  -0.32821  -0.32268  -0.31702  -0.30270
 Alpha  occ. eigenvalues --   -0.29439  -0.28949  -0.28790  -0.28558  -0.27686
 Alpha  occ. eigenvalues --   -0.26745  -0.26193  -0.24757  -0.23849  -0.23062
 Alpha  occ. eigenvalues --   -0.22595  -0.21642  -0.18079  -0.17302  -0.16199
 Alpha  occ. eigenvalues --   -0.15901  -0.13352  -0.12499  -0.09647   0.04010
 Alpha virt. eigenvalues --    0.05617   0.06907   0.07517   0.07858   0.08456
 Alpha virt. eigenvalues --    0.09437   0.09952   0.10221   0.10469   0.10775
 Alpha virt. eigenvalues --    0.10937   0.11146   0.11402   0.11786   0.12414

  Beta  occ. eigenvalues --  -88.75754 -88.75675 -14.22687 -14.18341 -14.17213
  Beta  occ. eigenvalues --  -14.17105 -10.13459 -10.11792 -10.10881 -10.10818
  Beta  occ. eigenvalues --  -10.10551 -10.10496 -10.10461 -10.08427 -10.08249
  Beta  occ. eigenvalues --  -10.07918 -10.06919 -10.05671  -7.84384  -7.84273
  Beta  occ. eigenvalues --   -5.80726  -5.80691  -5.80380  -5.80278  -5.79824
  Beta  occ. eigenvalues --   -5.79647  -0.87879  -0.85163  -0.81975  -0.75479
  Beta  occ. eigenvalues --   -0.71166  -0.69626  -0.68025  -0.66496  -0.63242
  Beta  occ. eigenvalues --   -0.60915  -0.56777  -0.56619  -0.53126  -0.51449
  Beta  occ. eigenvalues --   -0.48256  -0.46332  -0.44407  -0.41204  -0.39989
  Beta  occ. eigenvalues --   -0.38532  -0.36745  -0.35612  -0.34911  -0.33850
  Beta  occ. eigenvalues --   -0.33802  -0.32777  -0.31852  -0.31588  -0.30076
  Beta  occ. eigenvalues --   -0.29316  -0.28887  -0.28691  -0.28456  -0.27579
  Beta  occ. eigenvalues --   -0.26199  -0.25753  -0.24706  -0.23705  -0.23027
  Beta  occ. eigenvalues --   -0.22537  -0.21142  -0.17267  -0.17128  -0.15856
  Beta  occ. eigenvalues --   -0.15753  -0.13202  -0.11849  -0.09083
  Beta virt. eigenvalues --    0.06213   0.06882   0.07795   0.08013   0.08620
  Beta virt. eigenvalues --    0.08929   0.09457   0.10073   0.10277   0.10640
  Beta virt. eigenvalues --    0.10806   0.11058   0.11284   0.11609   0.11886

 Mulliken charges and spin densities:
               1          2
     1  C    1.070481  -1.822953
     2  C   -1.467136   1.927111
     3  C    0.104180  -1.265881
     4  C   -0.328506   0.570393
     5  N    0.312255   0.007920
     6  C    0.065748  -0.477524
     7  C    0.188743  -0.536893
     8  C   -0.386921   0.087212
     9  N   -0.160006   0.079306
    10  C    0.084425   0.001373
    11  N   -0.139943   0.032161
    12  C   -0.209758   0.100576
    13  C    0.408774  -0.012971
    14  S   -0.892533   0.075297
    15  C    0.452604   0.262067
    16  N    0.076808  -0.014646
    17  S   -0.425864   0.051623
    18  C   -0.519134   0.000070
    19  H   -0.425457   0.577070
    20  H   -0.081343   0.239031
    21  H   -0.084760   0.224814
    22  H   -0.033999   0.236585
    23  H   -0.089223   0.260026
    24  H    0.071700   0.085742
    25  H    0.050336   0.091892
    26  H    0.213446  -0.045588
    27  H    0.263537  -0.033887
    28  H   -0.042383   0.177903
    29  H    0.159834   0.005068
    30  H    0.053652   0.102018
    31  H    0.176437   0.012198
    32  H    0.202230   0.001999
    33  H    0.203227   0.001062
    34  H    0.128551  -0.000173
 Sum of Mulliken charges =  -1.00000   1.00000

 Dipole moment (field-independent basis, Debye):
    X=             -3.1776    Y=             -1.5548    Z=              0.4379  Tot=              3.5646
 Quadrupole moment (field-independent basis, Debye-Ang):
   XX=           -204.9420   YY=           -159.0058   ZZ=           -138.7778
   XY=             11.4498   XZ=              2.7205   YZ=             -0.8950

 Summary of Natural Population Analysis:

                                       Natural Population
                Natural  -----------------------------------------------
    Atom  No    Charge         Core      Valence    Rydberg      Total
 -----------------------------------------------------------------------
      C    1   -0.28585      0.99965     2.28038    0.00582     3.28585
      C    2   -0.11206      0.99958     2.10205    0.01043     3.11206
      C    3   -0.19140      0.99962     2.18318    0.00861     3.19140
      C    4   -0.08519      0.99963     2.07547    0.01009     3.08519
      N    5   -0.24618      0.99963     2.73675    0.00980     3.74618
      C    6    0.00172      0.99959     1.98537    0.01333     2.99828
      C    7   -0.29581      0.99964     2.28995    0.00622     3.29581
      C    8    0.22702      0.99947     1.76033    0.01318     2.77298
      N    9   -0.26406      0.99968     2.75568    0.00870     3.76406
      C   10    0.13569      0.99968     1.84574    0.01889     2.86431
      N   11   -0.25358      0.99967     2.74407    0.00983     3.75358
      C   12    0.20801      0.99944     1.77269    0.01985     2.79199
      C   13   -0.15310      0.99936     2.14576    0.00799     3.15310
      S   14    0.16668      4.99944     2.81454    0.01935     7.83332
      C   15    0.04720      0.99960     1.93645    0.01674     2.95280
      N   16   -0.27911      0.99960     2.76235    0.01717     3.77911
      S   17    0.12784      4.99947     2.85103    0.02165     7.87216
      C   18   -0.34432      0.99962     2.33871    0.00599     3.34432
      H   19    0.10218      0.00000     0.39655    0.00128     0.39782
      H   20    0.09906      0.00000     0.39982    0.00112     0.40094
      H   21    0.10021      0.00000     0.39889    0.00090     0.39979
      H   22    0.09610      0.00000     0.40222    0.00168     0.40390
      H   23    0.10308      0.00000     0.39604    0.00088     0.39692
      H   24    0.09630      0.00000     0.40261    0.00109     0.40370
      H   25    0.09963      0.00000     0.39912    0.00126     0.40037
      H   26    0.09377      0.00000     0.40498    0.00125     0.40623
      H   27    0.10777      0.00000     0.39061    0.00162     0.39223
      H   28    0.09710      0.00000     0.40203    0.00087     0.40290
      H   29    0.11369      0.00000     0.38520    0.00111     0.38631
      H   30    0.09424      0.00000     0.40480    0.00096     0.40576
      H   31    0.07523      0.00000     0.42352    0.00125     0.42477
      H   32    0.10971      0.00000     0.38905    0.00124     0.39029
      H   33    0.10969      0.00000     0.38907    0.00125     0.39031
      H   34    0.09876      0.00000     0.40037    0.00087     0.40124
 =======================================================================
   * Total *   -0.00000     25.99237    47.76537    0.24226    74.00000

 Normal termination of Gaussian 16 at Fri Dec 11 20:52:02 2020.
