 Gaussian 16, Revision A.03,

 -----------------------------------------------------------
 # opt freq B3LYP/6-31G(d) empiricaldispersion=gd3bj scf=xqc
 -----------------------------------------------------------

 ------------------------------
 CID_84779502_JID_5372_neutraal
 ------------------------------
 Symbolic Z-matrix:
 Charge =  0 Multiplicity = 1

 SCF Done:  E(RB3LYP) =  -699.782513399     A.U. after   14 cycles
 SCF Done:  E(RB3LYP) =  -699.791207633     A.U. after   12 cycles
 SCF Done:  E(RB3LYP) =  -699.792671385     A.U. after   12 cycles
 SCF Done:  E(RB3LYP) =  -699.793005502     A.U. after   12 cycles
 SCF Done:  E(RB3LYP) =  -699.793144700     A.U. after   12 cycles
 SCF Done:  E(RB3LYP) =  -699.793245072     A.U. after   11 cycles
 SCF Done:  E(RB3LYP) =  -699.793356877     A.U. after   11 cycles
 SCF Done:  E(RB3LYP) =  -699.793425903     A.U. after   11 cycles
 SCF Done:  E(RB3LYP) =  -699.793463135     A.U. after   11 cycles
 SCF Done:  E(RB3LYP) =  -699.793475385     A.U. after   11 cycles
 SCF Done:  E(RB3LYP) =  -699.793703612     A.U. after   11 cycles
 SCF Done:  E(RB3LYP) =  -699.793803287     A.U. after   12 cycles
 SCF Done:  E(RB3LYP) =  -699.793817657     A.U. after   11 cycles
 SCF Done:  E(RB3LYP) =  -699.793838959     A.U. after   10 cycles
 SCF Done:  E(RB3LYP) =  -699.793845137     A.U. after    9 cycles
 Optimization completed.
    -- Stationary point found.
 Normal termination of Gaussian 16 at Thu Dec 10 15:46:42 2020.

 --------------------------------------------------------------------
 #N Geom=AllCheck Guess=TCheck SCRF=Check GenChk RB3LYP/6-31G(d) Freq
 --------------------------------------------------------------------

 Structure from the checkpoint file:  "JID_5372.chk"
 ------------------------------
 CID_84779502_JID_5372_neutraal
 ------------------------------
 Charge =  0 Multiplicity = 1

 SCF Done:  E(RB3LYP) =  -699.793845137     A.U. after    1 cycles

  Exact polarizability: 200.343   7.877 114.072  -9.853  -2.604  78.115
 Approx polarizability: 275.394  11.656 213.853 -22.657  -7.554 117.707

                      1                      2                      3
                      A                      A                      A
 Frequencies --     25.6874                60.2729                87.1297
 Red. masses --      4.3676                 3.3953                 1.1855
 Frc consts  --      0.0017                 0.0073                 0.0053
 IR Inten    --      0.9127                 1.9728                 0.8031

                      4                      5                      6
                      A                      A                      A
 Frequencies --    104.0588               125.9055               172.1918
 Red. masses --      2.9255                 4.1007                 3.9661
 Frc consts  --      0.0187                 0.0383                 0.0693
 IR Inten    --      0.2974                 0.7275                 2.0061

                      7                      8                      9
                      A                      A                      A
 Frequencies --    214.9160               253.8451               270.7545
 Red. masses --      3.7779                 1.1601                 2.3075
 Frc consts  --      0.1028                 0.0440                 0.0997
 IR Inten    --      0.7011                 0.1877                10.2878

                     10                     11                     12
                      A                      A                      A
 Frequencies --    281.1575               298.2233               305.6568
 Red. masses --      1.9685                 4.6695                 3.6684
 Frc consts  --      0.0917                 0.2447                 0.2019
 IR Inten    --     20.8171                 4.5212                12.6636

                     13                     14                     15
                      A                      A                      A
 Frequencies --    335.2181               357.0877               403.8952
 Red. masses --      2.1072                 4.4344                 2.1690
 Frc consts  --      0.1395                 0.3331                 0.2085
 IR Inten    --     14.7169                 2.8511                59.9031

                     16                     17                     18
                      A                      A                      A
 Frequencies --    430.2994               443.3624               458.5340
 Red. masses --      1.9755                 2.8331                 2.5170
 Frc consts  --      0.2155                 0.3281                 0.3118
 IR Inten    --     42.9688                60.1463                29.8484

                     19                     20                     21
                      A                      A                      A
 Frequencies --    533.7890               578.3931               594.1479
 Red. masses --      4.9885                 4.9427                 3.8465
 Frc consts  --      0.8375                 0.9742                 0.8000
 IR Inten    --      3.0584                 7.4694                 0.7722

                     22                     23                     24
                      A                      A                      A
 Frequencies --    645.6445               677.9291               697.2529
 Red. masses --      2.7764                 5.4856                 5.0255
 Frc consts  --      0.6819                 1.4854                 1.4395
 IR Inten    --     27.0682                 8.4690                 3.5582

                     25                     26                     27
                      A                      A                      A
 Frequencies --    706.8530               776.1241               791.7039
 Red. masses --      6.0033                 7.6322                 4.3343
 Frc consts  --      1.7673                 2.7087                 1.6007
 IR Inten    --      2.8042                 3.3832                16.2342

                     28                     29                     30
                      A                      A                      A
 Frequencies --    835.3354               894.9668               916.8067
 Red. masses --      4.2705                 2.9293                 1.8151
 Frc consts  --      1.7557                 1.3824                 0.8989
 IR Inten    --     29.2106                58.6888                86.4645

                     31                     32                     33
                      A                      A                      A
 Frequencies --    923.9516               946.5414               962.3006
 Red. masses --      1.5374                 1.7509                 1.3839
 Frc consts  --      0.7733                 0.9242                 0.7551
 IR Inten    --     12.8401                29.3935                 0.6762

                     34                     35                     36
                      A                      A                      A
 Frequencies --   1006.6116              1014.9880              1028.5563
 Red. masses --      3.7827                 1.6772                 1.7475
 Frc consts  --      2.2583                 1.0180                 1.0892
 IR Inten    --      1.8884                13.1799                 9.9413

                     37                     38                     39
                      A                      A                      A
 Frequencies --   1050.0014              1073.7943              1081.1596
 Red. masses --      4.3256                 2.1433                 1.5609
 Frc consts  --      2.8098                 1.4560                 1.0750
 IR Inten    --     11.6634                42.8307                 3.9101

                     40                     41                     42
                      A                      A                      A
 Frequencies --   1099.0149              1136.1842              1185.1996
 Red. masses --      2.9357                 3.4282                 1.5392
 Frc consts  --      2.0891                 2.6074                 1.2739
 IR Inten    --     19.2541                10.5158                40.5651

                     43                     44                     45
                      A                      A                      A
 Frequencies --   1227.6259              1240.9322              1270.4937
 Red. masses --      1.6395                 4.3265                 1.8945
 Frc consts  --      1.4558                 3.9254                 1.8017
 IR Inten    --     18.3547                19.7192                34.5647

                     46                     47                     48
                      A                      A                      A
 Frequencies --   1275.0444              1314.4344              1333.3066
 Red. masses --      2.0046                 1.7901                 2.0102
 Frc consts  --      1.9202                 1.8222                 2.1055
 IR Inten    --     33.1420                 5.7051                20.0339

                     49                     50                     51
                      A                      A                      A
 Frequencies --   1381.0061              1385.4344              1415.3530
 Red. masses --      2.1708                 1.7469                 1.7963
 Frc consts  --      2.4393                 1.9756                 2.1201
 IR Inten    --     53.0360                49.2134                 7.1965

                     52                     53                     54
                      A                      A                      A
 Frequencies --   1427.2030              1433.6738              1438.6201
 Red. masses --      1.3605                 1.4015                 1.5431
 Frc consts  --      1.6328                 1.6973                 1.8817
 IR Inten    --      3.6148                 6.7798                32.4255

                     55                     56                     57
                      A                      A                      A
 Frequencies --   1443.2231              1456.4665              1505.6832
 Red. masses --      1.3119                 2.8779                 1.1256
 Frc consts  --      1.6100                 3.5968                 1.5035
 IR Inten    --     40.1411                18.6664                16.2581

                     58                     59                     60
                      A                      A                      A
 Frequencies --   1506.3535              1521.1341              1526.4519
 Red. masses --      1.8741                 2.2198                 1.0722
 Frc consts  --      2.5055                 3.0262                 1.4720
 IR Inten    --     62.9622                37.0658                 8.3057

                     61                     62                     63
                      A                      A                      A
 Frequencies --   1534.1713              1552.0649              1595.1661
 Red. masses --      1.0497                 4.3163                 5.3750
 Frc consts  --      1.4557                 6.1261                 8.0582
 IR Inten    --      3.3192               109.6265                40.0605

                     64                     65                     66
                      A                      A                      A
 Frequencies --   1683.7625              1687.1476              3037.9992
 Red. masses --      3.5543                 1.2965                 1.0401
 Frc consts  --      5.9370                 2.1743                 5.6562
 IR Inten    --     51.0583                76.7372                14.4152

                     67                     68                     69
                      A                      A                      A
 Frequencies --   3053.4922              3066.6557              3084.7959
 Red. masses --      1.0822                 1.0368                 1.0850
 Frc consts  --      5.9453                 5.7448                 6.0834
 IR Inten    --     25.3395                13.9920                12.0101

                     70                     71                     72
                      A                      A                      A
 Frequencies --   3104.5637              3121.5461              3124.6404
 Red. masses --      1.0980                 1.1022                 1.1010
 Frc consts  --      6.2355                 6.3280                 6.3334
 IR Inten    --     36.2794                34.6257                 8.7932

                     73                     74                     75
                      A                      A                      A
 Frequencies --   3162.5496              3183.0588              3266.3457
 Red. masses --      1.1025                 1.0896                 1.0929
 Frc consts  --      6.4968                 6.5044                 6.8701
 IR Inten    --      8.4289                17.2422                 1.1508

                     76                     77                     78
                      A                      A                      A
 Frequencies --   3471.4602              3558.7250              3716.7893
 Red. masses --      1.0490                 1.0927                 1.0654
 Frc consts  --      7.4480                 8.1536                 8.6713
 IR Inten    --      2.5190                 0.6209                 9.1385

 - Thermochemistry -
 -------------------
 Temperature   298.150 Kelvin.  Pressure   1.00000 Atm.
 Atom     1 has atomic number  6 and mass  12.00000

 Molecular mass:   207.11201 amu.
 Principal axes and moments of inertia in atomic units:
                           1         2         3
     Eigenvalues --  1014.987186083.890296574.36051
           X            0.99994   0.00931   0.00526
           Y           -0.00930   0.99995  -0.00256
           Z           -0.00529   0.00251   0.99998
 This molecule is an asymmetric top.
 Rotational symmetry number  1.
 Warning -- assumption of classical behavior for rotation
           may cause significant error
 Rotational temperatures (Kelvin)      0.08533     0.01424     0.01317
 Rotational constants (GHZ):           1.77809     0.29664     0.27451
 Zero-point vibrational energy     603473.1 (Joules/Mol)
                                  144.23353 (Kcal/Mol)
 Warning -- explicit consideration of  21 degrees of freedom as
           vibrations may cause significant error
 Vibrational temperatures:     36.96    86.72   125.36   149.72   181.15
          (Kelvin)            247.75   309.22   365.23   389.56   404.52
                              429.08   439.77   482.30   513.77   581.12
                              619.10   637.90   659.73   768.00   832.18
                              854.85   928.94   975.39  1003.19  1017.00
                             1116.67  1139.09  1201.86  1287.66  1319.08
                             1329.36  1361.86  1384.54  1448.29  1460.34
                             1479.86  1510.72  1544.95  1555.55  1581.24
                             1634.72  1705.24  1766.28  1785.42  1827.96
                             1834.50  1891.18  1918.33  1986.96  1993.33
                             2036.38  2053.43  2062.74  2069.85  2076.48
                             2095.53  2166.34  2167.31  2188.57  2196.22
                             2207.33  2233.08  2295.09  2422.56  2427.43
                             4371.00  4393.29  4412.23  4438.33  4466.77
                             4491.21  4495.66  4550.20  4579.71  4699.54
                             4994.66  5120.21  5347.63

 Zero-point correction=                           0.229851 (Hartree/Particle)
 Thermal correction to Energy=                    0.243675
 Thermal correction to Enthalpy=                  0.244619
 Thermal correction to Gibbs Free Energy=         0.188749
 Sum of electronic and zero-point Energies=           -699.563994
 Sum of electronic and thermal Energies=              -699.550170
 Sum of electronic and thermal Enthalpies=            -699.549226
 Sum of electronic and thermal Free Energies=         -699.605096

                     E (Thermal)             CV                S
                      KCal/Mol        Cal/Mol-Kelvin    Cal/Mol-Kelvin
 Total                  152.908             52.792            117.589
 Electronic               0.000              0.000              0.000
 Translational            0.889              2.981             41.888
 Rotational               0.889              2.981             32.074
 Vibrational            151.131             46.830             43.627
 Vibration     1          0.593              1.985              6.137
 Vibration     2          0.597              1.973              4.448
 Vibration     3          0.601              1.958              3.724
 Vibration     4          0.605              1.946              3.377
 Vibration     5          0.611              1.927              3.008
 Vibration     6          0.626              1.877              2.411
 Vibration     7          0.645              1.818              2.002
 Vibration     8          0.665              1.756              1.704
 Vibration     9          0.674              1.727              1.591
 Vibration    10          0.681              1.708              1.527
 Vibration    11          0.691              1.677              1.427
 Vibration    12          0.696              1.663              1.386
 Vibration    13          0.716              1.605              1.235
 Vibration    14          0.732              1.561              1.135
 Vibration    15          0.769              1.462              0.948
 Vibration    16          0.791              1.404              0.858
 Vibration    17          0.803              1.376              0.816
 Vibration    18          0.817              1.342              0.770
 Vibration    19          0.889              1.175              0.579
 Vibration    20          0.935              1.078              0.488
 Vibration    21          0.952              1.044              0.460

                           ! Non-Optimized Parameters !
 Normal termination of Gaussian 16 at Thu Dec 10 15:54:24 2020.

 ----------------------------------------------------------------------
 # B3LYP/6-311++G(d,p) empiricaldispersion=gd3bj scf=xqc pop=npa geom=c
 heck
 ----------------------------------------------------------------------

 --------------------------------------
 CID_84779502_JID_5372_Energie_neutraal
 --------------------------------------
 Structure from the checkpoint file:  "JID_5372.chk"
 Charge =  0 Multiplicity = 1

 SCF Done:  E(RB3LYP) =  -699.995894415     A.U. after   16 cycles
 Normal termination of Gaussian 16 at Thu Dec 10 15:58:11 2020.

 ----------------------------------------------------------------------
 # B3LYP/6-311++G(d,p) empiricaldispersion=gd3bj scf=xqc pop=npa geom=c
 heck
 ----------------------------------------------------------------------

 ------------------------------------
 CID_84779502_JID_5372_Energie_kation
 ------------------------------------
 Structure from the checkpoint file:  "JID_5372.chk"
 Charge =  1 Multiplicity = 2

 SCF Done:  E(UB3LYP) =  -699.669043266     A.U. after   33 cycles
 SCF Done:  E(UB3LYP) =  -699.671706336     a.u. after   12 cycles
 Normal termination of Gaussian 16 at Thu Dec 10 17:27:14 2020.
 Gaussian 16:  ES64L-G16RevA.03 25-Dec-2016

 ----------------------------------------------------------------------
 # B3LYP/6-311++G(d,p) empiricaldispersion=gd3bj scf=xqc pop=npa geom=c
 heck
 ----------------------------------------------------------------------

 -----------------------------------
 CID_84779502_JID_5372_Energie_anion
 -----------------------------------
 Structure from the checkpoint file:  "JID_5372.chk"
 Charge = -1 Multiplicity = 2

                         Standard orientation:
 ---------------------------------------------------------------------
 Center     Atomic      Atomic             Coordinates (Angstroms)
 Number     Number       Type             X           Y           Z
 ---------------------------------------------------------------------
      1          6           0       -4.980245   -0.585842    0.402126
      2          6           0       -3.550764   -0.229760    0.171368
      3          7           0       -2.603392   -1.178327    0.090119
      4          7           0       -1.487761   -0.438288   -0.117774
      5          6           0       -0.218421   -0.880712   -0.275191
      6          6           0        0.769439    0.056618   -0.463155
      7          6           0        0.368237    1.425165   -0.504906
      8          7           0       -0.869343    1.859220   -0.356600
      9          6           0       -1.814630    0.926030   -0.153599
     10          7           0       -3.125817    1.052391    0.031652
     11          6           0        2.213621   -0.373845   -0.655212
     12          6           0        3.225130    0.453745    0.167779
     13          6           0        3.000274    0.316373    1.682994
     14          7           0        4.559891    0.067875   -0.292397
     15          8           0        2.378535   -1.770296   -0.403012
     16          1           0       -5.348226   -0.108440    1.316382
     17          1           0       -5.092129   -1.668460    0.490822
     18          1           0       -5.599717   -0.226068   -0.426163
     19          1           0       -0.060711   -1.950893   -0.258971
     20          1           0        1.117868    2.194368   -0.677705
     21          1           0        2.493322   -0.257754   -1.707658
     22          1           0        3.084655    1.508077   -0.101514
     23          1           0        3.159925   -0.716881    2.018514
     24          1           0        3.716227    0.941078    2.227475
     25          1           0        1.992041    0.625714    1.981409
     26          1           0        5.270938    0.496508    0.297019
     27          1           0        4.657621   -0.941684   -0.191965
     28          1           0        2.189001   -1.919919    0.538222
 ---------------------------------------------------------------------

 SCF Done:  E(UB3LYP) =  -700.010585450     A.U. after   31 cycles

 The electronic state is 2-A.
 Alpha  occ. eigenvalues --  -19.01897 -14.24625 -14.19717 -14.18946 -14.14900
 Alpha  occ. eigenvalues --  -14.13778 -10.11442 -10.10984 -10.09939 -10.08736
 Alpha  occ. eigenvalues --  -10.06491 -10.05702 -10.05533 -10.04463 -10.04142
 Alpha  occ. eigenvalues --   -0.93574  -0.92337  -0.79284  -0.79078  -0.77257
 Alpha  occ. eigenvalues --   -0.68415  -0.66691  -0.63625  -0.60886  -0.56756
 Alpha  occ. eigenvalues --   -0.50863  -0.50332  -0.47858  -0.45598  -0.41049
 Alpha  occ. eigenvalues --   -0.39484  -0.38946  -0.36927  -0.35475  -0.34396
 Alpha  occ. eigenvalues --   -0.33764  -0.32262  -0.30614  -0.30113  -0.29594
 Alpha  occ. eigenvalues --   -0.28307  -0.27839  -0.26774  -0.26146  -0.24724
 Alpha  occ. eigenvalues --   -0.23230  -0.21644  -0.20166  -0.19793  -0.17918
 Alpha  occ. eigenvalues --   -0.15026  -0.13873  -0.11287  -0.11150  -0.10291
 Alpha  occ. eigenvalues --    0.04399
 Alpha virt. eigenvalues --    0.06334   0.08547   0.08815   0.09379   0.10373
 Alpha virt. eigenvalues --    0.11674   0.12105   0.12232   0.12834   0.12969
 Alpha virt. eigenvalues --    0.13171   0.13907   0.14179   0.15627   0.15840

  Beta  occ. eigenvalues --  -19.01873 -14.24319 -14.19709 -14.18982 -14.14850
  Beta  occ. eigenvalues --  -14.13281 -10.11434 -10.11048 -10.09941 -10.08685
  Beta  occ. eigenvalues --  -10.06482 -10.05539 -10.05228 -10.04262 -10.04080
  Beta  occ. eigenvalues --   -0.93234  -0.92288  -0.79184  -0.78509  -0.76921
  Beta  occ. eigenvalues --   -0.68011  -0.66530  -0.63483  -0.60807  -0.56539
  Beta  occ. eigenvalues --   -0.50358  -0.49827  -0.47762  -0.45491  -0.41024
  Beta  occ. eigenvalues --   -0.39329  -0.38661  -0.36721  -0.35358  -0.33807
  Beta  occ. eigenvalues --   -0.33623  -0.32094  -0.30456  -0.29813  -0.29425
  Beta  occ. eigenvalues --   -0.28266  -0.27682  -0.26690  -0.26079  -0.24517
  Beta  occ. eigenvalues --   -0.23047  -0.20102  -0.19855  -0.18792  -0.17844
  Beta  occ. eigenvalues --   -0.15013  -0.13816  -0.10619  -0.10230  -0.08841
  Beta virt. eigenvalues --    0.06355   0.08625   0.08828   0.09278   0.10312
  Beta virt. eigenvalues --    0.11255   0.11677   0.12099   0.12216   0.12807
  Beta virt. eigenvalues --    0.13012   0.13168   0.14016   0.14192   0.15595

 Mulliken charges and spin densities:
               1          2
     1  C   -0.618350  -0.008947
     2  C    0.032292   0.035456
     3  N    0.128345   0.013234
     4  N   -0.153734   0.034306
     5  C   -0.305038   0.476406
     6  C    0.177425   0.150903
     7  C   -0.264054   0.269810
     8  N   -0.210525   0.232468
     9  C   -0.074993  -0.004323
    10  N   -0.193935   0.022544
    11  C   -0.138470  -0.385342
    12  C   -0.356583   0.017447
    13  C   -0.414774  -0.192114
    14  N   -0.234296   0.013358
    15  O   -0.204798  -0.013936
    16  H    0.141558   0.002291
    17  H    0.134209   0.000511
    18  H    0.138693   0.005869
    19  H    0.124074   0.000452
    20  H    0.120635  -0.013645
    21  H    0.231315   0.004330
    22  H    0.180644  -0.009439
    23  H    0.003152   0.127961
    24  H    0.068758   0.047393
    25  H    0.193782   0.020242
    26  H    0.154121   0.053272
    27  H    0.217257   0.014140
    28  H    0.123289   0.085351
 Sum of Mulliken charges =  -1.00000   1.00000

 Dipole moment (field-independent basis, Debye):
    X=              3.7505    Y=             -1.8925    Z=              1.8999  Tot=              4.6106
 Quadrupole moment (field-independent basis, Debye-Ang):
   XX=           -130.2653   YY=           -115.0331   ZZ=           -100.4107
   XY=              8.7368   XZ=              5.9675   YZ=              0.7290

 Summary of Natural Population Analysis:

                                       Natural Population
                Natural  -----------------------------------------------
    Atom  No    Charge         Core      Valence    Rydberg      Total
 -----------------------------------------------------------------------
      C    1   -0.30168      0.99963     2.29751    0.00454     3.30168
      C    2    0.18157      0.99969     1.80011    0.01863     2.81843
      N    3   -0.19646      0.99971     2.68508    0.01167     3.69646
      N    4   -0.06939      0.99959     2.55828    0.01152     3.56939
      C    5    0.11858      0.99951     1.86953    0.01238     2.88142
      C    6   -0.10893      0.99950     2.09892    0.01051     3.10893
      C    7    0.10359      0.99958     1.88322    0.01361     2.89641
      N    8   -0.18563      0.99966     2.67271    0.01326     3.68563
      C    9    0.26474      0.99960     1.71593    0.01972     2.73526
      N   10   -0.28533      0.99967     2.77315    0.01250     3.78533
      C   11    0.06495      0.99950     1.92044    0.01511     2.93505
      C   12   -0.02543      0.99960     2.01499    0.01084     3.02543
      C   13   -0.30069      0.99965     2.29497    0.00607     3.30069
      N   14   -0.42295      0.99977     2.91333    0.00985     3.92295
      O   15   -0.37519      0.99990     3.36824    0.00705     4.37519
      H   16    0.10186      0.00000     0.39711    0.00103     0.39814
      H   17    0.10307      0.00000     0.39615    0.00078     0.39693
      H   18    0.10190      0.00000     0.39708    0.00103     0.39810
      H   19    0.09926      0.00000     0.39932    0.00141     0.40074
      H   20    0.07361      0.00000     0.42461    0.00178     0.42639
      H   21    0.09471      0.00000     0.40398    0.00131     0.40529
      H   22    0.09452      0.00000     0.40332    0.00216     0.40548
      H   23    0.08961      0.00000     0.40839    0.00200     0.41039
      H   24    0.09483      0.00000     0.40405    0.00112     0.40517
      H   25    0.11262      0.00000     0.38643    0.00095     0.38738
      H   26    0.16858      0.00000     0.32981    0.00161     0.33142
      H   27    0.17662      0.00000     0.32144    0.00194     0.32338
      H   28    0.22704      0.00000     0.26995    0.00301     0.27296
 =======================================================================
   * Total *    0.00000     14.99454    39.80804    0.19741    55.00000

 Normal termination of Gaussian 16 at Thu Dec 10 17:38:09 2020.
