 Gaussian 16, Revision A.03,

 -----------------------------------------------------------
 # opt freq B3LYP/6-31G(d) empiricaldispersion=gd3bj scf=xqc
 -----------------------------------------------------------

 ------------------------------
 CID_79907746_JID_5396_neutraal
 ------------------------------
 Symbolic Z-matrix:
 Charge =  0 Multiplicity = 1

 SCF Done:  E(RB3LYP) =  -684.978593728     A.U. after   14 cycles
 SCF Done:  E(RB3LYP) =  -684.984874253     A.U. after   13 cycles
 SCF Done:  E(RB3LYP) =  -684.986077143     A.U. after   12 cycles
 SCF Done:  E(RB3LYP) =  -684.986519608     A.U. after   12 cycles
 SCF Done:  E(RB3LYP) =  -684.986817354     A.U. after   12 cycles
 SCF Done:  E(RB3LYP) =  -684.986914406     A.U. after   11 cycles
 SCF Done:  E(RB3LYP) =  -684.986943135     A.U. after   11 cycles
 SCF Done:  E(RB3LYP) =  -684.986951203     A.U. after    8 cycles
 SCF Done:  E(RB3LYP) =  -684.986953108     A.U. after    8 cycles
 SCF Done:  E(RB3LYP) =  -684.986953467     A.U. after    8 cycles
 Optimization completed.
    -- Stationary point found.
 Normal termination of Gaussian 16 at Thu Dec 10 15:48:38 2020.

 --------------------------------------------------------------------
 #N Geom=AllCheck Guess=TCheck SCRF=Check GenChk RB3LYP/6-31G(d) Freq
 --------------------------------------------------------------------

 Structure from the checkpoint file:  "JID_5396.chk"
 ------------------------------
 CID_79907746_JID_5396_neutraal
 ------------------------------
 Charge =  0 Multiplicity = 1

 SCF Done:  E(RB3LYP) =  -684.986953467     A.U. after    1 cycles

  Exact polarizability: 164.309 -14.569 123.045 -14.713 -12.543 104.847
 Approx polarizability: 220.134 -28.422 201.282 -32.514 -32.068 172.932

                      1                      2                      3
                      A                      A                      A
 Frequencies --     26.1428                44.5281                56.5584
 Red. masses --      3.1697                 5.6550                 5.2937
 Frc consts  --      0.0013                 0.0066                 0.0100
 IR Inten    --      0.5785                 1.4701                 0.5663

                      4                      5                      6
                      A                      A                      A
 Frequencies --    128.5926               168.0376               219.1613
 Red. masses --      4.6235                 4.7943                 1.9280
 Frc consts  --      0.0450                 0.0798                 0.0546
 IR Inten    --      1.3748                 1.7617                 4.6950

                      7                      8                      9
                      A                      A                      A
 Frequencies --    244.4857               255.8100               282.4121
 Red. masses --      3.1020                 2.7953                 2.9537
 Frc consts  --      0.1092                 0.1078                 0.1388
 IR Inten    --      3.4017                 2.6688                 2.9488

                     10                     11                     12
                      A                      A                      A
 Frequencies --    297.5952               311.5469               360.8552
 Red. masses --      1.3139                 3.2435                 3.4816
 Frc consts  --      0.0686                 0.1855                 0.2671
 IR Inten    --     63.9045                 1.6635                41.1952

                     13                     14                     15
                      A                      A                      A
 Frequencies --    385.2546               398.4755               439.8628
 Red. masses --      1.2790                 3.5093                 1.9063
 Frc consts  --      0.1118                 0.3283                 0.2173
 IR Inten    --     28.1932                14.6062                 4.5567

                     16                     17                     18
                      A                      A                      A
 Frequencies --    449.1612               467.9351               487.2857
 Red. masses --      2.7145                 3.1054                 2.9824
 Frc consts  --      0.3227                 0.4006                 0.4172
 IR Inten    --      2.6930                 8.8034                 4.0041

                     19                     20                     21
                      A                      A                      A
 Frequencies --    491.6790               571.0373               602.1085
 Red. masses --      3.2444                 3.6269                 5.3143
 Frc consts  --      0.4621                 0.6968                 1.1351
 IR Inten    --      3.8775                 8.2544                 6.2432

                     22                     23                     24
                      A                      A                      A
 Frequencies --    634.7343               640.8895               757.7557
 Red. masses --      3.3025                 5.8525                 2.1093
 Frc consts  --      0.7839                 1.4163                 0.7136
 IR Inten    --      3.5089                 9.5028               129.4132

                     25                     26                     27
                      A                      A                      A
 Frequencies --    786.6428               801.2875               802.4248
 Red. masses --      2.1396                 1.6690                 2.9689
 Frc consts  --      0.7801                 0.6314                 1.1263
 IR Inten    --     54.4141                11.8154                25.6156

                     28                     29                     30
                      A                      A                      A
 Frequencies --    813.0677               833.2432               892.8814
 Red. masses --      3.4825                 1.7697                 2.4298
 Frc consts  --      1.3564                 0.7239                 1.1413
 IR Inten    --     26.8370                71.9751                32.3819

                     31                     32                     33
                      A                      A                      A
 Frequencies --    916.3443               925.1608               934.6093
 Red. masses --      1.4766                 1.3908                 2.9186
 Frc consts  --      0.7305                 0.7014                 1.5020
 IR Inten    --      5.4092                19.4503                34.5164

                     34                     35                     36
                      A                      A                      A
 Frequencies --    962.7984               980.7495               984.1976
 Red. masses --      1.4522                 2.0671                 1.8971
 Frc consts  --      0.7932                 1.1715                 1.0827
 IR Inten    --      0.3393                21.4782                 7.6353

                     37                     38                     39
                      A                      A                      A
 Frequencies --   1033.4589              1082.6716              1088.5271
 Red. masses --      2.1298                 1.1555                 3.5396
 Frc consts  --      1.3402                 0.7981                 2.4711
 IR Inten    --      0.9568                 2.3837                46.6167

                     40                     41                     42
                      A                      A                      A
 Frequencies --   1100.3555              1110.2618              1124.9636
 Red. masses --      2.2684                 2.8093                 1.6022
 Frc consts  --      1.6182                 2.0403                 1.1946
 IR Inten    --    115.7526                24.3023                 0.3230

                     43                     44                     45
                      A                      A                      A
 Frequencies --   1141.6275              1176.6240              1182.6653
 Red. masses --      2.9910                 2.1343                 2.5786
 Frc consts  --      2.2968                 1.7409                 2.1250
 IR Inten    --     82.9999                 6.1134                10.1607

                     46                     47                     48
                      A                      A                      A
 Frequencies --   1224.5371              1248.1375              1266.5079
 Red. masses --      1.6019                 1.3874                 2.0867
 Frc consts  --      1.4152                 1.2734                 1.9721
 IR Inten    --     36.8902                 0.3395                 4.4466

                     49                     50                     51
                      A                      A                      A
 Frequencies --   1288.8187              1300.5280              1324.1884
 Red. masses --      1.2900                 3.4548                 1.5688
 Frc consts  --      1.2625                 3.4428                 1.6208
 IR Inten    --      1.6087                28.0508                16.2909

                     52                     53                     54
                      A                      A                      A
 Frequencies --   1335.6556              1348.3305              1353.3178
 Red. masses --      2.5428                 1.3106                 1.4517
 Frc consts  --      2.6727                 1.4039                 1.5665
 IR Inten    --     17.6425                 2.3579                 4.4120

                     55                     56                     57
                      A                      A                      A
 Frequencies --   1366.9410              1377.8898              1399.8446
 Red. masses --      1.4056                 1.4218                 1.4141
 Frc consts  --      1.5474                 1.5904                 1.6326
 IR Inten    --     15.9525                21.0486                 6.0726

                     58                     59                     60
                      A                      A                      A
 Frequencies --   1403.5181              1408.7386              1420.0643
 Red. masses --      1.4225                 1.4306                 1.4467
 Frc consts  --      1.6510                 1.6728                 1.7189
 IR Inten    --     17.7520                 2.4068                 1.1135

                     61                     62                     63
                      A                      A                      A
 Frequencies --   1448.0479              1462.5465              1489.9733
 Red. masses --      1.2890                 3.0273                 1.6543
 Frc consts  --      1.5924                 3.8153                 2.1638
 IR Inten    --     62.4203               125.9967                13.9359

                     64                     65                     66
                      A                      A                      A
 Frequencies --   1509.5685              1515.7124              1522.8914
 Red. masses --      1.0885                 1.0980                 1.1025
 Frc consts  --      1.4614                 1.4862                 1.5065
 IR Inten    --      0.6404                 3.0805                13.3558

                     67                     68                     69
                      A                      A                      A
 Frequencies --   1531.3464              1534.7991              1627.3241
 Red. masses --      1.6202                 1.3381                 3.8727
 Frc consts  --      2.2385                 1.8571                 6.0425
 IR Inten    --    150.6146                72.6447               119.5790

                     70                     71                     72
                      A                      A                      A
 Frequencies --   1631.6393              1685.1827              3005.7811
 Red. masses --      4.4093                 1.2552                 1.0710
 Frc consts  --      6.9162                 2.1001                 5.7011
 IR Inten    --     49.2613                80.3035                 7.6280

                     73                     74                     75
                      A                      A                      A
 Frequencies --   3011.2066              3020.9148              3027.2805
 Red. masses --      1.0712                 1.0673                 1.0677
 Frc consts  --      5.7229                 5.7389                 5.7651
 IR Inten    --     25.2187                18.6152                27.5263

                     76                     77                     78
                      A                      A                      A
 Frequencies --   3054.4568              3079.9726              3088.2554
 Red. masses --      1.0825                 1.0869                 1.0949
 Frc consts  --      5.9506                 6.0749                 6.1527
 IR Inten    --     44.1593                25.4578                30.4163

                     79                     80                     81
                      A                      A                      A
 Frequencies --   3093.4350              3096.8818              3099.5183
 Red. masses --      1.0928                 1.0928                 1.0958
 Frc consts  --      6.1613                 6.1752                 6.2028
 IR Inten    --     40.8370                13.5833                49.1890

                     82                     83                     84
                      A                      A                      A
 Frequencies --   3148.7388              3193.1512              3502.0537
 Red. masses --      1.0900                 1.0908                 1.0576
 Frc consts  --      6.3674                 6.5530                 7.6420
 IR Inten    --     34.8958                31.6510                 5.4751

                     85                     86                     87
                      A                      A                      A
 Frequencies --   3503.3924              3602.8971              3721.5744
 Red. masses --      1.0639                 1.0964                 1.0657
 Frc consts  --      7.6936                 8.3855                 8.6965
 IR Inten    --      7.7057                 8.5358                 7.1412

 - Thermochemistry -
 -------------------
 Temperature   298.150 Kelvin.  Pressure   1.00000 Atm.
 Atom     1 has atomic number  6 and mass  12.00000

 Molecular mass:   208.13241 amu.
 Principal axes and moments of inertia in atomic units:
                           1         2         3
     Eigenvalues --  1229.722736366.510866588.66557
           X            1.00000   0.00135  -0.00258
           Y           -0.00137   0.99996  -0.00880
           Z            0.00256   0.00881   0.99996
 This molecule is an asymmetric top.
 Rotational symmetry number  1.
 Warning -- assumption of classical behavior for rotation
           may cause significant error
 Rotational temperatures (Kelvin)      0.07043     0.01360     0.01315
 Rotational constants (GHZ):           1.46760     0.28347     0.27392
 Zero-point vibrational energy     703835.0 (Joules/Mol)
                                  168.22061 (Kcal/Mol)
 Warning -- explicit consideration of  21 degrees of freedom as
           vibrations may cause significant error
 Vibrational temperatures:     37.61    64.07    81.37   185.02   241.77
          (Kelvin)            315.32   351.76   368.05   406.33   428.17
                              448.25   519.19   554.30   573.32   632.86
                              646.24   673.25   701.10   707.42   821.60
                              866.30   913.24   922.10  1090.24  1131.80
                             1152.87  1154.51  1169.82  1198.85  1284.66
                             1318.42  1331.10  1344.69  1385.25  1411.08
                             1416.04  1486.92  1557.72  1566.15  1583.17
                             1597.42  1618.57  1642.55  1692.90  1701.59
                             1761.84  1795.79  1822.22  1854.32  1871.17
                             1905.21  1921.71  1939.95  1947.12  1966.72
                             1982.48  2014.06  2019.35  2026.86  2043.16
                             2083.42  2104.28  2143.74  2171.93  2180.77
                             2191.10  2203.27  2208.23  2341.36  2347.57
                             2424.60  4324.65  4332.45  4346.42  4355.58
                             4394.68  4431.39  4443.31  4450.76  4455.72
                             4459.52  4530.33  4594.23  5038.67  5040.60
                             5183.77  5354.52

 Zero-point correction=                           0.268077 (Hartree/Particle)
 Thermal correction to Energy=                    0.281590
 Thermal correction to Enthalpy=                  0.282534
 Thermal correction to Gibbs Free Energy=         0.227059
 Sum of electronic and zero-point Energies=           -684.718877
 Sum of electronic and thermal Energies=              -684.705364
 Sum of electronic and thermal Enthalpies=            -684.704420
 Sum of electronic and thermal Free Energies=         -684.759894

                     E (Thermal)             CV                S
                      KCal/Mol        Cal/Mol-Kelvin    Cal/Mol-Kelvin
 Total                  176.700             53.438            116.756
 Electronic               0.000              0.000              0.000
 Translational            0.889              2.981             41.903
 Rotational               0.889              2.981             32.312
 Vibrational            174.923             47.476             42.541
 Vibration     1          0.593              1.985              6.102
 Vibration     2          0.595              1.980              5.047
 Vibration     3          0.596              1.975              4.574
 Vibration     4          0.611              1.925              2.967
 Vibration     5          0.625              1.882              2.457
 Vibration     6          0.647              1.812              1.966
 Vibration     7          0.660              1.772              1.770
 Vibration     8          0.666              1.753              1.690
 Vibration     9          0.681              1.706              1.519
 Vibration    10          0.691              1.678              1.430
 Vibration    11          0.700              1.652              1.354
 Vibration    12          0.735              1.553              1.118
 Vibration    13          0.754              1.502              1.018
 Vibration    14          0.765              1.473              0.968
 Vibration    15          0.800              1.383              0.827
 Vibration    16          0.808              1.363              0.798
 Vibration    17          0.825              1.321              0.743
 Vibration    18          0.843              1.278              0.691
 Vibration    19          0.847              1.268              0.679
 Vibration    20          0.927              1.094              0.502
 Vibration    21          0.960              1.027              0.446

                           ! Non-Optimized Parameters !
 Normal termination of Gaussian 16 at Thu Dec 10 15:58:54 2020.

 ----------------------------------------------------------------------
 # B3LYP/6-311++G(d,p) empiricaldispersion=gd3bj scf=xqc pop=npa geom=c
 heck
 ----------------------------------------------------------------------

 --------------------------------------
 CID_79907746_JID_5396_Energie_neutraal
 --------------------------------------
 Structure from the checkpoint file:  "JID_5396.chk"
 Charge =  0 Multiplicity = 1

 SCF Done:  E(RB3LYP) =  -685.191259684     A.U. after   16 cycles
 Normal termination of Gaussian 16 at Thu Dec 10 16:03:09 2020.

 ----------------------------------------------------------------------
 # B3LYP/6-311++G(d,p) empiricaldispersion=gd3bj scf=xqc pop=npa geom=c
 heck
 ----------------------------------------------------------------------

 ------------------------------------
 CID_79907746_JID_5396_Energie_kation
 ------------------------------------
 Structure from the checkpoint file:  "JID_5396.chk"
 Charge =  1 Multiplicity = 2

 SCF Done:  E(UB3LYP) =  -684.896820065     A.U. after   25 cycles
 Normal termination of Gaussian 16 at Thu Dec 10 16:12:08 2020.
 Gaussian 16:  ES64L-G16RevA.03 25-Dec-2016

 ----------------------------------------------------------------------
 # B3LYP/6-311++G(d,p) empiricaldispersion=gd3bj scf=xqc pop=npa geom=c
 heck
 ----------------------------------------------------------------------

 -----------------------------------
 CID_79907746_JID_5396_Energie_anion
 -----------------------------------
 Structure from the checkpoint file:  "JID_5396.chk"
 Charge = -1 Multiplicity = 2

                         Standard orientation:
 ---------------------------------------------------------------------
 Center     Atomic      Atomic             Coordinates (Angstroms)
 Number     Number       Type             X           Y           Z
 ---------------------------------------------------------------------
      1          6           0       -1.060619   -1.053954   -0.282543
      2          6           0       -2.377717   -0.922586   -1.058217
      3          6           0       -3.521153   -0.457049   -0.150810
      4          6           0       -3.153378    0.850723    0.559344
      5          6           0       -1.834634    0.728361    1.333791
      6          6           0       -0.694401    0.261582    0.424182
      7          7           0        0.547332    0.149165    1.219035
      8          6           0        1.753925   -0.071280    0.552259
      9          7           0        2.443283   -1.175131    0.856403
     10          6           0        3.611331   -1.362921    0.231702
     11          7           0        4.157315   -0.570717   -0.689247
     12          6           0        3.478112    0.553331   -0.961217
     13          6           0        2.269738    0.887099   -0.355369
     14          7           0        1.580478    2.077730   -0.620298
     15          8           0       -4.755074   -0.350015   -0.855491
     16          1           0       -1.154552   -1.847411    0.473672
     17          1           0       -0.246504   -1.354057   -0.951592
     18          1           0       -2.650957   -1.871800   -1.531778
     19          1           0       -2.251993   -0.186128   -1.867876
     20          1           0       -3.705411   -1.229223    0.607307
     21          1           0       -3.057099    1.643150   -0.199787
     22          1           0       -3.971717    1.146060    1.224838
     23          1           0       -1.957192    0.002099    2.151681
     24          1           0       -1.566118    1.682576    1.800905
     25          1           0       -0.521873    1.023534   -0.342790
     26          1           0        0.446720   -0.574084    1.929551
     27          1           0        4.161934   -2.262212    0.497687
     28          1           0        3.927691    1.234077   -1.685092
     29          1           0        2.168558    2.790184   -1.040899
     30          1           0        1.121700    2.442124    0.210601
     31          1           0       -4.628678    0.314070   -1.552488
 ---------------------------------------------------------------------

 SCF Done:  E(UB3LYP) =  -685.184597125     A.U. after   33 cycles
 SCF Done:  E(UB3LYP) =  -685.184597125     a.u. after    1 cycles

 The electronic state is 2-A.
 Alpha  occ. eigenvalues --  -19.03133 -14.22089 -14.21362 -14.19870 -14.19693
 Alpha  occ. eigenvalues --  -10.13376 -10.12942 -10.11798 -10.11020 -10.10748
 Alpha  occ. eigenvalues --  -10.09324 -10.07722 -10.07663 -10.07594 -10.07386
 Alpha  occ. eigenvalues --   -0.93387  -0.88435  -0.83204  -0.80754  -0.76539
 Alpha  occ. eigenvalues --   -0.72723  -0.65836  -0.65316  -0.62605  -0.54661
 Alpha  occ. eigenvalues --   -0.53933  -0.52841  -0.51139  -0.48640  -0.44072
 Alpha  occ. eigenvalues --   -0.42563  -0.41528  -0.39348  -0.38112  -0.36626
 Alpha  occ. eigenvalues --   -0.36223  -0.35586  -0.34151  -0.33207  -0.32293
 Alpha  occ. eigenvalues --   -0.31329  -0.30098  -0.29423  -0.28984  -0.26467
 Alpha  occ. eigenvalues --   -0.25974  -0.25074  -0.24877  -0.23093  -0.22325
 Alpha  occ. eigenvalues --   -0.21448  -0.19776  -0.18065  -0.15726  -0.14657
 Alpha  occ. eigenvalues --   -0.10993   0.04262
 Alpha virt. eigenvalues --    0.06314   0.07069   0.07251   0.07996   0.09012
 Alpha virt. eigenvalues --    0.09259   0.09364   0.09983   0.10409   0.10901
 Alpha virt. eigenvalues --    0.11510   0.12041   0.12629   0.13290   0.13716

  Beta  occ. eigenvalues --  -19.03109 -14.22100 -14.21299 -14.19759 -14.19635
  Beta  occ. eigenvalues --  -10.13289 -10.12942 -10.11811 -10.11036 -10.10729
  Beta  occ. eigenvalues --  -10.09184 -10.07709 -10.07661 -10.07579 -10.07362
  Beta  occ. eigenvalues --   -0.93341  -0.88298  -0.83132  -0.80663  -0.76382
  Beta  occ. eigenvalues --   -0.72673  -0.65795  -0.65197  -0.62537  -0.54456
  Beta  occ. eigenvalues --   -0.53875  -0.52796  -0.51077  -0.48588  -0.44001
  Beta  occ. eigenvalues --   -0.42495  -0.41467  -0.39227  -0.38041  -0.36555
  Beta  occ. eigenvalues --   -0.36170  -0.35555  -0.34096  -0.33091  -0.32201
  Beta  occ. eigenvalues --   -0.31147  -0.30030  -0.29386  -0.28913  -0.26425
  Beta  occ. eigenvalues --   -0.25937  -0.25025  -0.24784  -0.23005  -0.22278
  Beta  occ. eigenvalues --   -0.21021  -0.19640  -0.18040  -0.15485  -0.14540
  Beta  occ. eigenvalues --   -0.10744
  Beta virt. eigenvalues --    0.06847   0.07345   0.07787   0.08143   0.08264
  Beta virt. eigenvalues --    0.09145   0.09434   0.09610   0.10168   0.10696
  Beta virt. eigenvalues --    0.11335   0.11738   0.12473   0.12716   0.13362

 Mulliken charges and spin densities:
               1          2
     1  C    0.066715  -0.263939
     2  C   -0.004065  -0.276729
     3  C   -0.622657   0.069211
     4  C    0.505338  -0.699243
     5  C   -0.036535  -0.055547
     6  C   -0.435290  -0.318050
     7  N    0.101794   0.106913
     8  C   -0.151809  -0.324091
     9  N   -0.138703   0.108064
    10  C   -0.033424   0.010731
    11  N   -0.149369   0.012041
    12  C    0.093756  -0.498491
    13  C    0.208861   0.235695
    14  N   -0.321608  -0.047932
    15  O   -0.225614   0.021791
    16  H    0.140906  -0.008388
    17  H    0.150640   0.048174
    18  H    0.162146   0.010893
    19  H   -0.295573   0.455553
    20  H    0.112722   0.053603
    21  H   -0.489103   0.651757
    22  H    0.005613   0.175976
    23  H    0.108245  -0.006076
    24  H   -0.254429   0.458583
    25  H    0.835341  -0.632714
    26  H    0.237483   0.030021
    27  H    0.153604   0.003896
    28  H   -0.117600   0.255859
    29  H   -0.446214   0.733170
    30  H   -0.241281   0.515652
    31  H    0.080109   0.173617
 Sum of Mulliken charges =  -1.00000   1.00000

 Dipole moment (field-independent basis, Debye):
    X=             -1.7835    Y=             -6.2415    Z=              2.1117  Tot=              6.8262
 Quadrupole moment (field-independent basis, Debye-Ang):
   XX=           -175.1308   YY=           -135.8522   ZZ=           -115.3888
   XY=             -0.8751   XZ=             -2.2454   YZ=              0.8023

 Summary of Natural Population Analysis:

                                       Natural Population
                Natural  -----------------------------------------------
    Atom  No    Charge         Core      Valence    Rydberg      Total
 -----------------------------------------------------------------------
      C    1   -0.19489      0.99961     2.18770    0.00758     3.19489
      C    2   -0.20208      0.99961     2.19300    0.00947     3.20208
      C    3    0.06578      0.99953     1.92144    0.01325     2.93422
      C    4   -0.20128      0.99960     2.19160    0.01007     3.20128
      C    5   -0.19065      0.99961     2.18079    0.01025     3.19065
      C    6   -0.01667      0.99955     2.00441    0.01270     3.01667
      N    7   -0.32540      0.99969     2.81411    0.01160     3.82540
      C    8    0.20444      0.99949     1.77943    0.01664     2.79556
      N    9   -0.25421      0.99967     2.74495    0.00958     3.75421
      C   10    0.11938      0.99967     1.86235    0.01860     2.88062
      N   11   -0.24688      0.99972     2.73719    0.00997     3.74688
      C   12    0.03717      0.99955     1.94756    0.01573     2.96283
      C   13    0.03625      0.99943     1.95258    0.01174     2.96375
      N   14   -0.39956      0.99972     2.88854    0.01129     3.89956
      O   15   -0.37165      0.99990     3.36505    0.00670     4.37165
      H   16    0.09169      0.00000     0.40716    0.00115     0.40831
      H   17    0.10618      0.00000     0.39294    0.00089     0.39382
      H   18    0.10138      0.00000     0.39776    0.00086     0.39862
      H   19    0.09715      0.00000     0.40155    0.00130     0.40285
      H   20    0.08111      0.00000     0.41750    0.00139     0.41889
      H   21    0.09819      0.00000     0.39947    0.00234     0.40181
      H   22    0.10246      0.00000     0.39661    0.00094     0.39754
      H   23    0.08948      0.00000     0.40931    0.00121     0.41052
      H   24    0.10861      0.00000     0.38995    0.00144     0.39139
      H   25    0.10708      0.00000     0.39009    0.00283     0.39292
      H   26    0.18288      0.00000     0.31451    0.00261     0.31712
      H   27    0.07771      0.00000     0.42117    0.00112     0.42229
      H   28    0.08790      0.00000     0.41065    0.00145     0.41210
      H   29    0.18964      0.00000     0.30341    0.00695     0.31036
      H   30    0.19150      0.00000     0.30355    0.00494     0.30850
      H   31    0.22730      0.00000     0.26943    0.00327     0.27270
 =======================================================================
   * Total *    0.00000     14.99434    40.79577    0.20989    56.00000

 Normal termination of Gaussian 16 at Thu Dec 10 16:23:42 2020.
