 Gaussian 16, Revision A.03,

 -----------------------------------------------------------
 # opt freq B3LYP/6-31G(d) empiricaldispersion=gd3bj scf=xqc
 -----------------------------------------------------------

 -------------------------------
 CID_150182342_JID_2185_neutraal
 -------------------------------
 Symbolic Z-matrix:
 Charge =  0 Multiplicity = 1

 SCF Done:  E(RB3LYP) =  -553.340307616     A.U. after   15 cycles
 SCF Done:  E(RB3LYP) =  -553.342247242     A.U. after   15 cycles
 SCF Done:  E(RB3LYP) =  -553.343957312     A.U. after   14 cycles
 SCF Done:  E(RB3LYP) =  -553.344349636     A.U. after   13 cycles
 SCF Done:  E(RB3LYP) =  -553.344086265     A.U. after   13 cycles
 SCF Done:  E(RB3LYP) =  -553.344581548     A.U. after   12 cycles
 SCF Done:  E(RB3LYP) =  -553.344639808     A.U. after   11 cycles
 SCF Done:  E(RB3LYP) =  -553.344676192     A.U. after   12 cycles
 SCF Done:  E(RB3LYP) =  -553.344703475     A.U. after   12 cycles
 SCF Done:  E(RB3LYP) =  -553.344750545     A.U. after   13 cycles
 SCF Done:  E(RB3LYP) =  -553.346396305     A.U. after   10 cycles
 SCF Done:  E(RB3LYP) =  -553.346395295     A.U. after   11 cycles
 SCF Done:  E(RB3LYP) =  -553.346398089     A.U. after   11 cycles
 SCF Done:  E(RB3LYP) =  -553.346398879     A.U. after   10 cycles
 SCF Done:  E(RB3LYP) =  -553.346399674     A.U. after   11 cycles
 Optimization completed.
    -- Stationary point found.
 Normal termination of Gaussian 16 at Wed Dec  9 17:04:27 2020.

 --------------------------------------------------------------------
 #N Geom=AllCheck Guess=TCheck SCRF=Check GenChk RB3LYP/6-31G(d) Freq
 --------------------------------------------------------------------

 Structure from the checkpoint file:  "JID_2185.chk"
 -------------------------------
 CID_150182342_JID_2185_neutraal
 -------------------------------
 Charge =  0 Multiplicity = 1

 SCF Done:  E(RB3LYP) =  -553.346399674     A.U. after    1 cycles

  Exact polarizability: 135.125   5.876  94.056   8.035   3.082  91.073
 Approx polarizability: 194.928  18.316 139.015  27.420   1.477 144.443

                      1                      2                      3
                      A                      A                      A
 Frequencies --     14.4986                22.8636                36.2869
 Red. masses --      5.8639                 5.3645                 4.8930
 Frc consts  --      0.0007                 0.0017                 0.0038
 IR Inten    --      2.3266                 0.1155                 0.9182

                      4                      5                      6
                      A                      A                      A
 Frequencies --     86.0642               106.7137               162.6547
 Red. masses --      2.9422                 6.7236                 4.7514
 Frc consts  --      0.0128                 0.0451                 0.0741
 IR Inten    --      1.7705                 2.4710                 4.1946

                      7                      8                      9
                      A                      A                      A
 Frequencies --    172.8802               230.1294               239.0384
 Red. masses --      4.1352                 1.3415                 1.8260
 Frc consts  --      0.0728                 0.0419                 0.0615
 IR Inten    --      0.9360                 0.9744                 4.7827

                     10                     11                     12
                      A                      A                      A
 Frequencies --    271.1586               293.2195               296.3679
 Red. masses --      1.2198                 1.3032                 1.8995
 Frc consts  --      0.0528                 0.0660                 0.0983
 IR Inten    --      0.7513                 0.1710                 0.0642

                     13                     14                     15
                      A                      A                      A
 Frequencies --    315.8795               383.5434               397.8615
 Red. masses --      1.7412                 2.4642                 2.4157
 Frc consts  --      0.1024                 0.2136                 0.2253
 IR Inten    --      0.6882                 3.4069                 0.4755

                     16                     17                     18
                      A                      A                      A
 Frequencies --    404.1418               446.9680               451.4948
 Red. masses --      3.1769                 1.8201                 2.3770
 Frc consts  --      0.3057                 0.2142                 0.2855
 IR Inten    --     10.5398                 0.3933                 0.9919

                     19                     20                     21
                      A                      A                      A
 Frequencies --    528.5174               574.0700               638.4243
 Red. masses --      3.0546                13.6880                 8.3528
 Frc consts  --      0.5027                 2.6578                 2.0059
 IR Inten    --     13.3726                11.0434                12.6226

                     22                     23                     24
                      A                      A                      A
 Frequencies --    701.3164               774.7255               793.8217
 Red. masses --      3.6089                 2.5149                 3.4331
 Frc consts  --      1.0458                 0.8893                 1.2746
 IR Inten    --      0.1054                 0.4580                 1.9673

                     25                     26                     27
                      A                      A                      A
 Frequencies --    851.9218               904.9514               932.3918
 Red. masses --      2.6066                 2.4486                 2.1264
 Frc consts  --      1.1146                 1.1815                 1.0892
 IR Inten    --      7.4144                 1.1972                 0.7753

                     28                     29                     30
                      A                      A                      A
 Frequencies --    948.5149               957.5994               975.0666
 Red. masses --      1.7686                 1.4956                 1.6442
 Frc consts  --      0.9375                 0.8080                 0.9210
 IR Inten    --      0.8169                 0.1115                 0.3794

                     31                     32                     33
                      A                      A                      A
 Frequencies --    978.5958              1023.5422              1038.6121
 Red. masses --      1.4170                 2.0849                 1.7940
 Frc consts  --      0.7995                 1.2869                 1.1402
 IR Inten    --      0.1717                 8.0373                13.1680

                     34                     35                     36
                      A                      A                      A
 Frequencies --   1068.2380              1092.6384              1142.3019
 Red. masses --      1.5114                 1.6521                 1.7933
 Frc consts  --      1.0161                 1.1621                 1.3787
 IR Inten    --      0.1934                 0.2472                39.1090

                     37                     38                     39
                      A                      A                      A
 Frequencies --   1215.2755              1232.3854              1249.1571
 Red. masses --      1.3830                 1.5749                 1.7638
 Frc consts  --      1.2034                 1.4092                 1.6215
 IR Inten    --     26.7771                 7.2654                74.3105

                     40                     41                     42
                      A                      A                      A
 Frequencies --   1259.8050              1276.1651              1321.9449
 Red. masses --      1.5644                 2.2757                 1.7488
 Frc consts  --      1.4629                 2.1836                 1.8006
 IR Inten    --      4.1503                19.9020                 3.7298

                     43                     44                     45
                      A                      A                      A
 Frequencies --   1343.5165              1347.6107              1387.0512
 Red. masses --      4.1229                 2.0587                 1.5652
 Frc consts  --      4.3847                 2.2028                 1.7742
 IR Inten    --    130.5749                35.0197                36.5900

                     46                     47                     48
                      A                      A                      A
 Frequencies --   1392.2811              1429.4393              1433.9286
 Red. masses --      1.3051                 1.2372                 1.2364
 Frc consts  --      1.4906                 1.4894                 1.4979
 IR Inten    --     72.0083                 5.3345                 8.1606

                     49                     50                     51
                      A                      A                      A
 Frequencies --   1462.0342              1498.6532              1509.1217
 Red. masses --      1.2261                 1.1038                 1.0926
 Frc consts  --      1.5441                 1.4607                 1.4661
 IR Inten    --      2.7592                 8.6035                 0.4995

                     52                     53                     54
                      A                      A                      A
 Frequencies --   1512.4603              1516.5357              1518.3788
 Red. masses --      1.0491                 1.0459                 1.0510
 Frc consts  --      1.4139                 1.4172                 1.4276
 IR Inten    --      0.5249                 0.2475                 0.6904

                     55                     56                     57
                      A                      A                      A
 Frequencies --   1522.0917              1536.7948              1540.8260
 Red. masses --      1.0840                 1.0598                 1.0570
 Frc consts  --      1.4796                 1.4748                 1.4786
 IR Inten    --     19.6105                 4.8489                 7.3494

                     58                     59                     60
                      A                      A                      A
 Frequencies --   1546.8705              1802.1344              2268.6857
 Red. masses --      1.0566                10.4194                13.4801
 Frc consts  --      1.4896                19.9373                40.8782
 IR Inten    --     12.5535               114.8142               555.5786

                     61                     62                     63
                      A                      A                      A
 Frequencies --   3039.0669              3041.3398              3042.4678
 Red. masses --      1.0346                 1.0576                 1.0355
 Frc consts  --      5.6302                 5.7637                 5.6472
 IR Inten    --     34.6878                29.6399                21.2838

                     64                     65                     66
                      A                      A                      A
 Frequencies --   3051.2245              3061.1763              3077.2235
 Red. masses --      1.0388                 1.0568                 1.0624
 Frc consts  --      5.6980                 5.8345                 5.9273
 IR Inten    --     22.1539                 9.1665                 7.4009

                     67                     68                     69
                      A                      A                      A
 Frequencies --   3092.3935              3106.1852              3108.5707
 Red. masses --      1.1055                 1.1026                 1.1035
 Frc consts  --      6.2285                 6.2680                 6.2827
 IR Inten    --     16.8614                 0.9376                13.1433

                     70                     71                     72
                      A                      A                      A
 Frequencies --   3109.6646              3110.6595              3114.3637
 Red. masses --      1.1033                 1.1019                 1.1030
 Frc consts  --      6.2860                 6.2821                 6.3034
 IR Inten    --      2.7082                18.9404                65.0973

                     73                     74                     75
                      A                      A                      A
 Frequencies --   3117.4126              3135.0837              3135.8237
 Red. masses --      1.1019                 1.1038                 1.1006
 Frc consts  --      6.3091                 6.3921                 6.3767
 IR Inten    --     67.4612                19.4491                26.8569

 - Thermochemistry -
 -------------------
 Temperature   298.150 Kelvin.  Pressure   1.00000 Atm.
 Atom     1 has atomic number  6 and mass  12.00000

 Molecular mass:   169.12151 amu.
 Principal axes and moments of inertia in atomic units:
                           1         2         3
     Eigenvalues --   985.737714432.369644602.09284
           X            0.99980  -0.01958  -0.00470
           Y            0.01994   0.99502   0.09770
           Z            0.00276  -0.09777   0.99520
 This molecule is an asymmetric top.
 Rotational symmetry number  1.
 Warning -- assumption of classical behavior for rotation
           may cause significant error
 Rotational temperatures (Kelvin)      0.08787     0.01954     0.01882
 Rotational constants (GHZ):           1.83085     0.40717     0.39216
 Zero-point vibrational energy     608437.6 (Joules/Mol)
                                  145.42007 (Kcal/Mol)
 Warning -- explicit consideration of  20 degrees of freedom as
           vibrations may cause significant error
 Vibrational temperatures:     20.86    32.90    52.21   123.83   153.54
          (Kelvin)            234.02   248.74   331.10   343.92   390.14
                              421.88   426.41   454.48   551.83   572.43
                              581.47   643.09   649.60   760.42   825.96
                              918.55  1009.04  1114.66  1142.13  1225.73
                             1302.02  1341.50  1364.70  1377.77  1402.90
                             1407.98  1472.65  1494.33  1536.96  1572.06
                             1643.52  1748.51  1773.13  1797.26  1812.58
                             1836.12  1901.98  1933.02  1938.91  1995.66
                             2003.18  2056.64  2063.10  2103.54  2156.23
                             2171.29  2176.09  2181.96  2184.61  2189.95
                             2211.10  2216.90  2225.60  2592.87  3264.13
                             4372.54  4375.81  4377.43  4390.03  4404.35
                             4427.44  4449.26  4469.11  4472.54  4474.11
                             4475.55  4480.87  4485.26  4510.69  4511.75

 Zero-point correction=                           0.231742 (Hartree/Particle)
 Thermal correction to Energy=                    0.245599
 Thermal correction to Enthalpy=                  0.246543
 Thermal correction to Gibbs Free Energy=         0.188743
 Sum of electronic and zero-point Energies=           -553.114658
 Sum of electronic and thermal Energies=              -553.100801
 Sum of electronic and thermal Enthalpies=            -553.099857
 Sum of electronic and thermal Free Energies=         -553.157656

                     E (Thermal)             CV                S
                      KCal/Mol        Cal/Mol-Kelvin    Cal/Mol-Kelvin
 Total                  154.116             49.612            121.650
 Electronic               0.000              0.000              0.000
 Translational            0.889              2.981             41.284
 Rotational               0.889              2.981             31.375
 Vibrational            152.338             43.650             48.990
 Vibration     1          0.593              1.986              7.273
 Vibration     2          0.593              1.985              6.369
 Vibration     3          0.594              1.982              5.452
 Vibration     4          0.601              1.959              3.748
 Vibration     5          0.606              1.944              3.328
 Vibration     6          0.623              1.888              2.519
 Vibration     7          0.626              1.876              2.404
 Vibration     8          0.652              1.795              1.878
 Vibration     9          0.657              1.781              1.810
 Vibration    10          0.675              1.726              1.589
 Vibration    11          0.688              1.686              1.455
 Vibration    12          0.690              1.681              1.437
 Vibration    13          0.703              1.643              1.331
 Vibration    14          0.753              1.505              1.025
 Vibration    15          0.764              1.475              0.971
 Vibration    16          0.769              1.461              0.948
 Vibration    17          0.806              1.368              0.805
 Vibration    18          0.810              1.358              0.791
 Vibration    19          0.883              1.187              0.591
 Vibration    20          0.930              1.087              0.496

                           ! Non-Optimized Parameters !
 Normal termination of Gaussian 16 at Wed Dec  9 17:10:52 2020.

 ----------------------------------------------------------------------
 # B3LYP/6-311++G(d,p) empiricaldispersion=gd3bj scf=xqc pop=npa geom=c
 heck
 ----------------------------------------------------------------------

 ---------------------------------------
 CID_150182342_JID_2185_Energie_neutraal
 ---------------------------------------
 Structure from the checkpoint file:  "JID_2185.chk"
 Charge =  0 Multiplicity = 1

 SCF Done:  E(RB3LYP) =  -553.505169661     A.U. after   15 cycles
 Normal termination of Gaussian 16 at Wed Dec  9 17:13:58 2020.

 ----------------------------------------------------------------------
 # B3LYP/6-311++G(d,p) empiricaldispersion=gd3bj scf=xqc pop=npa geom=c
 heck
 ----------------------------------------------------------------------

 -------------------------------------
 CID_150182342_JID_2185_Energie_kation
 -------------------------------------
 Structure from the checkpoint file:  "JID_2185.chk"
 Charge =  1 Multiplicity = 2

 SCF Done:  E(UB3LYP) =  -553.175688601     A.U. after   27 cycles
 Normal termination of Gaussian 16 at Wed Dec  9 17:21:03 2020.
 Gaussian 16:  ES64L-G16RevA.03 25-Dec-2016

 ----------------------------------------------------------------------
 # B3LYP/6-311++G(d,p) empiricaldispersion=gd3bj scf=xqc pop=npa geom=c
 heck
 ----------------------------------------------------------------------

 ------------------------------------
 CID_150182342_JID_2185_Energie_anion
 ------------------------------------
 Structure from the checkpoint file:  "JID_2185.chk"
 Charge = -1 Multiplicity = 2

                         Standard orientation:
 ---------------------------------------------------------------------
 Center     Atomic      Atomic             Coordinates (Angstroms)
 Number     Number       Type             X           Y           Z
 ---------------------------------------------------------------------
      1          6           0        3.065512    0.508537   -1.031481
      2          6           0        2.383754   -0.358655    0.039040
      3          6           0        3.076802   -1.729642    0.105001
      4          6           0        2.495314    0.329466    1.410483
      5          6           0        0.891775   -0.602871   -0.340470
      6          6           0        0.054041    0.659230   -0.371572
      7          8           0       -0.022790    1.360101   -1.365292
      8          6           0       -0.734289    1.051957    0.882571
      9          6           0       -2.230338    0.937717    0.603613
     10          7           0       -2.534921   -0.495219    0.366162
     11          7           0       -3.656888   -0.732591   -0.091083
     12          7           0       -4.661079   -1.076748   -0.512250
     13          1           0        4.118498    0.671699   -0.773283
     14          1           0        2.581187    1.484235   -1.130818
     15          1           0        3.028491    0.021051   -2.012179
     16          1           0        4.140506   -1.612791    0.343821
     17          1           0        2.625874   -2.366071    0.875672
     18          1           0        3.003066   -2.255365   -0.853963
     19          1           0        2.066341    1.338026    1.395648
     20          1           0        1.984120   -0.247237    2.190738
     21          1           0        3.547119    0.426071    1.702875
     22          1           0        0.855568   -1.044628   -1.341816
     23          1           0        0.450847   -1.314358    0.367101
     24          1           0       -0.466292    0.434088    1.743619
     25          1           0       -0.505437    2.097593    1.115742
     26          1           0       -2.813479    1.307563    1.456608
     27          1           0       -2.479305    1.536802   -0.280333
 ---------------------------------------------------------------------

 SCF Done:  E(UB3LYP) =  -553.501805576     A.U. after   33 cycles
 SCF Done:  E(UB3LYP) =  -553.501805576     a.u. after    1 cycles

 The electronic state is 2-A.
 Alpha  occ. eigenvalues --  -18.97743 -14.33897 -14.24009 -14.22859 -10.12008
 Alpha  occ. eigenvalues --  -10.09633 -10.08720 -10.06296 -10.05864 -10.05652
 Alpha  occ. eigenvalues --  -10.05623 -10.05351  -1.00607  -0.91334  -0.84829
 Alpha  occ. eigenvalues --   -0.72585  -0.67509  -0.60790  -0.59001  -0.58550
 Alpha  occ. eigenvalues --   -0.54404  -0.45160  -0.42330  -0.40563  -0.38794
 Alpha  occ. eigenvalues --   -0.37961  -0.36083  -0.35689  -0.35293  -0.32844
 Alpha  occ. eigenvalues --   -0.32759  -0.31597  -0.30406  -0.29338  -0.28423
 Alpha  occ. eigenvalues --   -0.27510  -0.26827  -0.25589  -0.25353  -0.24090
 Alpha  occ. eigenvalues --   -0.23138  -0.22398  -0.21248  -0.18084  -0.12916
 Alpha  occ. eigenvalues --   -0.12291   0.04524
 Alpha virt. eigenvalues --    0.06450   0.08023   0.08379   0.08916   0.09179
 Alpha virt. eigenvalues --    0.09907   0.10598   0.11201   0.11646   0.12297
 Alpha virt. eigenvalues --    0.12812   0.12890   0.13674   0.13818   0.14846

  Beta  occ. eigenvalues --  -18.97557 -14.33688 -14.23675 -14.22928 -10.11803
  Beta  occ. eigenvalues --  -10.09523 -10.08682 -10.06282 -10.05853 -10.05660
  Beta  occ. eigenvalues --  -10.05623 -10.05340  -1.00168  -0.90965  -0.84600
  Beta  occ. eigenvalues --   -0.72526  -0.67310  -0.60622  -0.58974  -0.58524
  Beta  occ. eigenvalues --   -0.54199  -0.44974  -0.42219  -0.40318  -0.38478
  Beta  occ. eigenvalues --   -0.37199  -0.35929  -0.35514  -0.35195  -0.32689
  Beta  occ. eigenvalues --   -0.32158  -0.31481  -0.30268  -0.29004  -0.28287
  Beta  occ. eigenvalues --   -0.27366  -0.26793  -0.25466  -0.25235  -0.23756
  Beta  occ. eigenvalues --   -0.23086  -0.22346  -0.20732  -0.17591  -0.12810
  Beta  occ. eigenvalues --   -0.12134
  Beta virt. eigenvalues --    0.06699   0.08231   0.08860   0.09175   0.09514
  Beta virt. eigenvalues --    0.10077   0.10669   0.10939   0.11319   0.11971
  Beta virt. eigenvalues --    0.12291   0.12999   0.13308   0.13822   0.14132

 Mulliken charges and spin densities:
               1          2
     1  C   -0.180280  -0.410725
     2  C   -0.523011   1.267244
     3  C   -0.031529  -0.451596
     4  C   -0.004247  -0.737074
     5  C    0.484079  -0.940716
     6  C   -0.129388   0.073328
     7  O   -0.284391   0.078609
     8  C   -0.660697   0.545550
     9  C    0.859406  -1.489825
    10  N   -0.617579   0.593527
    11  N    0.608336  -0.203854
    12  N   -0.192290  -0.070551
    13  H   -0.049185   0.179070
    14  H    0.132265   0.051625
    15  H    0.067209   0.057639
    16  H   -0.136123   0.274336
    17  H    0.042354   0.086968
    18  H    0.058735   0.066855
    19  H    0.051262   0.115451
    20  H    0.023238   0.116415
    21  H   -0.164604   0.321815
    22  H    0.234767  -0.054336
    23  H    0.096358   0.090091
    24  H    0.087910   0.087047
    25  H   -0.338197   0.529714
    26  H   -0.602024   0.791138
    27  H    0.167627   0.032254
 Sum of Mulliken charges =  -1.00000   1.00000

 Dipole moment (field-independent basis, Debye):
    X=              3.0760    Y=             -2.0731    Z=             -0.8139  Tot=              3.7976
 Quadrupole moment (field-independent basis, Debye-Ang):
   XX=           -146.7633   YY=           -103.0408   ZZ=           -100.9139
   XY=             -2.3660   XZ=             -1.9318   YZ=             -1.7059

 Summary of Natural Population Analysis:

                                       Natural Population
                Natural  -----------------------------------------------
    Atom  No    Charge         Core      Valence    Rydberg      Total
 -----------------------------------------------------------------------
      C    1   -0.28748      0.99962     2.28027    0.00758     3.28748
      C    2   -0.03927      0.99959     2.03057    0.00911     3.03927
      C    3   -0.28281      0.99962     2.27598    0.00720     3.28281
      C    4   -0.28723      0.99962     2.28053    0.00708     3.28723
      C    5   -0.23298      0.99954     2.22298    0.01045     3.23298
      C    6    0.32406      0.99966     1.65251    0.02377     2.67594
      O    7   -0.28319      0.99987     3.27666    0.00665     4.28319
      C    8   -0.23933      0.99957     2.22922    0.01053     3.23933
      C    9   -0.08154      0.99959     2.07062    0.01133     3.08154
      N   10   -0.21156      0.99970     2.69792    0.01394     3.71156
      N   11    0.13452      0.99971     2.35074    0.01504     3.36548
      N   12   -0.02578      0.99982     2.51190    0.01406     3.52578
      H   13    0.09558      0.00000     0.40360    0.00082     0.40442
      H   14    0.10944      0.00000     0.38979    0.00077     0.39056
      H   15    0.09767      0.00000     0.40159    0.00074     0.40233
      H   16    0.09879      0.00000     0.40031    0.00090     0.40121
      H   17    0.09814      0.00000     0.40109    0.00077     0.40186
      H   18    0.09731      0.00000     0.40189    0.00080     0.40269
      H   19    0.10241      0.00000     0.39650    0.00108     0.39759
      H   20    0.09901      0.00000     0.40003    0.00096     0.40099
      H   21    0.09859      0.00000     0.40053    0.00088     0.40141
      H   22    0.10636      0.00000     0.39256    0.00108     0.39364
      H   23    0.10595      0.00000     0.39272    0.00133     0.39405
      H   24    0.10126      0.00000     0.39709    0.00165     0.39874
      H   25    0.11302      0.00000     0.38481    0.00217     0.38698
      H   26    0.09391      0.00000     0.40321    0.00288     0.40609
      H   27    0.09516      0.00000     0.40341    0.00143     0.40484
 =======================================================================
   * Total *    0.00000     11.99593    33.84905    0.15503    46.00000

 Normal termination of Gaussian 16 at Wed Dec  9 17:29:39 2020.
