 Gaussian 16, Revision A.03,

 -----------------------------------------------------------
 # opt freq B3LYP/6-31G(d) empiricaldispersion=gd3bj scf=xqc
 -----------------------------------------------------------

 --------------------------
 CID_77813_JID_824_neutraal
 --------------------------
 Symbolic Z-matrix:
 Charge =  0 Multiplicity = 1

 SCF Done:  E(RB3LYP) =  -498.489838789     A.U. after   14 cycles
 SCF Done:  E(RB3LYP) =  -498.496844514     A.U. after   13 cycles
 SCF Done:  E(RB3LYP) =  -498.497522219     A.U. after   11 cycles
 SCF Done:  E(RB3LYP) =  -498.497406028     A.U. after   12 cycles
 SCF Done:  E(RB3LYP) =  -498.497737973     A.U. after   11 cycles
 SCF Done:  E(RB3LYP) =  -498.497752605     A.U. after    9 cycles
 SCF Done:  E(RB3LYP) =  -498.497761938     A.U. after   10 cycles
 SCF Done:  E(RB3LYP) =  -498.497764433     A.U. after    9 cycles
 SCF Done:  E(RB3LYP) =  -498.497765915     A.U. after    8 cycles
 Optimization completed.
    -- Stationary point found.

 1\1\GINC-NODE108\FOpt\RB3LYP\6-31G(d)\C7H10O3\VSC10255\08-Dec-2020\0\\
 # opt freq B3LYP/6-31G(d) empiricaldispersion=gd3bj scf=xqc\\CID_77813
 _JID_824_neutraal\\0,1\C,1.0797051373,0.076723656,-0.002521954\C,0.589
 3732138,0.0137614025,-1.4597282395\C,0.9951288381,1.2873505721,-2.2172
 742024\C,2.4899442935,1.4465745929,-2.3811894442\O,3.0645013689,2.4972
 767108,-2.4495068079\O,3.2477393642,0.2861179186,-2.4867613827\C,2.747
 9708054,-1.0051060553,-2.3648862834\O,3.5285713917,-1.9140815493,-2.42
 15432896\C,1.2527802881,-1.1587569296,-2.1982929055\C,-0.9351275687,-0

 Normal termination of Gaussian 16 at Tue Dec  8 12:30:43 2020.

 --------------------------------------------------------------------
 #N Geom=AllCheck Guess=TCheck SCRF=Check GenChk RB3LYP/6-31G(d) Freq
 --------------------------------------------------------------------

 Structure from the checkpoint file:  "JID_824.chk"
 --------------------------
 CID_77813_JID_824_neutraal
 --------------------------
 Charge =  0 Multiplicity = 1

 SCF Done:  E(RB3LYP) =  -498.497765915     A.U. after    1 cycles

  Exact polarizability:  78.839  -0.006  87.297   2.187   0.002  62.351
 Approx polarizability: 106.276  -0.019 137.687   4.496   0.009  91.119

                      1                      2                      3
                      A                      A                      A
 Frequencies --     53.2847               111.4529               152.6777
 Red. masses --      3.5486                 9.9060                 4.0551
 Frc consts  --      0.0059                 0.0725                 0.0557
 IR Inten    --      0.0432                 3.6148                 2.4876

                      4                      5                      6
                      A                      A                      A
 Frequencies --    233.4023               246.8997               284.3215
 Red. masses --      1.1372                 1.5472                 1.2100
 Frc consts  --      0.0365                 0.0556                 0.0576
 IR Inten    --      0.5561                 0.8994                 0.3055

                      7                      8                      9
                      A                      A                      A
 Frequencies --    331.4877               355.4045               361.8132
 Red. masses --      2.4749                 2.5566                 4.8009
 Frc consts  --      0.1602                 0.1903                 0.3703
 IR Inten    --      0.3283                 0.0036                 6.9123

                     10                     11                     12
                      A                      A                      A
 Frequencies --    426.4420               463.4029               464.1937
 Red. masses --      2.9670                 4.1121                 3.5390
 Frc consts  --      0.3179                 0.5203                 0.4493
 IR Inten    --      3.7436                 5.9484                 1.6221

                     13                     14                     15
                      A                      A                      A
 Frequencies --    551.6707               588.3374               612.0081
 Red. masses --      3.2390                 3.9245                 5.8984
 Frc consts  --      0.5808                 0.8004                 1.3017
 IR Inten    --      5.8335                18.1763                 4.8941

                     16                     17                     18
                      A                      A                      A
 Frequencies --    626.8900               814.3908               839.0652
 Red. masses --      3.5280                 3.1591                 5.0444
 Frc consts  --      0.8169                 1.2345                 2.0924
 IR Inten    --     21.4678                 5.1187                 5.9834

                     19                     20                     21
                      A                      A                      A
 Frequencies --    921.0011               941.8294               951.0688
 Red. masses --      1.8010                 2.5919                 2.3098
 Frc consts  --      0.9001                 1.3546                 1.2310
 IR Inten    --      0.2044                12.9260                 2.5631

                     22                     23                     24
                      A                      A                      A
 Frequencies --    968.7174               983.1411              1019.5169
 Red. masses --      1.4334                 2.7664                 1.9625
 Frc consts  --      0.7925                 1.5754                 1.2018
 IR Inten    --      0.2828                37.5939                 8.4533

                     25                     26                     27
                      A                      A                      A
 Frequencies --   1052.1230              1107.9508              1166.9452
 Red. masses --      1.4276                 3.7282                 1.7009
 Frc consts  --      0.9311                 2.6965                 1.3647
 IR Inten    --     14.8093               362.3497                 8.2346

                     28                     29                     30
                      A                      A                      A
 Frequencies --   1204.4721              1221.9200              1265.3376
 Red. masses --      2.2856                 1.4554                 3.8889
 Frc consts  --      1.9536                 1.2803                 3.6685
 IR Inten    --      6.8903               104.4286               124.0653

                     31                     32                     33
                      A                      A                      A
 Frequencies --   1302.8345              1323.6168              1341.3496
 Red. masses --      2.3191                 1.5573                 1.8135
 Frc consts  --      2.3193                 1.6075                 1.9224
 IR Inten    --     24.9103                 0.0638                11.2344

                     34                     35                     36
                      A                      A                      A
 Frequencies --   1383.3309              1435.7398              1456.5198
 Red. masses --      1.9237                 1.2370                 1.2139
 Frc consts  --      2.1689                 1.5023                 1.5173
 IR Inten    --     13.3547                 7.4525                 5.4758

                     37                     38                     39
                      A                      A                      A
 Frequencies --   1483.5892              1496.6743              1516.2329
 Red. masses --      1.0794                 1.0846                 1.0447
 Frc consts  --      1.3997                 1.4314                 1.4150
 IR Inten    --      5.7452                 4.7166                 0.1905

                     40                     41                     42
                      A                      A                      A
 Frequencies --   1524.4756              1537.7415              1540.3549
 Red. masses --      1.0557                 1.0608                 1.0577
 Frc consts  --      1.4456                 1.4779                 1.4787
 IR Inten    --      7.0718                 3.7526                 7.1838

                     43                     44                     45
                      A                      A                      A
 Frequencies --   1861.6704              1901.9214              3038.5415
 Red. masses --     12.7361                12.4715                 1.0695
 Frc consts  --     26.0070                26.5800                 5.8178
 IR Inten    --    428.7818               182.6730                 2.7521

                     46                     47                     48
                      A                      A                      A
 Frequencies --   3041.1929              3045.9692              3053.6853
 Red. masses --      1.0627                 1.0385                 1.0383
 Frc consts  --      5.7907                 5.6768                 5.7048
 IR Inten    --     13.7799                30.5590                 5.1966

                     49                     50                     51
                      A                      A                      A
 Frequencies --   3114.0019              3117.7136              3119.6475
 Red. masses --      1.1025                 1.1029                 1.1021
 Frc consts  --      6.2989                 6.3163                 6.3197
 IR Inten    --     21.8286                 7.0301                23.8320

                     52                     53                     54
                      A                      A                      A
 Frequencies --   3123.4066              3127.2162              3127.6799
 Red. masses --      1.0989                 1.0941                 1.0964
 Frc consts  --      6.3165                 6.3041                 6.3190
 IR Inten    --      4.4284                10.8729                37.5862

 - Thermochemistry -
 -------------------
 Temperature   298.150 Kelvin.  Pressure   1.00000 Atm.
 Atom     1 has atomic number  6 and mass  12.00000

 Molecular mass:   142.06299 amu.
 Principal axes and moments of inertia in atomic units:
                           1         2         3
     Eigenvalues --  1087.023171342.951832012.79802
           X            1.00000   0.00017   0.00039
           Y           -0.00017   1.00000   0.00002
           Z           -0.00039  -0.00002   1.00000
 This molecule is an asymmetric top.
 Rotational symmetry number  1.
 Warning -- assumption of classical behavior for rotation
           may cause significant error
 Rotational temperatures (Kelvin)      0.07968     0.06450     0.04303
 Rotational constants (GHZ):           1.66026     1.34386     0.89663
 Zero-point vibrational energy     432667.0 (Joules/Mol)
                                  103.40990 (Kcal/Mol)
 Warning -- explicit consideration of  15 degrees of freedom as
           vibrations may cause significant error
 Vibrational temperatures:     76.66   160.36   219.67   335.81   355.23
          (Kelvin)            409.08   476.94   511.35   520.57   613.55
                              666.73   667.87   793.73   846.49   880.54
                              901.95  1171.73  1207.23  1325.12  1355.08
                             1368.38  1393.77  1414.52  1466.86  1513.77
                             1594.09  1678.97  1732.97  1758.07  1820.54
                             1874.49  1904.39  1929.90  1990.30  2065.71
                             2095.61  2134.55  2153.38  2181.52  2193.38
                             2212.47  2216.23  2678.53  2736.44  4371.78
                             4375.60  4382.47  4393.57  4480.35  4485.69
                             4488.48  4493.89  4499.37  4500.03

 Zero-point correction=                           0.164794 (Hartree/Particle)
 Thermal correction to Energy=                    0.174373
 Thermal correction to Enthalpy=                  0.175317
 Thermal correction to Gibbs Free Energy=         0.130101
 Sum of electronic and zero-point Energies=           -498.332972
 Sum of electronic and thermal Energies=              -498.323393
 Sum of electronic and thermal Enthalpies=            -498.322449
 Sum of electronic and thermal Free Energies=         -498.367665

                     E (Thermal)             CV                S
                      KCal/Mol        Cal/Mol-Kelvin    Cal/Mol-Kelvin
 Total                  109.421             36.298             95.166
 Electronic               0.000              0.000              0.000
 Translational            0.889              2.981             40.765
 Rotational               0.889              2.981             29.465
 Vibrational            107.643             30.337             24.937
 Vibration     1          0.596              1.976              4.692
 Vibration     2          0.607              1.940              3.243
 Vibration     3          0.619              1.900              2.639
 Vibration     4          0.654              1.790              1.853
 Vibration     5          0.661              1.768              1.753
 Vibration     6          0.683              1.703              1.508
 Vibration     7          0.714              1.613              1.253
 Vibration     8          0.731              1.564              1.142
 Vibration     9          0.736              1.551              1.114
 Vibration    10          0.788              1.413              0.870
 Vibration    11          0.821              1.331              0.756
 Vibration    12          0.822              1.329              0.754
 Vibration    13          0.907              1.136              0.541
 Vibration    14          0.946              1.057              0.470
 Vibration    15          0.971              1.006              0.429

                           ! Non-Optimized Parameters !

 1\1\GINC-NODE108\Freq\RB3LYP\6-31G(d)\C7H10O3\VSC10255\08-Dec-2020\0\\
 #N Geom=AllCheck Guess=TCheck SCRF=Check GenChk RB3LYP/6-31G(d) Freq\\
 CID_77813_JID_824_neutraal\\0,1\C,1.0797051373,0.076723656,-0.00252195
 4\C,0.5893732138,0.0137614025,-1.4597282395\C,0.9951288381,1.287350572
 1,-2.2172742024\C,2.4899442935,1.4465745929,-2.3811894442\O,3.06450136
 89,2.4972767108,-2.4495068079\O,3.2477393642,0.2861179186,-2.486761382
 7\C,2.7479708054,-1.0051060553,-2.3648862834\O,3.5285713917,-1.9140815
 493,-2.4215432896\C,1.2527802881,-1.1587569296,-2.1982929055\C,-0.9351

 Normal termination of Gaussian 16 at Tue Dec  8 12:41:27 2020.

 ----------------------------------------------------------------------
 # B3LYP/6-311++G(d,p) empiricaldispersion=gd3bj scf=xqc pop=npa geom=c
 heck
 ----------------------------------------------------------------------

 ----------------------------------
 CID_77813_JID_824_Energie_neutraal
 ----------------------------------
 Structure from the checkpoint file:  "JID_824.chk"
 Charge =  0 Multiplicity = 1

 SCF Done:  E(RB3LYP) =  -498.644817525     A.U. after   13 cycles
 Normal termination of Gaussian 16 at Tue Dec  8 12:42:38 2020.

 ----------------------------------------------------------------------
 # B3LYP/6-311++G(d,p) empiricaldispersion=gd3bj scf=xqc pop=npa geom=c
 heck
 ----------------------------------------------------------------------

 --------------------------------
 CID_77813_JID_824_Energie_kation
 --------------------------------
 Structure from the checkpoint file:  "JID_824.chk"
 Charge =  1 Multiplicity = 2

 SCF Done:  E(UB3LYP) =  -498.273244246     A.U. after   18 cycles
 Normal termination of Gaussian 16 at Tue Dec  8 12:49:37 2020.
 Gaussian 16:  ES64L-G16RevA.03 25-Dec-2016

 -------------------------------
 CID_77813_JID_824_Energie_anion
 -------------------------------
 Structure from the checkpoint file:  "JID_824.chk"
 Charge = -1 Multiplicity = 2

                         Standard orientation:
 ---------------------------------------------------------------------
 Center     Atomic      Atomic             Coordinates (Angstroms)
 Number     Number       Type             X           Y           Z
 ---------------------------------------------------------------------
      1          6           0       -1.275236    0.001422    1.550902
      2          6           0       -1.221056   -0.000657    0.013078
      3          6           0       -0.454445    1.228881   -0.497889
      4          6           0        1.009367    1.233085   -0.118506
      5          8           0        1.667684    2.218865    0.064835
      6          8           0        1.641758    0.000927   -0.000488
      7          6           0        1.011242   -1.232190   -0.117766
      8          8           0        1.671355   -2.216923    0.064812
      9          6           0       -0.453339   -1.230829   -0.494538
     10          6           0       -2.644488   -0.002066   -0.556659
     11          1           0       -1.804286   -0.884326    1.918903
     12          1           0       -1.804471    0.888034    1.916544
     13          1           0       -0.275120    0.002113    1.999044
     14          1           0       -0.502503    1.264436   -1.595943
     15          1           0       -0.881783    2.165573   -0.130177
     16          1           0       -0.878888   -2.166825   -0.122949
     17          1           0       -0.502942   -1.270549   -1.592380
     18          1           0       -3.196124   -0.887595   -0.221524
     19          1           0       -3.197037    0.883683   -0.223630
     20          1           0       -2.635479   -0.003372   -1.652896
 ---------------------------------------------------------------------

 SCF Done:  E(UB3LYP) =  -498.638913944     A.U. after   32 cycles

 The electronic state is 2-A.
 Alpha  occ. eigenvalues --  -19.07450 -19.01554 -19.00641 -10.20609 -10.19522
 Alpha  occ. eigenvalues --  -10.09720 -10.08545 -10.08086 -10.06158 -10.05505
 Alpha  occ. eigenvalues --   -1.01944  -0.96045  -0.91366  -0.74576  -0.64209
 Alpha  occ. eigenvalues --   -0.62043  -0.59074  -0.55769  -0.47507  -0.42067
 Alpha  occ. eigenvalues --   -0.40402  -0.39015  -0.37142  -0.35942  -0.35385
 Alpha  occ. eigenvalues --   -0.33433  -0.31803  -0.30430  -0.28578  -0.28376
 Alpha  occ. eigenvalues --   -0.26455  -0.26413  -0.25412  -0.23872  -0.23677
 Alpha  occ. eigenvalues --   -0.21617  -0.18897  -0.16827   0.04499
 Alpha virt. eigenvalues --    0.06702   0.08080   0.08861   0.09225   0.10714
 Alpha virt. eigenvalues --    0.11307   0.11419   0.12476   0.12720   0.12809
 Alpha virt. eigenvalues --    0.14431   0.15525   0.15987   0.16284   0.17647

  Beta  occ. eigenvalues --  -19.07467 -19.01501 -19.00524 -10.20538 -10.19376
  Beta  occ. eigenvalues --  -10.09717 -10.08514 -10.08065 -10.06113 -10.05442
  Beta  occ. eigenvalues --   -1.01848  -0.95879  -0.91256  -0.74536  -0.64058
  Beta  occ. eigenvalues --   -0.61937  -0.58973  -0.55637  -0.47366  -0.41904
  Beta  occ. eigenvalues --   -0.40290  -0.38855  -0.36965  -0.35751  -0.35270
  Beta  occ. eigenvalues --   -0.33278  -0.31707  -0.30210  -0.28524  -0.28287
  Beta  occ. eigenvalues --   -0.26371  -0.26201  -0.25349  -0.23796  -0.23613
  Beta  occ. eigenvalues --   -0.21312  -0.18821  -0.16747
  Beta virt. eigenvalues --    0.07387   0.07826   0.09323   0.09806   0.09900
  Beta virt. eigenvalues --    0.11160   0.11968   0.12116   0.12911   0.13219
  Beta virt. eigenvalues --    0.13274   0.15002   0.15712   0.16200   0.16337

 Mulliken charges and spin densities:
               1          2
     1  C    1.310953  -1.839595
     2  C   -2.446029   2.938059
     3  C    1.219499  -1.598450
     4  C   -0.119421   0.162515
     5  O   -0.292166   0.049389
     6  O   -0.113527  -0.014997
     7  C   -0.074096   0.083353
     8  O   -0.268337   0.019777
     9  C    1.001852  -1.378348
    10  C    1.024738  -1.458855
    11  H   -0.288756   0.445008
    12  H   -0.146337   0.297892
    13  H    0.091970   0.075492
    14  H   -0.467101   0.688497
    15  H    0.109351   0.108019
    16  H   -0.100917   0.328784
    17  H   -0.061514   0.265024
    18  H   -0.402707   0.549466
    19  H   -0.428576   0.574190
    20  H   -0.548880   0.704780
 Sum of Mulliken charges =  -1.00000   1.00000

 Dipole moment (field-independent basis, Debye):
    X=              2.4935    Y=             -0.4021    Z=              1.4078  Tot=              2.8916
 Quadrupole moment (field-independent basis, Debye-Ang):
   XX=           -113.0801   YY=            -97.9122   ZZ=            -89.7799
   XY=             -0.7550   XZ=             -3.6617   YZ=              3.2857

 Summary of Natural Population Analysis:

                                       Natural Population
                Natural  -----------------------------------------------
    Atom  No    Charge         Core      Valence    Rydberg      Total
 -----------------------------------------------------------------------
      C    1   -0.28736      0.99962     2.28040    0.00734     3.28736
      C    2   -0.04593      0.99958     2.03343    0.01291     3.04593
      C    3   -0.24862      0.99954     2.23814    0.01094     3.24862
      C    4    0.43033      0.99966     1.54496    0.02505     2.56967
      O    5   -0.27443      0.99986     3.26836    0.00621     4.27443
      O    6   -0.28957      0.99984     3.28188    0.00786     4.28957
      C    7    0.42412      0.99966     1.55145    0.02477     2.57588
      O    8   -0.27947      0.99986     3.27346    0.00615     4.27947
      C    9   -0.24711      0.99953     2.23686    0.01071     3.24711
      C   10   -0.28326      0.99962     2.27544    0.00821     3.28326
      H   11    0.10486      0.00000     0.39390    0.00124     0.39514
      H   12    0.10423      0.00000     0.39476    0.00101     0.39577
      H   13    0.09946      0.00000     0.39926    0.00129     0.40054
      H   14    0.12406      0.00000     0.37225    0.00369     0.37594
      H   15    0.11764      0.00000     0.38128    0.00108     0.38236
      H   16    0.11938      0.00000     0.37939    0.00123     0.38062
      H   17    0.11937      0.00000     0.37920    0.00143     0.38063
      H   18    0.10330      0.00000     0.39462    0.00208     0.39670
      H   19    0.10395      0.00000     0.39383    0.00222     0.39605
      H   20    0.10506      0.00000     0.39178    0.00316     0.39494
 =======================================================================
   * Total *    0.00000      9.99677    27.86464    0.13859    38.00000

 Normal termination of Gaussian 16 at Tue Dec  8 13:04:06 2020.
