 Gaussian 16, Revision A.03,

 -----------------------------------------------------------
 # opt freq B3LYP/6-31G(d) empiricaldispersion=gd3bj scf=xqc
 -----------------------------------------------------------

 -----------------------------
 CID_23169922_JID_504_neutraal
 -----------------------------
 Symbolic Z-matrix:
 Charge =  0 Multiplicity = 1

 SCF Done:  E(RB3LYP) =  -571.174098826     A.U. after   13 cycles
 SCF Done:  E(RB3LYP) =  -571.179878075     A.U. after   13 cycles
 SCF Done:  E(RB3LYP) =  -571.177232325     A.U. after   13 cycles
 SCF Done:  E(RB3LYP) =  -571.180926487     A.U. after   11 cycles
 SCF Done:  E(RB3LYP) =  -571.181433056     A.U. after   11 cycles
 SCF Done:  E(RB3LYP) =  -571.182287472     A.U. after   11 cycles
 SCF Done:  E(RB3LYP) =  -571.182588448     A.U. after   12 cycles
 SCF Done:  E(RB3LYP) =  -571.182805620     A.U. after   10 cycles
 SCF Done:  E(RB3LYP) =  -571.182848247     A.U. after   10 cycles
 SCF Done:  E(RB3LYP) =  -571.182922254     A.U. after   10 cycles
 SCF Done:  E(RB3LYP) =  -571.182955877     A.U. after    9 cycles
 SCF Done:  E(RB3LYP) =  -571.182959763     A.U. after    8 cycles
 SCF Done:  E(RB3LYP) =  -571.182962556     A.U. after    8 cycles
 SCF Done:  E(RB3LYP) =  -571.182963128     A.U. after    7 cycles
 SCF Done:  E(RB3LYP) =  -571.182963580     A.U. after    7 cycles
 SCF Done:  E(RB3LYP) =  -571.182963834     A.U. after    8 cycles
 Optimization completed.
    -- Stationary point found.
 Normal termination of Gaussian 16 at Tue Dec  8 12:13:19 2020.

 --------------------------------------------------------------------
 #N Geom=AllCheck Guess=TCheck SCRF=Check GenChk RB3LYP/6-31G(d) Freq
 --------------------------------------------------------------------

 Structure from the checkpoint file:  "JID_504.chk"
 -----------------------------
 CID_23169922_JID_504_neutraal
 -----------------------------
 Charge =  0 Multiplicity = 1

 SCF Done:  E(RB3LYP) =  -571.182963834     A.U. after    1 cycles

  Exact polarizability:  79.426  -2.943  73.899   1.555   0.088  68.779
 Approx polarizability:  98.944  -2.935 104.572   4.590   0.125  96.490

                      1                      2                      3
                      A                      A                      A
 Frequencies --     41.4888                72.3623                75.6407
 Red. masses --      4.3218                 4.8879                 5.8371
 Frc consts  --      0.0044                 0.0151                 0.0197
 IR Inten    --      1.7487                 5.9519                 2.0401

                      4                      5                      6
                      A                      A                      A
 Frequencies --     97.0193               127.5496               146.9322
 Red. masses --      4.2364                 3.9045                 4.0243
 Frc consts  --      0.0235                 0.0374                 0.0512
 IR Inten    --      4.1638                 1.3713                 2.1225

                      7                      8                      9
                      A                      A                      A
 Frequencies --    179.1799               204.8575               212.7684
 Red. masses --      3.3169                 2.7340                 1.3017
 Frc consts  --      0.0627                 0.0676                 0.0347
 IR Inten    --      9.7040                18.2659                51.9950

                     10                     11                     12
                      A                      A                      A
 Frequencies --    247.2237               255.6110               274.4537
 Red. masses --      1.9283                 1.4251                 3.9168
 Frc consts  --      0.0694                 0.0549                 0.1738
 IR Inten    --     21.8987                49.8747                 4.2722

                     13                     14                     15
                      A                      A                      A
 Frequencies --    326.5829               368.7574               380.4207
 Red. masses --      2.9440                 2.1367                 2.0431
 Frc consts  --      0.1850                 0.1712                 0.1742
 IR Inten    --      2.8438                 3.6048                 9.6257

                     16                     17                     18
                      A                      A                      A
 Frequencies --    433.4194               442.0364               551.6145
 Red. masses --      2.3712                 2.1277                 2.8576
 Frc consts  --      0.2624                 0.2450                 0.5123
 IR Inten    --      1.0007                 8.5220                 4.9701

                     19                     20                     21
                      A                      A                      A
 Frequencies --    576.9164               597.7773               663.2282
 Red. masses --      1.7303                 1.5999                 1.1393
 Frc consts  --      0.3393                 0.3368                 0.2953
 IR Inten    --     60.9873                27.1038               205.5722

                     22                     23                     24
                      A                      A                      A
 Frequencies --    776.7902               847.7351               912.4748
 Red. masses --      3.1856                 1.1790                 1.8136
 Frc consts  --      1.1325                 0.4992                 0.8897
 IR Inten    --      1.2375                50.0214                50.3985

                     25                     26                     27
                      A                      A                      A
 Frequencies --    957.9805               959.6163               969.8439
 Red. masses --      5.0602                 1.8806                 1.6115
 Frc consts  --      2.7361                 1.0204                 0.8931
 IR Inten    --      9.3907                 3.1946                43.3637

                     28                     29                     30
                      A                      A                      A
 Frequencies --   1027.2161              1039.7884              1070.4434
 Red. masses --      1.8516                 1.9218                 3.2436
 Frc consts  --      1.1511                 1.2242                 2.1898
 IR Inten    --    112.3678               105.4911                86.1398

                     31                     32                     33
                      A                      A                      A
 Frequencies --   1087.4858              1104.2687              1146.3508
 Red. masses --      5.6859                 3.1990                 1.8289
 Frc consts  --      3.9618                 2.2983                 1.4160
 IR Inten    --     40.5786                85.6253                10.2077

                     34                     35                     36
                      A                      A                      A
 Frequencies --   1182.2858              1214.8238              1229.9918
 Red. masses --      1.4782                 1.2206                 1.0855
 Frc consts  --      1.2174                 1.0613                 0.9676
 IR Inten    --     51.5988                86.3691                20.0930

                     37                     38                     39
                      A                      A                      A
 Frequencies --   1261.0103              1277.1297              1334.5867
 Red. masses --      1.1942                 1.4999                 1.1049
 Frc consts  --      1.1189                 1.4414                 1.1594
 IR Inten    --     19.6181                15.9136                 0.8575

                     40                     41                     42
                      A                      A                      A
 Frequencies --   1346.2275              1367.0082              1388.5990
 Red. masses --      1.4702                 1.5843                 1.2834
 Frc consts  --      1.5699                 1.7443                 1.4580
 IR Inten    --      8.1224                 9.1414                 7.0214

                     43                     44                     45
                      A                      A                      A
 Frequencies --   1428.8320              1441.6511              1471.7320
 Red. masses --      1.3029                 1.3693                 1.2552
 Frc consts  --      1.5672                 1.6768                 1.6018
 IR Inten    --     40.1713                23.9052                83.5020

                     46                     47                     48
                      A                      A                      A
 Frequencies --   1480.3235              1529.3190              1534.7467
 Red. masses --      1.4310                 1.0864                 1.0735
 Frc consts  --      1.8476                 1.4970                 1.4897
 IR Inten    --      2.3324                 1.0341                 3.1485

                     49                     50                     51
                      A                      A                      A
 Frequencies --   1565.2599              1595.9153              1691.0843
 Red. masses --      1.0800                 1.1127                 1.0883
 Frc consts  --      1.5590                 1.6698                 1.8337
 IR Inten    --      6.9080                23.6237                36.8587

                     52                     53                     54
                      A                      A                      A
 Frequencies --   1707.1719              2982.4027              3048.9469
 Red. masses --      1.0415                 1.0655                 1.0572
 Frc consts  --      1.7885                 5.5840                 5.7905
 IR Inten    --      9.4376                65.9984                52.3819

                     55                     56                     57
                      A                      A                      A
 Frequencies --   3057.2912              3073.0290              3093.9230
 Red. masses --      1.0643                 1.1003                 1.1087
 Frc consts  --      5.8613                 6.1222                 6.2530
 IR Inten    --     27.3819                 4.0949                37.6124

                     58                     59                     60
                      A                      A                      A
 Frequencies --   3114.0641              3336.6583              3398.4561
 Red. masses --      1.1022                 1.0708                 1.0495
 Frc consts  --      6.2973                 7.0237                 7.1417
 IR Inten    --     28.8839               878.2173                 8.0151

                     61                     62                     63
                      A                      A                      A
 Frequencies --   3448.6653              3484.1990              3530.2249
 Red. masses --      1.0498                 1.0945                 1.0921
 Frc consts  --      7.3566                 7.8284                 8.0190
 IR Inten    --      1.3415                 3.1536                 4.0123

                     64                     65                     66
                      A                      A                      A
 Frequencies --   3675.1864              3703.1173              3777.7589
 Red. masses --      1.0650                 1.0655                 1.0669
 Frc consts  --      8.4753                 8.6087                 8.9706
 IR Inten    --     89.4483                45.5542                30.5538

 - Thermochemistry -
 -------------------
 Temperature   298.150 Kelvin.  Pressure   1.00000 Atm.
 Atom     1 has atomic number  6 and mass  12.00000

 Molecular mass:   154.09536 amu.
 Principal axes and moments of inertia in atomic units:
                           1         2         3
     Eigenvalues --  1162.121902321.394982601.98403
           X            0.99995  -0.00942  -0.00251
           Y            0.00941   0.99995  -0.00236
           Z            0.00253   0.00233   0.99999
 This molecule is an asymmetric top.
 Rotational symmetry number  1.
 Warning -- assumption of classical behavior for rotation
           may cause significant error
 Rotational temperatures (Kelvin)      0.07453     0.03731     0.03329
 Rotational constants (GHZ):           1.55297     0.77744     0.69360
 Zero-point vibrational energy     549967.9 (Joules/Mol)
                                  131.44549 (Kcal/Mol)
 Warning -- explicit consideration of  20 degrees of freedom as
           vibrations may cause significant error
 Vibrational temperatures:     59.69   104.11   108.83   139.59   183.52
          (Kelvin)            211.40   257.80   294.74   306.13   355.70
                              367.77   394.88   469.88   530.56   547.34
                              623.59   635.99   793.65   830.05   860.07
                              954.24  1117.63  1219.70  1312.85  1378.32
                             1380.67  1395.39  1477.93  1496.02  1540.13
                             1564.65  1588.80  1649.34  1701.05  1747.86
                             1769.68  1814.31  1837.50  1920.17  1936.92
                             1966.82  1997.88  2055.77  2074.21  2117.49
                             2129.86  2200.35  2208.16  2252.06  2296.17
                             2433.09  2456.24  4291.01  4386.75  4398.76
                             4421.40  4451.47  4480.44  4800.71  4889.62
                             4961.86  5012.99  5079.21  5287.77  5327.96
                             5435.35

 Zero-point correction=                           0.209472 (Hartree/Particle)
 Thermal correction to Energy=                    0.222816
 Thermal correction to Enthalpy=                  0.223761
 Thermal correction to Gibbs Free Energy=         0.169679
 Sum of electronic and zero-point Energies=           -570.973492
 Sum of electronic and thermal Energies=              -570.960147
 Sum of electronic and thermal Enthalpies=            -570.959203
 Sum of electronic and thermal Free Energies=         -571.013284

                     E (Thermal)             CV                S
                      KCal/Mol        Cal/Mol-Kelvin    Cal/Mol-Kelvin
 Total                  139.819             46.917            113.823
 Electronic               0.000              0.000              0.000
 Translational            0.889              2.981             41.007
 Rotational               0.889              2.981             30.330
 Vibrational            138.042             40.955             42.487
 Vibration     1          0.594              1.981              5.187
 Vibration     2          0.598              1.967              4.088
 Vibration     3          0.599              1.965              4.001
 Vibration     4          0.603              1.951              3.513
 Vibration     5          0.611              1.926              2.983
 Vibration     6          0.617              1.906              2.712
 Vibration     7          0.629              1.868              2.337
 Vibration     8          0.640              1.833              2.089
 Vibration     9          0.644              1.821              2.020
 Vibration    10          0.661              1.767              1.750
 Vibration    11          0.666              1.753              1.692
 Vibration    12          0.677              1.721              1.568
 Vibration    13          0.710              1.622              1.277
 Vibration    14          0.741              1.536              1.085
 Vibration    15          0.750              1.512              1.037
 Vibration    16          0.794              1.397              0.848
 Vibration    17          0.802              1.378              0.820
 Vibration    18          0.907              1.136              0.541
 Vibration    19          0.933              1.081              0.491
 Vibration    20          0.956              1.037              0.453

                           ! Non-Optimized Parameters !
 Normal termination of Gaussian 16 at Tue Dec  8 12:18:24 2020.

 ----------------------------------------------------------------------
 # B3LYP/6-311++G(d,p) empiricaldispersion=gd3bj scf=xqc pop=npa geom=c
 heck
 ----------------------------------------------------------------------

 -------------------------------------
 CID_23169922_JID_504_Energie_neutraal
 -------------------------------------
 Structure from the checkpoint file:  "JID_504.chk"
 Charge =  0 Multiplicity = 1

 SCF Done:  E(RB3LYP) =  -571.408747318     A.U. after   13 cycles
 Normal termination of Gaussian 16 at Tue Dec  8 12:22:52 2020.

 ----------------------------------------------------------------------
 # B3LYP/6-311++G(d,p) empiricaldispersion=gd3bj scf=xqc pop=npa geom=c
 heck
 ----------------------------------------------------------------------

 -----------------------------------
 CID_23169922_JID_504_Energie_kation
 -----------------------------------
 Structure from the checkpoint file:  "JID_504.chk"
 Charge =  1 Multiplicity = 2

 SCF Done:  E(UB3LYP) =  -571.082128942     A.U. after   24 cycles
 Normal termination of Gaussian 16 at Tue Dec  8 12:28:58 2020.
 Gaussian 16:  ES64L-G16RevA.03 25-Dec-2016

 ----------------------------------------------------------------------
 # B3LYP/6-311++G(d,p) empiricaldispersion=gd3bj scf=xqc pop=npa geom=c
 heck
 ----------------------------------------------------------------------

 ----------------------------------
 CID_23169922_JID_504_Energie_anion
 ----------------------------------
 Structure from the checkpoint file:  "JID_504.chk"
 Charge = -1 Multiplicity = 2

                         Standard orientation:
 ---------------------------------------------------------------------
 Center     Atomic      Atomic             Coordinates (Angstroms)
 Number     Number       Type             X           Y           Z
 ---------------------------------------------------------------------
      1          6           0        0.318851   -0.104997    1.161495
      2          6           0        0.455651   -0.179107   -0.376228
      3          6           0       -0.094166    1.096019   -1.019996
      4          8           0        0.581749    2.216301   -0.423570
      5          6           0        1.936046   -0.375948   -0.759172
      6          8           0        2.534781   -1.423172   -0.009514
      7          7           0       -0.383759   -1.312232   -0.814174
      8          8           0        1.362240    0.653244    1.759185
      9          7           0       -3.264857    0.298271    0.011616
     10          8           0       -2.886738   -1.016018    0.467614
     11          1           0        0.396028   -1.114319    1.575843
     12          1           0       -0.676259    0.276777    1.422765
     13          1           0        0.091736    1.081327   -2.107275
     14          1           0       -1.176385    1.143135   -0.846139
     15          1           0        0.052624    3.009147   -0.590378
     16          1           0        1.995872   -0.667392   -1.814983
     17          1           0        2.485945    0.565023   -0.641084
     18          1           0        2.663203   -1.048742    0.879516
     19          1           0       -0.440547   -1.331714   -1.833155
     20          1           0        0.097247   -2.171248   -0.542109
     21          1           0        1.317475    1.524742    1.324971
     22          1           0       -3.497698    0.790548    0.876594
     23          1           0       -4.165960    0.153751   -0.451918
     24          1           0       -2.037516   -1.171958   -0.021060
 ---------------------------------------------------------------------

 SCF Done:  E(UB3LYP) =  -571.398737358     A.U. after   27 cycles

 The electronic state is 2-A.
 Alpha  occ. eigenvalues --  -19.02645 -19.02041 -19.01719 -19.01159 -14.23017
 Alpha  occ. eigenvalues --  -14.21509 -10.11151 -10.10986 -10.10781 -10.10402
 Alpha  occ. eigenvalues --   -0.93572  -0.92521  -0.92167  -0.91073  -0.80802
 Alpha  occ. eigenvalues --   -0.68043  -0.65372  -0.58311  -0.56877  -0.47030
 Alpha  occ. eigenvalues --   -0.43077  -0.42247  -0.40489  -0.38565  -0.38349
 Alpha  occ. eigenvalues --   -0.36637  -0.36077  -0.34251  -0.33468  -0.31664
 Alpha  occ. eigenvalues --   -0.31303  -0.29629  -0.28715  -0.26772  -0.23811
 Alpha  occ. eigenvalues --   -0.22066  -0.20437  -0.18239  -0.17756  -0.16829
 Alpha  occ. eigenvalues --   -0.15811  -0.13917   0.04703
 Alpha virt. eigenvalues --    0.07108   0.07930   0.08570   0.10030   0.10700
 Alpha virt. eigenvalues --    0.11152   0.11886   0.12470   0.13003   0.14436
 Alpha virt. eigenvalues --    0.14748   0.15305   0.16810   0.16862   0.17427

  Beta  occ. eigenvalues --  -19.02640 -19.01972 -19.01710 -19.01146 -14.22963
  Beta  occ. eigenvalues --  -14.21490 -10.11132 -10.10971 -10.10783 -10.10362
  Beta  occ. eigenvalues --   -0.93548  -0.92486  -0.92105  -0.90992  -0.80768
  Beta  occ. eigenvalues --   -0.67928  -0.65309  -0.58268  -0.56781  -0.46982
  Beta  occ. eigenvalues --   -0.43004  -0.42166  -0.40455  -0.38514  -0.38289
  Beta  occ. eigenvalues --   -0.36576  -0.36041  -0.34200  -0.33431  -0.31626
  Beta  occ. eigenvalues --   -0.31255  -0.29606  -0.28675  -0.26715  -0.23791
  Beta  occ. eigenvalues --   -0.22029  -0.20414  -0.18222  -0.17691  -0.16803
  Beta  occ. eigenvalues --   -0.15786  -0.13873
  Beta virt. eigenvalues --    0.07362   0.08266   0.08609   0.09189   0.10598
  Beta virt. eigenvalues --    0.11302   0.11750   0.12232   0.12568   0.13424
  Beta virt. eigenvalues --    0.14797   0.15292   0.15509   0.16997   0.17092

 Mulliken charges and spin densities:
               1          2
     1  C    0.332266  -0.747127
     2  C   -1.522836   1.322060
     3  C    1.527103  -1.942052
     4  O   -0.390515   0.074066
     5  C    0.244034  -0.702626
     6  O   -0.243182   0.011804
     7  N   -0.332660   0.011761
     8  O   -0.229101  -0.008071
     9  N   -0.159940  -0.416042
    10  O   -0.360355   0.055113
    11  H    0.085035   0.120352
    12  H    0.222997  -0.038659
    13  H   -0.717055   0.874450
    14  H    0.110866   0.218657
    15  H   -0.500707   0.803037
    16  H   -0.131505   0.295467
    17  H    0.137277   0.050781
    18  H    0.214426   0.051216
    19  H    0.054552   0.187978
    20  H    0.173292   0.086062
    21  H    0.211608   0.058689
    22  H   -0.111461   0.360936
    23  H   -0.092540   0.346513
    24  H    0.478402  -0.074364
 Sum of Mulliken charges =  -1.00000   1.00000

 Dipole moment (field-independent basis, Debye):
    X=              3.1841    Y=             -5.3709    Z=              2.2851  Tot=              6.6488
 Quadrupole moment (field-independent basis, Debye-Ang):
   XX=           -108.8933   YY=           -106.2379   ZZ=            -95.1663
   XY=              3.1554   XZ=              1.5972   YZ=              5.8755

 Summary of Natural Population Analysis:

                                       Natural Population
                Natural  -----------------------------------------------
    Atom  No    Charge         Core      Valence    Rydberg      Total
 -----------------------------------------------------------------------
      C    1   -0.01753      0.99952     2.00203    0.01597     3.01753
      C    2    0.02042      0.99956     1.96397    0.01605     2.97958
      C    3   -0.02217      0.99950     2.00841    0.01426     3.02217
      O    4   -0.38875      0.99989     3.38168    0.00719     4.38875
      C    5   -0.01794      0.99952     2.00348    0.01494     3.01794
      O    6   -0.37922      0.99990     3.37263    0.00669     4.37922
      N    7   -0.43048      0.99974     2.91859    0.01215     3.93048
      O    8   -0.38708      0.99990     3.38077    0.00640     4.38708
      N    9   -0.26280      0.99978     2.74843    0.01458     3.76280
      O   10   -0.32877      0.99990     3.31870    0.01017     4.32877
      H   11    0.08533      0.00000     0.41337    0.00130     0.41467
      H   12    0.09338      0.00000     0.40513    0.00149     0.40662
      H   13    0.07897      0.00000     0.41757    0.00346     0.42103
      H   14    0.10737      0.00000     0.38741    0.00522     0.39263
      H   15    0.24787      0.00000     0.22853    0.02359     0.25213
      H   16    0.08651      0.00000     0.41204    0.00145     0.41349
      H   17    0.09156      0.00000     0.40698    0.00147     0.40844
      H   18    0.23533      0.00000     0.26176    0.00291     0.26467
      H   19    0.18294      0.00000     0.31536    0.00169     0.31706
      H   20    0.18395      0.00000     0.31433    0.00172     0.31605
      H   21    0.24536      0.00000     0.25110    0.00354     0.25464
      H   22    0.16601      0.00000     0.33139    0.00260     0.33399
      H   23    0.16404      0.00000     0.33335    0.00261     0.33596
      H   24    0.24570      0.00000     0.25054    0.00376     0.25430
 =======================================================================
   * Total *   -0.00000      9.99722    31.82755    0.17523    42.00000

 Normal termination of Gaussian 16 at Tue Dec  8 12:40:13 2020.
