 Gaussian 16, Revision A.03,

 -----------------------------------------------------------
 # opt freq B3LYP/6-31G(d) empiricaldispersion=gd3bj scf=xqc
 -----------------------------------------------------------

 -------------------------------
 CID_139030638_JID_8910_neutraal
 -------------------------------
 Symbolic Z-matrix:
 Charge =  0 Multiplicity = 1

 SCF Done:  E(RB3LYP) =  -841.685025757     A.U. after   16 cycles
 SCF Done:  E(RB3LYP) =  -841.691022573     A.U. after   13 cycles
 SCF Done:  E(RB3LYP) =  -841.691984283     A.U. after   13 cycles
 SCF Done:  E(RB3LYP) =  -841.692335606     A.U. after   12 cycles
 SCF Done:  E(RB3LYP) =  -841.692349649     A.U. after   12 cycles
 SCF Done:  E(RB3LYP) =  -841.692396820     A.U. after   11 cycles
 SCF Done:  E(RB3LYP) =  -841.692428609     A.U. after   10 cycles
 SCF Done:  E(RB3LYP) =  -841.692433464     A.U. after   10 cycles
 SCF Done:  E(RB3LYP) =  -841.692434862     A.U. after    9 cycles
 SCF Done:  E(RB3LYP) =  -841.692435374     A.U. after    8 cycles
 SCF Done:  E(RB3LYP) =  -841.692435478     A.U. after    8 cycles
 Optimization completed.
    -- Stationary point found.
 Normal termination of Gaussian 16 at Fri Dec 11 22:56:35 2020.

 --------------------------------------------------------------------
 #N Geom=AllCheck Guess=TCheck SCRF=Check GenChk RB3LYP/6-31G(d) Freq
 --------------------------------------------------------------------

 Structure from the checkpoint file:  "JID_8910.chk"
 -------------------------------
 CID_139030638_JID_8910_neutraal
 -------------------------------
 Charge =  0 Multiplicity = 1

 SCF Done:  E(RB3LYP) =  -841.692435478     A.U. after    1 cycles

  Exact polarizability: 225.541  -3.279 181.188  -1.652  -0.825  73.607
 Approx polarizability: 313.521 -10.864 383.071  -3.518  -3.526 117.680

                      1                      2                      3
                      A                      A                      A
 Frequencies --     43.2390                75.6693                93.5057
 Red. masses --      4.5428                 4.2215                 5.7114
 Frc consts  --      0.0050                 0.0142                 0.0294
 IR Inten    --      2.0922                 2.0465                 0.3745

                      4                      5                      6
                      A                      A                      A
 Frequencies --    131.0585               165.5545               178.5890
 Red. masses --      6.8491                 4.5456                 5.6169
 Frc consts  --      0.0693                 0.0734                 0.1056
 IR Inten    --      1.0509                 0.7442                 1.5064

                      7                      8                      9
                      A                      A                      A
 Frequencies --    208.0253               233.6457               245.1956
 Red. masses --      2.5624                 1.1532                 3.6843
 Frc consts  --      0.0653                 0.0371                 0.1305
 IR Inten    --      0.2933                 0.0128                 0.3692

                     10                     11                     12
                      A                      A                      A
 Frequencies --    282.2022               304.2245               312.5849
 Red. masses --      4.4241                 3.4275                 5.4526
 Frc consts  --      0.2076                 0.1869                 0.3139
 IR Inten    --      1.8868                 1.5726                 5.3165

                     13                     14                     15
                      A                      A                      A
 Frequencies --    350.2793               381.7848               418.7020
 Red. masses --      4.5258                 5.5315                10.2059
 Frc consts  --      0.3272                 0.4750                 1.0542
 IR Inten    --      2.3661                 3.5363                18.7869

                     16                     17                     18
                      A                      A                      A
 Frequencies --    441.5449               455.5899               481.5492
 Red. masses --      4.8372                 8.0331                 3.0867
 Frc consts  --      0.5556                 0.9824                 0.4217
 IR Inten    --      1.3526                11.7250                 1.3159

                     19                     20                     21
                      A                      A                      A
 Frequencies --    493.5451               528.5962               534.2146
 Red. masses --      4.5853                 5.1872                 4.4116
 Frc consts  --      0.6581                 0.8540                 0.7418
 IR Inten    --      1.0406                 1.2880                 3.4985

                     22                     23                     24
                      A                      A                      A
 Frequencies --    553.2655               571.4886               615.2639
 Red. masses --      4.5341                 4.7014                 7.2117
 Frc consts  --      0.8177                 0.9047                 1.6085
 IR Inten    --      1.1785                 2.8755                 9.2755

                     25                     26                     27
                      A                      A                      A
 Frequencies --    639.3856               698.9561               734.6323
 Red. masses --      6.1657                 4.3393                 5.3079
 Frc consts  --      1.4851                 1.2490                 1.6878
 IR Inten    --      1.4666                 0.6678                 4.6695

                     28                     29                     30
                      A                      A                      A
 Frequencies --    742.2965               753.7653               807.7171
 Red. masses --      4.8923                 6.5107                 1.2966
 Frc consts  --      1.5883                 2.1795                 0.4984
 IR Inten    --     13.1991                 4.9117               131.8891

                     31                     32                     33
                      A                      A                      A
 Frequencies --    814.8467               829.3869               839.3504
 Red. masses --      2.6351                 1.4001                 2.5960
 Frc consts  --      1.0308                 0.5674                 1.0776
 IR Inten    --      3.4649                 0.8723                 4.9072

                     34                     35                     36
                      A                      A                      A
 Frequencies --    877.9539               919.0432               930.1257
 Red. masses --      4.4241                 2.0844                 1.3804
 Frc consts  --      2.0092                 1.0373                 0.7036
 IR Inten    --     28.0689                 5.7411                 0.0643

                     37                     38                     39
                      A                      A                      A
 Frequencies --    967.3321               981.0878               997.0024
 Red. masses --      1.4411                 4.3722                 1.2984
 Frc consts  --      0.7945                 2.4795                 0.7604
 IR Inten    --      2.2378                58.5435                 0.6229

                     40                     41                     42
                      A                      A                      A
 Frequencies --   1004.4068              1056.4283              1062.7105
 Red. masses --      2.8215                 2.2623                 3.9586
 Frc consts  --      1.6771                 1.4876                 2.6340
 IR Inten    --     12.2551                21.0440                17.4842

                     43                     44                     45
                      A                      A                      A
 Frequencies --   1090.4522              1122.7857              1148.4949
 Red. masses --      1.9277                 1.8564                 2.2667
 Frc consts  --      1.3505                 1.3788                 1.7616
 IR Inten    --      7.8267                20.2499                96.5660

                     46                     47                     48
                      A                      A                      A
 Frequencies --   1182.5463              1192.6676              1228.1054
 Red. masses --      2.1715                 1.2809                 1.6820
 Frc consts  --      1.7892                 1.0735                 1.4946
 IR Inten    --      8.0190                37.0864                85.3864

                     49                     50                     51
                      A                      A                      A
 Frequencies --   1229.4801              1249.9194              1260.9954
 Red. masses --      2.0462                 2.4679                 1.4425
 Frc consts  --      1.8224                 2.2716                 1.3515
 IR Inten    --      4.0541               328.0746                10.7391

                     52                     53                     54
                      A                      A                      A
 Frequencies --   1315.6118              1339.5714              1350.3617
 Red. masses --      2.1286                 3.4299                 1.3655
 Frc consts  --      2.1707                 3.6263                 1.4670
 IR Inten    --    247.3564                82.2750                23.3949

                     55                     56                     57
                      A                      A                      A
 Frequencies --   1364.3466              1388.8124              1401.2587
 Red. masses --      3.4910                 1.5505                 2.9186
 Frc consts  --      3.8287                 1.7620                 3.3765
 IR Inten    --     17.6757                63.0150               141.9602

                     58                     59                     60
                      A                      A                      A
 Frequencies --   1418.0424              1426.6691              1439.0044
 Red. masses --      1.6242                 3.2652                 1.7826
 Frc consts  --      1.9242                 3.9157                 2.1749
 IR Inten    --     13.1941                77.1853                 6.5321

                     61                     62                     63
                      A                      A                      A
 Frequencies --   1449.5080              1501.9863              1510.6871
 Red. masses --      1.9508                 1.0901                 2.7539
 Frc consts  --      2.4149                 1.4490                 3.7030
 IR Inten    --      1.8983                 5.2765               106.6447

                     64                     65                     66
                      A                      A                      A
 Frequencies --   1513.2839              1517.3243              1528.6560
 Red. masses --      1.0911                 1.0640                 1.1282
 Frc consts  --      1.4721                 1.4432                 1.5534
 IR Inten    --      1.7308                 7.7894                 3.5380

                     67                     68                     69
                      A                      A                      A
 Frequencies --   1530.8976              1637.8356              1655.9100
 Red. masses --      2.3270                 3.8971                 5.9691
 Frc consts  --      3.2132                 6.1593                 9.6434
 IR Inten    --     78.5623                93.9489                34.5561

                     70                     71                     72
                      A                      A                      A
 Frequencies --   1672.4905              1714.2347              1728.8663
 Red. masses --      8.9237                 8.0694                12.0659
 Frc consts  --     14.7070                13.9712                21.2487
 IR Inten    --    298.6059               175.0524               130.8641

                     73                     74                     75
                      A                      A                      A
 Frequencies --   3026.3068              3042.4648              3057.5144
 Red. masses --      1.0839                 1.0723                 1.0593
 Frc consts  --      5.8485                 5.8484                 5.8345
 IR Inten    --     19.6040                14.1587                19.1707

                     76                     77                     78
                      A                      A                      A
 Frequencies --   3064.6301              3103.4954              3108.6644
 Red. masses --      1.0383                 1.0925                 1.1014
 Frc consts  --      5.7455                 6.1997                 6.2710
 IR Inten    --     27.4044                14.0927                20.6266

                     79                     80                     81
                      A                      A                      A
 Frequencies --   3136.4846              3144.6472              3199.7219
 Red. masses --      1.1029                 1.1032                 1.0884
 Frc consts  --      6.3926                 6.4277                 6.5656
 IR Inten    --     28.3417                14.8515                13.2321

                     82                     83                     84
                      A                      A                      A
 Frequencies --   3224.9350              3236.3993              3306.8923
 Red. masses --      1.0932                 1.0927                 1.0672
 Frc consts  --      6.6989                 6.7432                 6.8758
 IR Inten    --      6.4122                 2.9717               172.3618

 - Thermochemistry -
 -------------------
 Temperature   298.150 Kelvin.  Pressure   1.00000 Atm.
 Atom     1 has atomic number  6 and mass  12.00000

 Molecular mass:   244.07356 amu.
 Principal axes and moments of inertia in atomic units:
                           1         2         3
     Eigenvalues --  2229.422005733.238937883.52586
           X            0.99997  -0.00830   0.00094
           Y            0.00830   0.99997   0.00076
           Z           -0.00095  -0.00075   1.00000
 This molecule is an asymmetric top.
 Rotational symmetry number  1.
 Warning -- assumption of classical behavior for rotation
           may cause significant error
 Rotational temperatures (Kelvin)      0.03885     0.01511     0.01099
 Rotational constants (GHZ):           0.80951     0.31479     0.22893
 Zero-point vibrational energy     619179.4 (Joules/Mol)
                                  147.98742 (Kcal/Mol)
 Warning -- explicit consideration of  24 degrees of freedom as
           vibrations may cause significant error
 Vibrational temperatures:     62.21   108.87   134.53   188.56   238.20
          (Kelvin)            256.95   299.30   336.16   352.78   406.03
                              437.71   449.74   503.97   549.30   602.42
                              635.28   655.49   692.84   710.10   760.53
                              768.62   796.03   822.24   885.23   919.93
                             1005.64  1056.97  1068.00  1084.50  1162.12
                             1172.38  1193.30  1207.64  1263.18  1322.30
                             1338.24  1391.78  1411.57  1434.46  1445.12
                             1519.96  1529.00  1568.92  1615.44  1652.43
                             1701.42  1715.98  1766.97  1768.95  1798.36
                             1814.29  1892.87  1927.34  1942.87  1962.99
                             1998.19  2016.10  2040.25  2052.66  2070.41
                             2085.52  2161.02  2173.54  2177.28  2183.09
                             2199.40  2202.62  2356.48  2382.49  2406.34
                             2466.40  2487.45  4354.18  4377.43  4399.08
                             4409.32  4465.24  4472.67  4512.70  4524.45
                             4603.69  4639.96  4656.46  4757.88

 Zero-point correction=                           0.235833 (Hartree/Particle)
 Thermal correction to Energy=                    0.250123
 Thermal correction to Enthalpy=                  0.251067
 Thermal correction to Gibbs Free Energy=         0.194856
 Sum of electronic and zero-point Energies=           -841.456603
 Sum of electronic and thermal Energies=              -841.442312
 Sum of electronic and thermal Enthalpies=            -841.441368
 Sum of electronic and thermal Free Energies=         -841.497580

                     E (Thermal)             CV                S
                      KCal/Mol        Cal/Mol-Kelvin    Cal/Mol-Kelvin
 Total                  156.955             57.139            118.307
 Electronic               0.000              0.000              0.000
 Translational            0.889              2.981             42.378
 Rotational               0.889              2.981             32.977
 Vibrational            155.177             51.177             42.953
 Vibration     1          0.595              1.980              5.105
 Vibration     2          0.599              1.965              4.000
 Vibration     3          0.603              1.954              3.585
 Vibration     4          0.612              1.922              2.930
 Vibration     5          0.624              1.885              2.485
 Vibration     6          0.629              1.869              2.343
 Vibration     7          0.641              1.828              2.061
 Vibration     8          0.654              1.789              1.851
 Vibration     9          0.660              1.771              1.765
 Vibration    10          0.681              1.707              1.520
 Vibration    11          0.695              1.666              1.394
 Vibration    12          0.701              1.650              1.349
 Vibration    13          0.727              1.575              1.165
 Vibration    14          0.751              1.509              1.032
 Vibration    15          0.782              1.430              0.896
 Vibration    16          0.801              1.380              0.822
 Vibration    17          0.814              1.349              0.779
 Vibration    18          0.838              1.291              0.706
 Vibration    19          0.849              1.264              0.674
 Vibration    20          0.884              1.187              0.590
 Vibration    21          0.889              1.174              0.578
 Vibration    22          0.909              1.133              0.537
 Vibration    23          0.928              1.093              0.501
 Vibration    24          0.975              1.000              0.424

 Optimization completed.
    -- Stationary point found.
 Normal termination of Gaussian 16 at Fri Dec 11 23:07:53 2020.

 ----------------------------------------------------------------------
 # B3LYP/6-311++G(d,p) empiricaldispersion=gd3bj scf=xqc pop=npa geom=c
 heck
 ----------------------------------------------------------------------

 ---------------------------------------
 CID_139030638_JID_8910_Energie_neutraal
 ---------------------------------------
 Structure from the checkpoint file:  "JID_8910.chk"
 Charge =  0 Multiplicity = 1

 SCF Done:  E(RB3LYP) =  -841.924322391     A.U. after   17 cycles
 Normal termination of Gaussian 16 at Fri Dec 11 23:13:39 2020.

 ----------------------------------------------------------------------
 # B3LYP/6-311++G(d,p) empiricaldispersion=gd3bj scf=xqc pop=npa geom=c
 heck
 ----------------------------------------------------------------------

 -------------------------------------
 CID_139030638_JID_8910_Energie_kation
 -------------------------------------
 Structure from the checkpoint file:  "JID_8910.chk"
 Charge =  1 Multiplicity = 2

 SCF Done:  E(UB3LYP) =  -841.614653855     A.U. after   29 cycles
 Normal termination of Gaussian 16 at Fri Dec 11 23:27:31 2020.
 Gaussian 16:  ES64L-G16RevA.03 25-Dec-2016

 ----------------------------------------------------------------------
 # B3LYP/6-311++G(d,p) empiricaldispersion=gd3bj scf=xqc pop=npa geom=c
 heck
 ----------------------------------------------------------------------

 ------------------------------------
 CID_139030638_JID_8910_Energie_anion
 ------------------------------------
 Structure from the checkpoint file:  "JID_8910.chk"
 Charge = -1 Multiplicity = 2

                         Standard orientation:
 ---------------------------------------------------------------------
 Center     Atomic      Atomic             Coordinates (Angstroms)
 Number     Number       Type             X           Y           Z
 ---------------------------------------------------------------------
      1          6           0        4.476207   -1.413119    0.030625
      2          6           0        3.387691   -0.425437   -0.345282
      3          6           0        3.452650    0.899330    0.409359
      4          6           0        2.292126    1.806165   -0.008586
      5          6           0        1.010464    1.019288   -0.042695
      6          6           0        1.022914   -0.339931   -0.045772
      7          8           0        2.129364   -1.099422   -0.081562
      8          6           0       -0.229110   -1.152458    0.000771
      9          8           0       -0.157775   -2.390055    0.027461
     10          6           0       -1.501667   -0.435884    0.005911
     11          6           0       -1.535748    0.977403   -0.023029
     12          6           0       -0.261107    1.757560   -0.035895
     13          8           0       -0.269106    2.987613   -0.035770
     14          6           0       -2.745954    1.653319   -0.027314
     15          6           0       -3.945228    0.924410   -0.003846
     16          6           0       -3.938694   -0.460527    0.025816
     17          6           0       -2.717371   -1.160573    0.032244
     18          8           0       -2.756700   -2.498578    0.062700
     19          1           0        5.458575   -1.007092   -0.231664
     20          1           0        4.334932   -2.359414   -0.499174
     21          1           0        4.455421   -1.612503    1.106967
     22          1           0        3.410330   -0.227425   -1.426584
     23          1           0        3.402779    0.689626    1.485255
     24          1           0        4.417332    1.379540    0.214098
     25          1           0        2.173531    2.650298    0.677950
     26          1           0        2.482463    2.252422   -0.994138
     27          1           0       -2.737912    2.736940   -0.047041
     28          1           0       -4.894247    1.452867   -0.008096
     29          1           0       -4.857818   -1.036374    0.044737
     30          1           0       -1.814695   -2.812618    0.061222
 ---------------------------------------------------------------------

 SCF Done:  E(UB3LYP) =  -841.987997485     A.U. after   24 cycles

 The electronic state is 2-A.
 Alpha  occ. eigenvalues --  -19.03040 -19.00851 -18.95159 -18.93890 -10.13090
 Alpha  occ. eigenvalues --  -10.10648 -10.09523 -10.09494 -10.09106 -10.07596
 Alpha  occ. eigenvalues --  -10.07268 -10.05835 -10.04848 -10.04065 -10.03960
 Alpha  occ. eigenvalues --  -10.03937 -10.03563 -10.03369  -0.95482  -0.93278
 Alpha  occ. eigenvalues --   -0.88336  -0.87837  -0.72549  -0.70671  -0.68921
 Alpha  occ. eigenvalues --   -0.64276  -0.61097  -0.60191  -0.54926  -0.53227
 Alpha  occ. eigenvalues --   -0.51572  -0.48431  -0.46076  -0.44431  -0.41521
 Alpha  occ. eigenvalues --   -0.39532  -0.38049  -0.36527  -0.34695  -0.33879
 Alpha  occ. eigenvalues --   -0.33732  -0.32554  -0.31337  -0.30733  -0.29587
 Alpha  occ. eigenvalues --   -0.29427  -0.28929  -0.27811  -0.27553  -0.27325
 Alpha  occ. eigenvalues --   -0.25986  -0.25134  -0.24660  -0.24205  -0.23195
 Alpha  occ. eigenvalues --   -0.21953  -0.21513  -0.20137  -0.19802  -0.13691
 Alpha  occ. eigenvalues --   -0.11933  -0.10630  -0.10257  -0.09695  -0.00430
 Alpha virt. eigenvalues --    0.06853   0.08929   0.09135   0.09388   0.10509
 Alpha virt. eigenvalues --    0.10612   0.11136   0.11796   0.12262   0.12608
 Alpha virt. eigenvalues --    0.12777   0.13102   0.14476   0.15173   0.15715

  Beta  occ. eigenvalues --  -19.02982 -19.00828 -18.94560 -18.93385 -10.13093
  Beta  occ. eigenvalues --  -10.10624 -10.09374 -10.09260 -10.08981 -10.07595
  Beta  occ. eigenvalues --  -10.07266 -10.05843 -10.04764 -10.04067 -10.03879
  Beta  occ. eigenvalues --  -10.03840 -10.03496 -10.03382  -0.95323  -0.93182
  Beta  occ. eigenvalues --   -0.87354  -0.86965  -0.72325  -0.70636  -0.68680
  Beta  occ. eigenvalues --   -0.64018  -0.60884  -0.60071  -0.54448  -0.53103
  Beta  occ. eigenvalues --   -0.51249  -0.48285  -0.45779  -0.44256  -0.41300
  Beta  occ. eigenvalues --   -0.39374  -0.37895  -0.36430  -0.34511  -0.33787
  Beta  occ. eigenvalues --   -0.33502  -0.32427  -0.31211  -0.30079  -0.29412
  Beta  occ. eigenvalues --   -0.29140  -0.28686  -0.27533  -0.27200  -0.27095
  Beta  occ. eigenvalues --   -0.25793  -0.24333  -0.23742  -0.23445  -0.22877
  Beta  occ. eigenvalues --   -0.21814  -0.20671  -0.19484  -0.19208  -0.12003
  Beta  occ. eigenvalues --   -0.11431  -0.09834  -0.09746  -0.08938
  Beta virt. eigenvalues --    0.05726   0.06880   0.08930   0.09127   0.09388
  Beta virt. eigenvalues --    0.10609   0.11133   0.11479   0.12096   0.12366
  Beta virt. eigenvalues --    0.12684   0.13093   0.13452   0.14469   0.15178

 Mulliken charges and spin densities:
               1          2
     1  C   -0.568828  -0.004690
     2  C    0.213879   0.005659
     3  C   -0.409038  -0.021319
     4  C   -0.485505   0.022234
     5  C    1.470529   0.005815
     6  C   -1.511029   0.083306
     7  O   -0.021776   0.010254
     8  C   -0.609270   0.133847
     9  O   -0.410276   0.221383
    10  C    0.679354   0.025576
    11  C    0.931900   0.073676
    12  C   -0.748505   0.061251
    13  O   -0.346373   0.186842
    14  C    0.023541   0.015504
    15  C   -0.308059   0.070802
    16  C   -0.027927   0.039798
    17  C   -0.470153   0.051623
    18  O   -0.323884   0.006980
    19  H    0.119611   0.001300
    20  H    0.155679  -0.001431
    21  H    0.145629   0.001782
    22  H    0.153707   0.008651
    23  H    0.149391   0.001505
    24  H    0.133691   0.002423
    25  H    0.183921   0.000547
    26  H    0.163511   0.010559
    27  H    0.142105  -0.000920
    28  H    0.122986  -0.005179
    29  H    0.135926  -0.004076
    30  H    0.315261  -0.003703
 Sum of Mulliken charges =  -1.00000   1.00000

 Dipole moment (field-independent basis, Debye):
    X=              5.1484    Y=              0.0672    Z=             -0.1444  Tot=              5.1509
 Quadrupole moment (field-independent basis, Debye-Ang):
   XX=           -123.0570   YY=           -144.8305   ZZ=           -110.1219
   XY=             -1.5966   XZ=             -0.6453   YZ=              0.7148

 Summary of Natural Population Analysis:

                                       Natural Population
                Natural  -----------------------------------------------
    Atom  No    Charge         Core      Valence    Rydberg      Total
 -----------------------------------------------------------------------
      C    1   -0.28887      0.99964     2.28421    0.00502     3.28887
      C    2    0.06799      0.99956     1.92175    0.01071     2.93201
      C    3   -0.20011      0.99962     2.19380    0.00669     3.20011
      C    4   -0.19866      0.99961     2.18993    0.00911     3.19866
      C    5   -0.07224      0.99944     2.06484    0.00795     3.07224
      C    6    0.17683      0.99934     1.81045    0.01338     2.82317
      O    7   -0.26825      0.99985     3.25625    0.01216     4.26825
      C    8    0.28006      0.99946     1.70216    0.01832     2.71994
      O    9   -0.24684      0.99987     3.23977    0.00720     4.24684
      C   10   -0.09029      0.99938     2.08282    0.00808     3.09029
      C   11   -0.01342      0.99948     2.00478    0.00916     3.01342
      C   12    0.26223      0.99956     1.71827    0.01994     2.73777
      O   13   -0.25081      0.99989     3.24488    0.00604     4.25081
      C   14   -0.11387      0.99954     2.10478    0.00955     3.11387
      C   15   -0.08402      0.99961     2.07470    0.00971     3.08402
      C   16   -0.12071      0.99943     2.11111    0.01016     3.12071
      C   17    0.18342      0.99943     1.80329    0.01386     2.81658
      O   18   -0.35369      0.99987     3.34602    0.00780     4.35369
      H   19    0.09411      0.00000     0.40506    0.00083     0.40589
      H   20    0.10481      0.00000     0.39428    0.00091     0.39519
      H   21    0.10008      0.00000     0.39889    0.00103     0.39992
      H   22    0.07921      0.00000     0.41901    0.00179     0.42079
      H   23    0.09698      0.00000     0.40185    0.00118     0.40302
      H   24    0.09529      0.00000     0.40364    0.00106     0.40471
      H   25    0.11147      0.00000     0.38715    0.00138     0.38853
      H   26    0.09903      0.00000     0.39957    0.00140     0.40097
      H   27    0.11103      0.00000     0.38787    0.00109     0.38897
      H   28    0.08991      0.00000     0.40895    0.00114     0.41009
      H   29    0.09878      0.00000     0.40014    0.00109     0.40122
      H   30    0.25061      0.00000     0.24587    0.00353     0.24939
 =======================================================================
   * Total *    0.00005     17.99257    45.80610    0.20128    63.99995

 Normal termination of Gaussian 16 at Fri Dec 11 23:38:59 2020.
