 Gaussian 16, Revision A.03,

 -----------------------------------------------------------
 # opt freq B3LYP/6-31G(d) empiricaldispersion=gd3bj scf=xqc
 -----------------------------------------------------------

 -------------------------------
 CID_107472339_JID_7448_neutraal
 -------------------------------
 Symbolic Z-matrix:
 Charge =  0 Multiplicity = 1

 SCF Done:  E(RB3LYP) =  -771.019290684     A.U. after   14 cycles
 SCF Done:  E(RB3LYP) =  -771.025902792     A.U. after   12 cycles
 SCF Done:  E(RB3LYP) =  -771.024950160     A.U. after   12 cycles
 SCF Done:  E(RB3LYP) =  -771.026686301     A.U. after   11 cycles
 SCF Done:  E(RB3LYP) =  -771.027479586     A.U. after   11 cycles
 SCF Done:  E(RB3LYP) =  -771.029112919     A.U. after   12 cycles
 SCF Done:  E(RB3LYP) =  -771.029872458     A.U. after   12 cycles
 SCF Done:  E(RB3LYP) =  -771.030204210     A.U. after   10 cycles
 SCF Done:  E(RB3LYP) =  -771.029767510     A.U. after   11 cycles
 SCF Done:  E(RB3LYP) =  -771.029870435     A.U. after   11 cycles
 SCF Done:  E(RB3LYP) =  -771.030588005     A.U. after    9 cycles
 SCF Done:  E(RB3LYP) =  -771.030588783     A.U. after    8 cycles
 SCF Done:  E(RB3LYP) =  -771.030588935     A.U. after    7 cycles
 SCF Done:  E(RB3LYP) =  -771.030588979     A.U. after    7 cycles
 SCF Done:  E(RB3LYP) =  -771.030589009     A.U. after    7 cycles
 SCF Done:  E(RB3LYP) =  -771.030589013     A.U. after    6 cycles
 Optimization completed on the basis of negligible forces.
    -- Stationary point found.
 Normal termination of Gaussian 16 at Fri Dec 11 12:27:49 2020.

 --------------------------------------------------------------------
 #N Geom=AllCheck Guess=TCheck SCRF=Check GenChk RB3LYP/6-31G(d) Freq
 --------------------------------------------------------------------

 Structure from the checkpoint file:  "JID_7448.chk"
 -------------------------------
 CID_107472339_JID_7448_neutraal
 -------------------------------
 Charge =  0 Multiplicity = 1

 SCF Done:  E(RB3LYP) =  -771.030589013     A.U. after    1 cycles

  Exact polarizability: 170.263  -2.982 145.335  -3.727  -0.658 143.346
 Approx polarizability: 215.547  -1.092 200.628 -11.366  -7.333 225.692

                      1                      2                      3
                      A                      A                      A
 Frequencies --     11.6703                21.0959                32.6526
 Red. masses --      2.7318                 5.0034                 4.5545
 Frc consts  --      0.0002                 0.0013                 0.0029
 IR Inten    --      0.1290                 0.9911                 0.3087

                      4                      5                      6
                      A                      A                      A
 Frequencies --     47.0763                69.9282                89.7623
 Red. masses --      4.9731                 3.0493                 3.3131
 Frc consts  --      0.0065                 0.0088                 0.0157
 IR Inten    --      0.7453                 0.3032                 1.1241

                      7                      8                      9
                      A                      A                      A
 Frequencies --     96.7189               113.9123               151.4521
 Red. masses --      3.6926                 2.7303                 3.1720
 Frc consts  --      0.0204                 0.0209                 0.0429
 IR Inten    --      1.7517                 0.5498                 2.3182

                     10                     11                     12
                      A                      A                      A
 Frequencies --    170.2598               207.4649               221.5904
 Red. masses --      3.4917                 2.5318                 1.4212
 Frc consts  --      0.0596                 0.0642                 0.0411
 IR Inten    --      1.0347                 2.3039                 0.8097

                     13                     14                     15
                      A                      A                      A
 Frequencies --    224.8505               241.3157               262.6372
 Red. masses --      3.4629                 1.6377                 1.4762
 Frc consts  --      0.1032                 0.0562                 0.0600
 IR Inten    --      5.4870                 0.1168                 7.6136

                     16                     17                     18
                      A                      A                      A
 Frequencies --    280.6912               282.1366               289.4905
 Red. masses --      1.2284                 1.2321                 1.7113
 Frc consts  --      0.0570                 0.0578                 0.0845
 IR Inten    --      2.7330                88.6461                29.8298

                     19                     20                     21
                      A                      A                      A
 Frequencies --    317.1026               331.3419               336.4505
 Red. masses --      1.2911                 2.3207                 2.0042
 Frc consts  --      0.0765                 0.1501                 0.1337
 IR Inten    --      4.2160                 0.3442                 2.9302

                     22                     23                     24
                      A                      A                      A
 Frequencies --    364.9978               401.4273               409.5988
 Red. masses --      2.1531                 2.5364                 2.2314
 Frc consts  --      0.1690                 0.2408                 0.2206
 IR Inten    --      0.5671                 4.1173                 0.8230

                     25                     26                     27
                      A                      A                      A
 Frequencies --    422.7682               426.1736               441.8071
 Red. masses --      1.9748                 2.3519                 3.0909
 Frc consts  --      0.2080                 0.2517                 0.3555
 IR Inten    --      0.6121                14.5153                 8.7528

                     28                     29                     30
                      A                      A                      A
 Frequencies --    478.4425               516.7645               610.4368
 Red. masses --      2.6304                 2.7276                 2.0273
 Frc consts  --      0.3548                 0.4292                 0.4451
 IR Inten    --      0.6208                 4.0454                41.3260

                     31                     32                     33
                      A                      A                      A
 Frequencies --    627.4004               654.7271               683.7143
 Red. masses --      2.1101                 2.0515                 3.3910
 Frc consts  --      0.4894                 0.5181                 0.9340
 IR Inten    --     25.6602                48.5865                25.6090

                     34                     35                     36
                      A                      A                      A
 Frequencies --    738.5258               764.3994               787.0489
 Red. masses --      3.9105                 2.8161                 2.1393
 Frc consts  --      1.2567                 0.9695                 0.7808
 IR Inten    --     16.9264                 4.2364                 5.7159

                     37                     38                     39
                      A                      A                      A
 Frequencies --    793.6879               847.5195               854.5542
 Red. masses --      2.0912                 2.5542                 2.2106
 Frc consts  --      0.7761                 1.0810                 0.9511
 IR Inten    --      1.1829                29.9047                 3.6662

                     40                     41                     42
                      A                      A                      A
 Frequencies --    878.1305               896.5546               911.8914
 Red. masses --      1.5849                 2.0547                 3.4390
 Frc consts  --      0.7201                 0.9731                 1.6849
 IR Inten    --     55.9275                41.2147                 5.6043

                     43                     44                     45
                      A                      A                      A
 Frequencies --    929.8373               940.3625               943.9169
 Red. masses --      2.0835                 1.7267                 1.8409
 Frc consts  --      1.0614                 0.8996                 0.9664
 IR Inten    --      2.3374                 9.6848                 4.9236

                     46                     47                     48
                      A                      A                      A
 Frequencies --    950.7270               969.3483               972.4361
 Red. masses --      1.6634                 1.5114                 1.3959
 Frc consts  --      0.8859                 0.8368                 0.7777
 IR Inten    --      0.8708                 1.0975                 0.6709

                     49                     50                     51
                      A                      A                      A
 Frequencies --    990.7990              1002.2674              1036.4590
 Red. masses --      2.0444                 1.8807                 1.9199
 Frc consts  --      1.1825                 1.1131                 1.2152
 IR Inten    --      2.9933                 6.9481                 0.5412

                     52                     53                     54
                      A                      A                      A
 Frequencies --   1054.2122              1061.5074              1065.6609
 Red. masses --      1.6896                 1.7174                 1.5329
 Frc consts  --      1.1063                 1.1401                 1.0257
 IR Inten    --      0.3234                 9.5662                 4.9758

                     55                     56                     57
                      A                      A                      A
 Frequencies --   1085.0787              1101.3863              1133.3457
 Red. masses --      1.7779                 1.5178                 2.5727
 Frc consts  --      1.2333                 1.0848                 1.9470
 IR Inten    --      2.7093                21.8091                 8.6234

                     58                     59                     60
                      A                      A                      A
 Frequencies --   1147.5575              1161.4555              1192.9301
 Red. masses --      2.2430                 2.6532                 1.3078
 Frc consts  --      1.7403                 2.1088                 1.0965
 IR Inten    --    107.0008                 9.2576                 5.2239

                     61                     62                     63
                      A                      A                      A
 Frequencies --   1196.8562              1225.4013              1236.6736
 Red. masses --      1.4054                 1.6176                 1.5457
 Frc consts  --      1.1861                 1.4311                 1.3928
 IR Inten    --     21.2768                32.2762                14.3071

                     64                     65                     66
                      A                      A                      A
 Frequencies --   1242.2809              1271.7860              1279.5491
 Red. masses --      2.1547                 1.2654                 1.3890
 Frc consts  --      1.9592                 1.2059                 1.3399
 IR Inten    --      9.6425                 7.1340                26.4818

                     67                     68                     69
                      A                      A                      A
 Frequencies --   1283.8763              1285.7038              1319.4344
 Red. masses --      1.5931                 2.4394                 1.6059
 Frc consts  --      1.5471                 2.3758                 1.6471
 IR Inten    --      9.8230                12.1840                 2.5905

                     70                     71                     72
                      A                      A                      A
 Frequencies --   1320.0531              1331.2182              1346.5002
 Red. masses --      1.6037                 1.5751                 1.3466
 Frc consts  --      1.6464                 1.6446                 1.4385
 IR Inten    --     46.8688                 1.6832                14.9561

                     73                     74                     75
                      A                      A                      A
 Frequencies --   1364.1950              1380.5302              1384.3633
 Red. masses --      1.1946                 1.4818                 1.4004
 Frc consts  --      1.3099                 1.6639                 1.5813
 IR Inten    --      8.5661                 1.3773                27.8711

                     76                     77                     78
                      A                      A                      A
 Frequencies --   1397.0537              1403.1587              1426.7582
 Red. masses --      1.5850                 1.3572                 1.2537
 Frc consts  --      1.8226                 1.5744                 1.5037
 IR Inten    --     77.0638                 4.2727                 5.1666

                     79                     80                     81
                      A                      A                      A
 Frequencies --   1431.6156              1441.2036              1448.3900
 Red. masses --      1.2400                 1.3636                 1.3022
 Frc consts  --      1.4973                 1.6687                 1.6095
 IR Inten    --      4.9359                14.9974                84.5124

                     82                     83                     84
                      A                      A                      A
 Frequencies --   1449.2644              1460.2268              1490.1611
 Red. masses --      1.3698                 1.2303                 1.0964
 Frc consts  --      1.6951                 1.5456                 1.4345
 IR Inten    --     32.0629                 4.5325                10.0187

                     85                     86                     87
                      A                      A                      A
 Frequencies --   1511.1482              1514.5136              1515.6084
 Red. masses --      1.0657                 1.1019                 1.0500
 Frc consts  --      1.4338                 1.4892                 1.4210
 IR Inten    --      2.5343                 1.1456                 0.9819

                     88                     89                     90
                      A                      A                      A
 Frequencies --   1515.7589              1519.8617              1523.9181
 Red. masses --      1.1192                 1.4674                 1.1294
 Frc consts  --      1.5150                 1.9972                 1.5453
 IR Inten    --      3.2258                39.7694                10.5167

                     91                     92                     93
                      A                      A                      A
 Frequencies --   1532.9203              1540.0024              1543.4851
 Red. masses --      1.0809                 1.0619                 1.0831
 Frc consts  --      1.4965                 1.4838                 1.5203
 IR Inten    --      6.1838                 3.8842                10.7356

                     94                     95                     96
                      A                      A                      A
 Frequencies --   1544.7686              1550.8876              1695.3781
 Red. masses --      1.0844                 1.0624                 1.0871
 Frc consts  --      1.5246                 1.5056                 1.8410
 IR Inten    --     15.4675                16.2315                32.2882

                     97                     98                     99
                      A                      A                      A
 Frequencies --   1765.8695              3004.6180              3009.0959
 Red. masses --      6.9721                 1.0719                 1.0731
 Frc consts  --     12.8095                 5.7013                 5.7249
 IR Inten    --    347.5652                72.9245                42.8688

                    100                    101                    102
                      A                      A                      A
 Frequencies --   3035.9719              3038.5504              3039.7306
 Red. masses --      1.0356                 1.0845                 1.0371
 Frc consts  --      5.6240                 5.8993                 5.6459
 IR Inten    --     28.7684                33.7530                43.7440

                    103                    104                    105
                      A                      A                      A
 Frequencies --   3047.9687              3060.5411              3061.8724
 Red. masses --      1.0381                 1.0589                 1.0592
 Frc consts  --      5.6824                 5.8437                 5.8504
 IR Inten    --     14.7249                33.3762                22.4881

                    106                    107                    108
                      A                      A                      A
 Frequencies --   3076.0406              3084.3381              3095.2507
 Red. masses --      1.0591                 1.0918                 1.1006
 Frc consts  --      5.9045                 6.1195                 6.2127
 IR Inten    --     17.8753                28.8668                 3.4654

                    109                    110                    111
                      A                      A                      A
 Frequencies --   3097.5119              3104.7974              3106.8331
 Red. masses --      1.0998                 1.0986                 1.1026
 Frc consts  --      6.2171                 6.2397                 6.2703
 IR Inten    --     13.1592                22.4784                 6.5906

                    112                    113                    114
                      A                      A                      A
 Frequencies --   3110.6471              3111.8895              3113.0938
 Red. masses --      1.0925                 1.0936                 1.1006
 Frc consts  --      6.2282                 6.2397                 6.2842
 IR Inten    --     62.7468                44.3970                48.6888

                    115                    116                    117
                      A                      A                      A
 Frequencies --   3118.5567              3119.0310              3123.5664
 Red. masses --      1.1032                 1.1004                 1.0977
 Frc consts  --      6.3214                 6.3071                 6.3103
 IR Inten    --     36.8321                17.9722                52.5862

                    118                    119                    120
                      A                      A                      A
 Frequencies --   3129.0708              3132.8385              3484.7200
 Red. masses --      1.0926                 1.1056                 1.0499
 Frc consts  --      6.3029                 6.3931                 7.5113
 IR Inten    --     43.0868                31.5991                 0.9061

                    121                    122                    123
                      A                      A                      A
 Frequencies --   3567.7633              3581.6158              3728.1897
 Red. masses --      1.0927                 1.0746                 1.0658
 Frc consts  --      8.1946                 8.1218                 8.7278
 IR Inten    --      0.7823                10.1389                 4.5807

 - Thermochemistry -
 -------------------
 Temperature   298.150 Kelvin.  Pressure   1.00000 Atm.
 Atom     1 has atomic number  6 and mass  12.00000

 Molecular mass:   242.19943 amu.
 Principal axes and moments of inertia in atomic units:
                           1         2         3
     Eigenvalues --  3033.460096757.209377737.14803
           X            0.99974  -0.02287   0.00206
           Y            0.02274   0.99863   0.04706
           Z           -0.00313  -0.04700   0.99889
 This molecule is an asymmetric top.
 Rotational symmetry number  1.
 Warning -- assumption of classical behavior for rotation
           may cause significant error
 Rotational temperatures (Kelvin)      0.02855     0.01282     0.01119
 Rotational constants (GHZ):           0.59494     0.26708     0.23326
 Zero-point vibrational energy    1022352.2 (Joules/Mol)
                                  244.34803 (Kcal/Mol)
 Warning -- explicit consideration of  30 degrees of freedom as
           vibrations may cause significant error
 Vibrational temperatures:     16.79    30.35    46.98    67.73   100.61
          (Kelvin)            129.15   139.16   163.89   217.91   244.97
                              298.50   318.82   323.51   347.20   377.88
                              403.85   405.93   416.51   456.24   476.73
                              484.08   525.15   577.56   589.32   608.27
                              613.17   635.66   688.37   743.51   878.28
                              902.69   942.01   983.71  1062.57  1099.80
                             1132.39  1141.94  1219.39  1229.51  1263.43
                             1289.94  1312.01  1337.83  1352.97  1358.09
                             1367.88  1394.68  1399.12  1425.54  1442.04
                             1491.23  1516.78  1527.27  1533.25  1561.19
                             1584.65  1630.63  1651.08  1671.08  1716.36
                             1722.01  1763.08  1779.30  1787.37  1829.82
                             1840.99  1847.21  1849.84  1898.37  1899.26
                             1915.33  1937.31  1962.77  1986.27  1991.79
                             2010.05  2018.83  2052.79  2059.78  2073.57
                             2083.91  2085.17  2100.94  2144.01  2174.21
                             2179.05  2180.62  2180.84  2186.74  2192.58
                             2205.53  2215.72  2220.73  2222.58  2231.38
                             2439.27  2540.69  4322.98  4329.42  4368.09
                             4371.80  4373.49  4385.35  4403.44  4405.35
                             4425.74  4437.67  4453.38  4456.63  4467.11
                             4470.04  4475.53  4477.31  4479.05  4486.91
                             4487.59  4494.12  4502.04  4507.46  5013.73
                             5133.22  5153.15  5364.03

 Zero-point correction=                           0.389393 (Hartree/Particle)
 Thermal correction to Energy=                    0.409367
 Thermal correction to Enthalpy=                  0.410311
 Thermal correction to Gibbs Free Energy=         0.338923
 Sum of electronic and zero-point Energies=           -770.641196
 Sum of electronic and thermal Energies=              -770.621222
 Sum of electronic and thermal Enthalpies=            -770.620278
 Sum of electronic and thermal Free Energies=         -770.691666

                     E (Thermal)             CV                S
                      KCal/Mol        Cal/Mol-Kelvin    Cal/Mol-Kelvin
 Total                  256.882             74.909            150.249
 Electronic               0.000              0.000              0.000
 Translational            0.889              2.981             42.355
 Rotational               0.889              2.981             33.428
 Vibrational            255.104             68.947             74.467
 Vibration     1          0.593              1.987              7.704
 Vibration     2          0.593              1.985              6.528
 Vibration     3          0.594              1.983              5.661
 Vibration     4          0.595              1.979              4.937
 Vibration     5          0.598              1.968              4.155
 Vibration     6          0.602              1.956              3.665
 Vibration     7          0.603              1.952              3.519
 Vibration     8          0.607              1.938              3.201
 Vibration     9          0.619              1.901              2.654
 Vibration    10          0.625              1.879              2.433
 Vibration    11          0.641              1.829              2.066
 Vibration    12          0.648              1.808              1.946
 Vibration    13          0.650              1.803              1.920
 Vibration    14          0.658              1.777              1.793
 Vibration    15          0.670              1.741              1.644
 Vibration    16          0.680              1.709              1.529
 Vibration    17          0.681              1.707              1.521
 Vibration    18          0.686              1.693              1.477
 Vibration    19          0.704              1.641              1.325
 Vibration    20          0.714              1.613              1.254
 Vibration    21          0.717              1.603              1.229
 Vibration    22          0.738              1.544              1.101
 Vibration    23          0.767              1.467              0.957
 Vibration    24          0.774              1.449              0.928
 Vibration    25          0.785              1.421              0.883
 Vibration    26          0.788              1.413              0.871
 Vibration    27          0.802              1.379              0.821
 Vibration    28          0.835              1.298              0.714
 Vibration    29          0.872              1.213              0.618
 Vibration    30          0.969              1.010              0.432

 Optimization completed on the basis of negligible forces.
    -- Stationary point found.
 Normal termination of Gaussian 16 at Fri Dec 11 12:49:19 2020.

 ----------------------------------------------------------------------
 # B3LYP/6-311++G(d,p) empiricaldispersion=gd3bj scf=xqc pop=npa geom=c
 heck
 ----------------------------------------------------------------------

 ---------------------------------------
 CID_107472339_JID_7448_Energie_neutraal
 ---------------------------------------
 Structure from the checkpoint file:  "JID_7448.chk"
 Charge =  0 Multiplicity = 1

 SCF Done:  E(RB3LYP) =  -771.272005555     A.U. after   14 cycles
 Normal termination of Gaussian 16 at Fri Dec 11 12:58:44 2020.

 ----------------------------------------------------------------------
 # B3LYP/6-311++G(d,p) empiricaldispersion=gd3bj scf=xqc pop=npa geom=c
 heck
 ----------------------------------------------------------------------

 -------------------------------------
 CID_107472339_JID_7448_Energie_kation
 -------------------------------------
 Structure from the checkpoint file:  "JID_7448.chk"
 Charge =  1 Multiplicity = 2

 SCF Done:  E(UB3LYP) =  -770.960913525     A.U. after   29 cycles
 Normal termination of Gaussian 16 at Fri Dec 11 13:22:43 2020.
 Gaussian 16:  ES64L-G16RevA.03 25-Dec-2016

 ----------------------------------------------------------------------
 # B3LYP/6-311++G(d,p) empiricaldispersion=gd3bj scf=xqc pop=npa geom=c
 heck
 ----------------------------------------------------------------------

 ------------------------------------
 CID_107472339_JID_7448_Energie_anion
 ------------------------------------
 Structure from the checkpoint file:  "JID_7448.chk"
 Charge = -1 Multiplicity = 2

                         Standard orientation:
 ---------------------------------------------------------------------
 Center     Atomic      Atomic             Coordinates (Angstroms)
 Number     Number       Type             X           Y           Z
 ---------------------------------------------------------------------
      1          6           0       -3.704934    0.856952   -0.825835
      2          6           0       -2.593790    1.349032    0.115922
      3          6           0       -2.193211    2.777658   -0.294769
      4          6           0       -3.127112    1.380054    1.558684
      5          6           0       -1.320596    0.469640    0.027079
      6          6           0       -1.481525   -1.037908    0.339883
      7          6           0       -1.880161   -1.942288   -0.865624
      8          7           0       -1.408328   -1.455558   -2.168629
      9          6           0       -0.287788   -1.583022    1.142172
     10          8           0       -0.452796   -1.931288    2.308864
     11          7           0        0.955257   -1.686912    0.575208
     12          6           0        1.440974   -1.332654   -0.748499
     13          6           0        2.499042   -0.229079   -0.738737
     14          6           0        3.804195   -0.411840    0.090830
     15          6           0        3.741732    1.096278    0.461425
     16          6           0        2.246619    1.088623    0.045153
     17          8           0        4.578326    1.935689   -0.317886
     18          1           0       -4.576253    1.519977   -0.771198
     19          1           0       -4.044492   -0.150679   -0.564632
     20          1           0       -3.370266    0.850404   -1.871199
     21          1           0       -3.049533    3.459456   -0.232160
     22          1           0       -1.404390    3.168600    0.358744
     23          1           0       -1.817709    2.802314   -1.325136
     24          1           0       -3.457664    0.392617    1.897301
     25          1           0       -2.354534    1.727649    2.254249
     26          1           0       -3.983766    2.059720    1.637826
     27          1           0       -0.867589    0.592967   -0.962587
     28          1           0       -0.601963    0.891155    0.738514
     29          1           0       -2.281434   -1.147680    1.074973
     30          1           0       -1.446641   -2.936485   -0.711985
     31          1           0       -2.971450   -2.078177   -0.842945
     32          1           0       -1.486960   -2.201563   -2.856544
     33          1           0       -2.010481   -0.702813   -2.494059
     34          1           0        1.625236   -2.075111    1.228743
     35          1           0        1.875022   -2.228816   -1.217339
     36          1           0        0.587814   -1.051600   -1.368983
     37          1           0        2.749301   -0.014380   -1.786281
     38          1           0        4.707379   -0.747766   -0.428933
     39          1           0        3.648954   -1.045101    0.972021
     40          1           0        3.964152    1.358177    1.498619
     41          1           0        1.599041    0.910069    0.908444
     42          1           0        1.882342    1.964223   -0.502126
     43          1           0        4.392473    1.756251   -1.253312
 ---------------------------------------------------------------------

 SCF Done:  E(UB3LYP) =  -771.265557607     A.U. after   32 cycles

 The electronic state is 2-A.
 Alpha  occ. eigenvalues --  -19.03868 -18.99069 -14.24176 -14.19926 -10.17664
 Alpha  occ. eigenvalues --  -10.13660 -10.10529 -10.10480 -10.09603 -10.08948
 Alpha  occ. eigenvalues --  -10.08858 -10.08291 -10.07712 -10.07612 -10.06937
 Alpha  occ. eigenvalues --  -10.06832 -10.06747  -0.94262  -0.94148  -0.82782
 Alpha  occ. eigenvalues --   -0.79292  -0.75154  -0.73963  -0.67610  -0.63276
 Alpha  occ. eigenvalues --   -0.59931  -0.59851  -0.58448  -0.58002  -0.54887
 Alpha  occ. eigenvalues --   -0.52988  -0.48388  -0.46836  -0.44698  -0.42092
 Alpha  occ. eigenvalues --   -0.41142  -0.39975  -0.39177  -0.38447  -0.37244
 Alpha  occ. eigenvalues --   -0.36416  -0.35151  -0.34844  -0.34086  -0.33634
 Alpha  occ. eigenvalues --   -0.33068  -0.31993  -0.31430  -0.30994  -0.30064
 Alpha  occ. eigenvalues --   -0.29828  -0.28916  -0.28223  -0.28028  -0.27136
 Alpha  occ. eigenvalues --   -0.26212  -0.25539  -0.25266  -0.23501  -0.23220
 Alpha  occ. eigenvalues --   -0.22759  -0.22339  -0.21423  -0.18155  -0.16301
 Alpha  occ. eigenvalues --   -0.16064  -0.14868   0.03734
 Alpha virt. eigenvalues --    0.05792   0.06421   0.07000   0.07897   0.08097
 Alpha virt. eigenvalues --    0.08419   0.09229   0.09454   0.09822   0.10237
 Alpha virt. eigenvalues --    0.10714   0.10916   0.11376   0.11585   0.11901

  Beta  occ. eigenvalues --  -19.03844 -18.99067 -14.24173 -14.19871 -10.17663
  Beta  occ. eigenvalues --  -10.13659 -10.10515 -10.10457 -10.09601 -10.08929
  Beta  occ. eigenvalues --  -10.08857 -10.08281 -10.07702 -10.07603 -10.06923
  Beta  occ. eigenvalues --  -10.06812 -10.06710  -0.94256  -0.94101  -0.82771
  Beta  occ. eigenvalues --   -0.79213  -0.75129  -0.73945  -0.67576  -0.63249
  Beta  occ. eigenvalues --   -0.59883  -0.59808  -0.58399  -0.57972  -0.54848
  Beta  occ. eigenvalues --   -0.52942  -0.48355  -0.46801  -0.44651  -0.42066
  Beta  occ. eigenvalues --   -0.41097  -0.39935  -0.39143  -0.38407  -0.37215
  Beta  occ. eigenvalues --   -0.36390  -0.35088  -0.34815  -0.34048  -0.33611
  Beta  occ. eigenvalues --   -0.33047  -0.31976  -0.31408  -0.30973  -0.30034
  Beta  occ. eigenvalues --   -0.29804  -0.28893  -0.28198  -0.28001  -0.27113
  Beta  occ. eigenvalues --   -0.26192  -0.25514  -0.25233  -0.23471  -0.23200
  Beta  occ. eigenvalues --   -0.22739  -0.22319  -0.21402  -0.18136  -0.16281
  Beta  occ. eigenvalues --   -0.16054  -0.14829
  Beta virt. eigenvalues --    0.05935   0.06574   0.07211   0.07323   0.08230
  Beta virt. eigenvalues --    0.08397   0.08694   0.09466   0.09807   0.09991
  Beta virt. eigenvalues --    0.10482   0.10819   0.11020   0.11558   0.11919

 Mulliken charges and spin densities:
               1          2
     1  C    1.023015  -1.654884
     2  C   -1.761807   2.365365
     3  C   -0.033691  -0.574394
     4  C   -0.372384  -0.227440
     5  C    1.278424  -1.710932
     6  C    0.084116   0.623202
     7  C    0.163142  -1.030314
     8  N   -0.431730   0.046203
     9  C   -0.309761  -0.103382
    10  O   -0.306204   0.002182
    11  N   -0.211330   0.000415
    12  C   -0.366917  -0.208847
    13  C    0.136607   0.342286
    14  C   -0.097821  -0.464155
    15  C    0.074731  -0.377965
    16  C   -0.026722  -0.395309
    17  O   -0.199061   0.007768
    18  H   -0.232799   0.390198
    19  H    0.029581   0.121548
    20  H   -0.149902   0.292123
    21  H    0.026110   0.132812
    22  H    0.024375   0.106324
    23  H   -0.139028   0.284333
    24  H   -0.028166   0.153512
    25  H    0.074362   0.077930
    26  H    0.062551   0.088879
    27  H   -0.044541   0.217172
    28  H    0.338894  -0.217947
    29  H    0.421552  -0.160335
    30  H   -0.067648   0.277751
    31  H   -0.174737   0.306224
    32  H   -0.362857   0.624290
    33  H    0.062244   0.165513
    34  H    0.239774   0.072193
    35  H   -0.309724   0.473235
    36  H    0.661709  -0.349114
    37  H   -0.637201   0.867042
    38  H    0.066224   0.132384
    39  H    0.074645  -0.007640
    40  H    0.214522  -0.019229
    41  H   -0.009173   0.100923
    42  H    0.149063   0.047522
    43  H    0.067562   0.182558
 Sum of Mulliken charges =  -1.00000   1.00000

 Dipole moment (field-independent basis, Debye):
    X=              1.0983    Y=              0.7368    Z=              5.0409  Tot=              5.2115
 Quadrupole moment (field-independent basis, Debye-Ang):
   XX=           -182.6434   YY=           -156.0207   ZZ=           -164.1727
   XY=             -8.6385   XZ=              1.0002   YZ=             -0.8027

 Summary of Natural Population Analysis:

                                       Natural Population
                Natural  -----------------------------------------------
    Atom  No    Charge         Core      Valence    Rydberg      Total
 -----------------------------------------------------------------------
      C    1   -0.28606      0.99962     2.27900    0.00743     3.28606
      C    2   -0.04686      0.99958     2.03704    0.01023     3.04686
      C    3   -0.28198      0.99963     2.27523    0.00711     3.28198
      C    4   -0.28409      0.99962     2.27869    0.00577     3.28409
      C    5   -0.19174      0.99957     2.18193    0.01024     3.19174
      C    6   -0.15629      0.99954     2.14522    0.01154     3.15629
      C    7   -0.08583      0.99961     2.07432    0.01190     3.08583
      N    8   -0.42849      0.99976     2.91678    0.01195     3.92849
      C    9    0.35300      0.99963     1.62426    0.02311     2.64700
      O   10   -0.33289      0.99988     3.32757    0.00544     4.33289
      N   11   -0.31902      0.99966     2.81015    0.00922     3.81902
      C   12   -0.10306      0.99957     2.09127    0.01223     3.10306
      C   13   -0.11516      0.99960     2.10260    0.01296     3.11516
      C   14   -0.20211      0.99961     2.19411    0.00839     3.20211
      C   15    0.06568      0.99958     1.91950    0.01524     2.93432
      C   16   -0.20303      0.99961     2.19463    0.00879     3.20303
      O   17   -0.36809      0.99990     3.36210    0.00610     4.36809
      H   18    0.10049      0.00000     0.39857    0.00094     0.39951
      H   19    0.09954      0.00000     0.39923    0.00123     0.40046
      H   20    0.09905      0.00000     0.39938    0.00157     0.40095
      H   21    0.09820      0.00000     0.40102    0.00078     0.40180
      H   22    0.09850      0.00000     0.40066    0.00085     0.40150
      H   23    0.10207      0.00000     0.39695    0.00098     0.39793
      H   24    0.10038      0.00000     0.39883    0.00079     0.39962
      H   25    0.09944      0.00000     0.39984    0.00071     0.40056
      H   26    0.09828      0.00000     0.40100    0.00071     0.40172
      H   27    0.10706      0.00000     0.39011    0.00282     0.39294
      H   28    0.10097      0.00000     0.39707    0.00196     0.39903
      H   29    0.11316      0.00000     0.38497    0.00187     0.38684
      H   30    0.09494      0.00000     0.40360    0.00147     0.40506
      H   31    0.08485      0.00000     0.41373    0.00142     0.41515
      H   32    0.18406      0.00000     0.31147    0.00447     0.31594
      H   33    0.17944      0.00000     0.31745    0.00311     0.32056
      H   34    0.18932      0.00000     0.30825    0.00243     0.31068
      H   35    0.09308      0.00000     0.40555    0.00137     0.40692
      H   36    0.12662      0.00000     0.37035    0.00303     0.37338
      H   37    0.10204      0.00000     0.39529    0.00267     0.39796
      H   38    0.10199      0.00000     0.39699    0.00101     0.39801
      H   39    0.09482      0.00000     0.40400    0.00119     0.40518
      H   40    0.08280      0.00000     0.41633    0.00087     0.41720
      H   41    0.10294      0.00000     0.39577    0.00129     0.39706
      H   42    0.10386      0.00000     0.39512    0.00102     0.39614
      H   43    0.22813      0.00000     0.26868    0.00319     0.27187
 =======================================================================
   * Total *    0.00000     16.99397    49.78462    0.22141    67.00000

 Normal termination of Gaussian 16 at Fri Dec 11 13:47:58 2020.
