 Gaussian 16, Revision A.03,

 -----------------------------------------------------------
 # opt freq B3LYP/6-31G(d) empiricaldispersion=gd3bj scf=xqc
 -----------------------------------------------------------

 -------------------------------
 CID_116166146_JID_8976_neutraal
 -------------------------------
 Symbolic Z-matrix:
 Charge =  0 Multiplicity = 1

 SCF Done:  E(RB3LYP) =  -848.589627662     A.U. after   14 cycles
 SCF Done:  E(RB3LYP) =  -848.600927429     A.U. after   13 cycles
 SCF Done:  E(RB3LYP) =  -848.603785097     A.U. after   12 cycles
 SCF Done:  E(RB3LYP) =  -848.605354051     A.U. after   12 cycles
 SCF Done:  E(RB3LYP) =  -848.606694896     A.U. after   12 cycles
 SCF Done:  E(RB3LYP) =  -848.607195421     A.U. after   11 cycles
 SCF Done:  E(RB3LYP) =  -848.607629045     A.U. after   11 cycles
 SCF Done:  E(RB3LYP) =  -848.607794841     A.U. after   11 cycles
 SCF Done:  E(RB3LYP) =  -848.607834277     A.U. after   11 cycles
 SCF Done:  E(RB3LYP) =  -848.607895049     A.U. after   10 cycles
 SCF Done:  E(RB3LYP) =  -848.608615475     A.U. after   11 cycles
 SCF Done:  E(RB3LYP) =  -848.608623677     A.U. after   10 cycles
 SCF Done:  E(RB3LYP) =  -848.608624346     A.U. after    8 cycles
 SCF Done:  E(RB3LYP) =  -848.608624361     A.U. after    7 cycles
 SCF Done:  E(RB3LYP) =  -848.608624412     A.U. after    8 cycles
 Optimization completed.
    -- Stationary point found.
 Normal termination of Gaussian 16 at Fri Dec 11 23:17:03 2020.

 --------------------------------------------------------------------
 #N Geom=AllCheck Guess=TCheck SCRF=Check GenChk RB3LYP/6-31G(d) Freq
 --------------------------------------------------------------------

 Structure from the checkpoint file:  "JID_8976.chk"
 -------------------------------
 CID_116166146_JID_8976_neutraal
 -------------------------------
 Charge =  0 Multiplicity = 1

 SCF Done:  E(RB3LYP) =  -848.608624412     A.U. after    1 cycles

  Exact polarizability: 186.057   2.804 174.458  11.046  -3.112  96.788
 Approx polarizability: 268.463   6.845 285.889  23.939  -9.105 143.108

                      1                      2                      3
                      A                      A                      A
 Frequencies --     37.5718                48.2508                95.2616
 Red. masses --      4.5241                 4.0501                 3.1853
 Frc consts  --      0.0038                 0.0056                 0.0170
 IR Inten    --      0.6688                 0.3494                 3.6884

                      4                      5                      6
                      A                      A                      A
 Frequencies --     96.6646               102.9498               138.5529
 Red. masses --      4.1865                 4.0276                 4.5663
 Frc consts  --      0.0230                 0.0252                 0.0516
 IR Inten    --      1.3362                 1.1404                 2.6490

                      7                      8                      9
                      A                      A                      A
 Frequencies --    171.0616               184.6589               209.3731
 Red. masses --      3.6897                 1.9025                 2.0841
 Frc consts  --      0.0636                 0.0382                 0.0538
 IR Inten    --      8.9189                 9.9334                 4.3512

                     10                     11                     12
                      A                      A                      A
 Frequencies --    211.4554               226.0116               236.4815
 Red. masses --      2.0535                 1.7902                 2.4967
 Frc consts  --      0.0541                 0.0539                 0.0823
 IR Inten    --     10.8806                 1.1984                 5.4055

                     13                     14                     15
                      A                      A                      A
 Frequencies --    258.8579               291.9103               339.8101
 Red. masses --      5.8705                 2.2107                 5.8927
 Frc consts  --      0.2318                 0.1110                 0.4009
 IR Inten    --      3.9009                 4.4371                 1.5794

                     16                     17                     18
                      A                      A                      A
 Frequencies --    349.0425               407.0594               412.0945
 Red. masses --      2.9375                 3.9597                 2.8270
 Frc consts  --      0.2109                 0.3866                 0.2829
 IR Inten    --      1.5467                 6.4874                 1.5106

                     19                     20                     21
                      A                      A                      A
 Frequencies --    466.8491               483.4332               495.3288
 Red. masses --      2.7766                 1.4451                 1.7390
 Frc consts  --      0.3566                 0.1990                 0.2514
 IR Inten    --     25.1493               114.3819               106.0040

                     22                     23                     24
                      A                      A                      A
 Frequencies --    522.1289               547.7140               592.5074
 Red. masses --      1.4624                 3.1512                 3.5021
 Frc consts  --      0.2349                 0.5570                 0.7244
 IR Inten    --     60.3761                53.3589                11.3548

                     25                     26                     27
                      A                      A                      A
 Frequencies --    615.3931               653.5059               665.8274
 Red. masses --      4.6111                 3.0718                 3.7278
 Frc consts  --      1.0289                 0.7729                 0.9737
 IR Inten    --      3.6695                48.3561                25.6761

                     28                     29                     30
                      A                      A                      A
 Frequencies --    686.9042               710.7224               739.1537
 Red. masses --      7.4209                 5.7473                 8.4250
 Frc consts  --      2.0630                 1.7105                 2.7120
 IR Inten    --      8.8271                20.0433                 0.4599

                     31                     32                     33
                      A                      A                      A
 Frequencies --    794.7405               800.5253               814.8771
 Red. masses --      2.5223                 4.8356                 4.1513
 Frc consts  --      0.9387                 1.8258                 1.6241
 IR Inten    --      6.3644                28.2857                 3.4920

                     34                     35                     36
                      A                      A                      A
 Frequencies --    854.8427               856.7842               875.6905
 Red. masses --      1.4089                 2.0550                 5.6133
 Frc consts  --      0.6066                 0.8888                 2.5361
 IR Inten    --      8.1681                 2.5350                 2.7713

                     37                     38                     39
                      A                      A                      A
 Frequencies --    912.4824               942.9469               946.9278
 Red. masses --      2.5835                 2.4209                 2.5300
 Frc consts  --      1.2674                 1.2683                 1.3366
 IR Inten    --     17.7544                11.6037                10.9220

                     40                     41                     42
                      A                      A                      A
 Frequencies --    959.0365               987.1899               993.1959
 Red. masses --      4.0341                 2.4771                 2.3503
 Frc consts  --      2.1861                 1.4223                 1.3660
 IR Inten    --     78.0564                72.3350                17.5584

                     43                     44                     45
                      A                      A                      A
 Frequencies --   1042.0192              1047.6926              1086.8038
 Red. masses --      1.5478                 1.5690                 4.6654
 Frc consts  --      0.9902                 1.0147                 3.2467
 IR Inten    --      5.5867                 9.7723                 5.6339

                     46                     47                     48
                      A                      A                      A
 Frequencies --   1094.1193              1102.2387              1171.2520
 Red. masses --      3.1407                 5.3103                 2.9513
 Frc consts  --      2.2151                 3.8012                 2.3854
 IR Inten    --     30.6232                79.1078                22.7688

                     49                     50                     51
                      A                      A                      A
 Frequencies --   1191.8609              1208.6722              1219.7079
 Red. masses --      1.8425                 2.1409                 1.8600
 Frc consts  --      1.5421                 1.8427                 1.6303
 IR Inten    --      8.5134                35.4670                10.9028

                     52                     53                     54
                      A                      A                      A
 Frequencies --   1233.9626              1242.7979              1259.8018
 Red. masses --      2.3589                 1.2995                 1.6506
 Frc consts  --      2.1162                 1.1826                 1.5434
 IR Inten    --      2.6693                 9.6492                11.5051

                     55                     56                     57
                      A                      A                      A
 Frequencies --   1270.3430              1303.3594              1325.8674
 Red. masses --      1.8910                 1.6989                 1.8965
 Frc consts  --      1.7980                 1.7004                 1.9643
 IR Inten    --     13.9366                82.9077                 8.1790

                     58                     59                     60
                      A                      A                      A
 Frequencies --   1328.9876              1347.4308              1369.6748
 Red. masses --      1.8540                 2.1640                 2.7868
 Frc consts  --      1.9294                 2.3148                 3.0803
 IR Inten    --      7.8723                76.5219                 5.1791

                     61                     62                     63
                      A                      A                      A
 Frequencies --   1376.9882              1379.1215              1414.0103
 Red. masses --      1.4184                 1.2736                 1.4497
 Frc consts  --      1.5845                 1.4273                 1.7078
 IR Inten    --      9.5615                16.8219                 9.0221

                     64                     65                     66
                      A                      A                      A
 Frequencies --   1427.5080              1433.5004              1456.4713
 Red. masses --      3.0532                 1.4414                 2.6336
 Frc consts  --      3.6657                 1.7452                 3.2916
 IR Inten    --     28.2532                 7.1761                18.9346

                     67                     68                     69
                      A                      A                      A
 Frequencies --   1495.1466              1511.4408              1527.0510
 Red. masses --      2.0423                 1.1430                 1.0961
 Frc consts  --      2.6898                 1.5385                 1.5059
 IR Inten    --     21.4256                53.7156                13.9187

                     70                     71                     72
                      A                      A                      A
 Frequencies --   1535.4398              1540.5450              1545.7786
 Red. masses --      2.1171                 1.0944                 2.1412
 Frc consts  --      2.9408                 1.5303                 3.0144
 IR Inten    --    368.2090                 3.5581               245.6638

                     73                     74                     75
                      A                      A                      A
 Frequencies --   1550.3860              1560.8629              1583.3604
 Red. masses --      1.7396                 1.0982                 3.8136
 Frc consts  --      2.4636                 1.5764                 5.6331
 IR Inten    --     76.3224                 1.3607                40.2832

                     76                     77                     78
                      A                      A                      A
 Frequencies --   1637.7103              1666.2014              1747.5351
 Red. masses --      5.1903                 5.5915                 1.0657
 Frc consts  --      8.2019                 9.1460                 1.9174
 IR Inten    --    633.7609               398.3784                27.2294

                     79                     80                     81
                      A                      A                      A
 Frequencies --   3010.6877              3048.4903              3060.2180
 Red. masses --      1.0692                 1.0639                 1.0397
 Frc consts  --      5.7102                 5.8255                 5.7370
 IR Inten    --     62.9886                66.1657                31.8380

                     82                     83                     84
                      A                      A                      A
 Frequencies --   3077.8106              3097.6713              3107.3101
 Red. masses --      1.0715                 1.1008                 1.0965
 Frc consts  --      5.9805                 6.2236                 6.2378
 IR Inten    --     19.4376                43.2920                21.0000

                     85                     86                     87
                      A                      A                      A
 Frequencies --   3123.8404              3160.0038              3174.3427
 Red. masses --      1.1024                 1.0975                 1.0984
 Frc consts  --      6.3379                 6.4570                 6.5208
 IR Inten    --     37.1831                 9.5748                 4.7091

                     88                     89                     90
                      A                      A                      A
 Frequencies --   3247.6113              3427.3775              3503.5951
 Red. masses --      1.0955                 1.0492                 1.0922
 Frc consts  --      6.8077                 7.2615                 7.8992
 IR Inten    --      8.1632                 6.0443                 0.2584

                     91                     92                     93
                      A                      A                      A
 Frequencies --   3595.2495              3626.8557              3674.1642
 Red. masses --      1.0761                 1.0776                 1.0811
 Frc consts  --      8.1954                 8.3514                 8.5987
 IR Inten    --     43.1353                48.8931                82.4415

 - Thermochemistry -
 -------------------
 Temperature   298.150 Kelvin.  Pressure   1.00000 Atm.
 Atom     1 has atomic number  6 and mass  12.00000

 Molecular mass:   249.13381 amu.
 Principal axes and moments of inertia in atomic units:
                           1         2         3
     Eigenvalues --  2957.517585934.578587986.54611
           X            0.99999   0.00043   0.00358
           Y           -0.00044   0.99999   0.00408
           Z           -0.00358  -0.00408   0.99999
 This molecule is an asymmetric top.
 Rotational symmetry number  1.
 Warning -- assumption of classical behavior for rotation
           may cause significant error
 Rotational temperatures (Kelvin)      0.02929     0.01459     0.01084
 Rotational constants (GHZ):           0.61022     0.30411     0.22597
 Zero-point vibrational energy     717201.1 (Joules/Mol)
                                  171.41517 (Kcal/Mol)
 Warning -- explicit consideration of  25 degrees of freedom as
           vibrations may cause significant error
 Vibrational temperatures:     54.06    69.42   137.06   139.08   148.12
          (Kelvin)            199.35   246.12   265.68   301.24   304.24
                              325.18   340.24   372.44   419.99   488.91
                              502.19   585.67   592.91   671.69   695.55
                              712.67   751.23   788.04   852.49   885.41
                              940.25   957.98   988.30  1022.57  1063.48
                             1143.45  1151.78  1172.43  1229.93  1232.72
                             1259.92  1312.86  1356.69  1362.42  1379.84
                             1420.35  1428.99  1499.23  1507.40  1563.67
                             1574.19  1585.88  1685.17  1714.82  1739.01
                             1754.89  1775.40  1788.11  1812.57  1827.74
                             1875.24  1907.63  1912.12  1938.65  1970.66
                             1981.18  1984.25  2034.45  2053.87  2062.49
                             2095.54  2151.18  2174.63  2197.09  2209.16
                             2216.50  2224.03  2230.66  2245.73  2278.10
                             2356.30  2397.29  2514.31  4331.71  4386.10
                             4402.97  4428.28  4456.86  4470.73  4494.51
                             4546.54  4567.17  4672.59  4931.23  5040.89
                             5172.76  5218.24  5286.30

 Zero-point correction=                           0.273167 (Hartree/Particle)
 Thermal correction to Energy=                    0.289217
 Thermal correction to Enthalpy=                  0.290161
 Thermal correction to Gibbs Free Energy=         0.229486
 Sum of electronic and zero-point Energies=           -848.335457
 Sum of electronic and thermal Energies=              -848.319408
 Sum of electronic and thermal Enthalpies=            -848.318463
 Sum of electronic and thermal Free Energies=         -848.379139

                     E (Thermal)             CV                S
                      KCal/Mol        Cal/Mol-Kelvin    Cal/Mol-Kelvin
 Total                  181.486             61.847            127.702
 Electronic               0.000              0.000              0.000
 Translational            0.889              2.981             42.439
 Rotational               0.889              2.981             33.305
 Vibrational            179.709             55.885             51.958
 Vibration     1          0.594              1.982              5.383
 Vibration     2          0.595              1.978              4.888
 Vibration     3          0.603              1.953              3.549
 Vibration     4          0.603              1.952              3.520
 Vibration     5          0.605              1.947              3.398
 Vibration     6          0.614              1.915              2.824
 Vibration     7          0.626              1.878              2.424
 Vibration     8          0.631              1.861              2.281
 Vibration     9          0.642              1.826              2.049
 Vibration    10          0.643              1.823              2.031
 Vibration    11          0.650              1.801              1.910
 Vibration    12          0.655              1.785              1.829
 Vibration    13          0.668              1.748              1.669
 Vibration    14          0.687              1.689              1.463
 Vibration    15          0.720              1.596              1.213
 Vibration    16          0.726              1.577              1.171
 Vibration    17          0.772              1.455              0.937
 Vibration    18          0.776              1.444              0.919
 Vibration    19          0.824              1.324              0.746
 Vibration    20          0.840              1.287              0.701
 Vibration    21          0.851              1.260              0.670
 Vibration    22          0.877              1.201              0.605
 Vibration    23          0.903              1.145              0.549
 Vibration    24          0.950              1.048              0.463
 Vibration    25          0.975              0.999              0.424

 Optimization completed.
    -- Stationary point found.
 Normal termination of Gaussian 16 at Fri Dec 11 23:29:10 2020.

 ----------------------------------------------------------------------
 # B3LYP/6-311++G(d,p) empiricaldispersion=gd3bj scf=xqc pop=npa geom=c
 heck
 ----------------------------------------------------------------------

 ---------------------------------------
 CID_116166146_JID_8976_Energie_neutraal
 ---------------------------------------
 Structure from the checkpoint file:  "JID_8976.chk"
 Charge =  0 Multiplicity = 1

 SCF Done:  E(RB3LYP) =  -848.851264724     A.U. after   14 cycles
 Normal termination of Gaussian 16 at Fri Dec 11 23:33:46 2020.

 ----------------------------------------------------------------------
 # B3LYP/6-311++G(d,p) empiricaldispersion=gd3bj scf=xqc pop=npa geom=c
 heck
 ----------------------------------------------------------------------

 -------------------------------------
 CID_116166146_JID_8976_Energie_kation
 -------------------------------------
 Structure from the checkpoint file:  "JID_8976.chk"
 Charge =  1 Multiplicity = 2

 SCF Done:  E(UB3LYP) =  -848.568588515     A.U. after   23 cycles
 Normal termination of Gaussian 16 at Fri Dec 11 23:44:01 2020.
 Gaussian 16:  ES64L-G16RevA.03 25-Dec-2016

 ----------------------------------------------------------------------
 # B3LYP/6-311++G(d,p) empiricaldispersion=gd3bj scf=xqc pop=npa geom=c
 heck
 ----------------------------------------------------------------------

 ------------------------------------
 CID_116166146_JID_8976_Energie_anion
 ------------------------------------
 Structure from the checkpoint file:  "JID_8976.chk"
 Charge = -1 Multiplicity = 2

                         Standard orientation:
 ---------------------------------------------------------------------
 Center     Atomic      Atomic             Coordinates (Angstroms)
 Number     Number       Type             X           Y           Z
 ---------------------------------------------------------------------
      1          6           0        2.213603    1.598687    1.566233
      2          6           0        2.344008    0.515345    0.500116
      3          6           0        2.489699    1.031177   -0.950317
      4          6           0        3.215017   -0.131576   -1.659917
      5          8           0        3.734217   -0.993788   -0.625949
      6          6           0        3.646277   -0.288115    0.604419
      7          7           0        1.256457   -0.474895    0.593452
      8          6           0       -0.054947   -0.239452    0.314733
      9          7           0       -0.487722    1.013927    0.164888
     10          6           0       -1.808331    1.212483   -0.089183
     11          7           0       -2.780876    0.301304   -0.208570
     12          6           0       -2.308676   -0.947606   -0.056207
     13          6           0       -0.975281   -1.320003    0.204381
     14          6           0       -1.001515   -2.741867    0.280301
     15          7           0       -2.222220   -3.214471    0.085503
     16          7           0       -3.007871   -2.109381   -0.118457
     17          7           0       -2.157239    2.528138   -0.258362
     18          7           0       -3.500899    2.947652   -0.254958
     19          1           0        2.176784    1.147050    2.563307
     20          1           0        1.299466    2.173111    1.413459
     21          1           0        3.074024    2.275336    1.520770
     22          1           0        1.522384    1.279170   -1.388685
     23          1           0        3.105226    1.937179   -0.951352
     24          1           0        4.038409    0.222016   -2.292922
     25          1           0        2.541639   -0.734315   -2.277784
     26          1           0        4.495119    0.399240    0.744754
     27          1           0        3.646549   -1.018476    1.419753
     28          1           0        1.554373   -1.429819    0.439163
     29          1           0       -0.191426   -3.434516    0.470298
     30          1           0       -3.994808   -2.224310   -0.289948
     31          1           0       -1.500637    3.206539    0.100864
     32          1           0       -3.886079    2.724445   -1.172886
     33          1           0       -4.011290    2.347291    0.396981
 ---------------------------------------------------------------------

 SCF Done:  E(UB3LYP) =  -848.840547004     A.U. after   33 cycles
 SCF Done:  E(UB3LYP) =  -848.840547004     a.u. after    1 cycles

 The electronic state is 2-A.
 Alpha  occ. eigenvalues --  -19.03213 -14.28286 -14.25544 -14.24310 -14.23561
 Alpha  occ. eigenvalues --  -14.23464 -14.20036 -14.19575 -10.17071 -10.15358
 Alpha  occ. eigenvalues --  -10.14469 -10.12567 -10.12245 -10.12011 -10.10028
 Alpha  occ. eigenvalues --  -10.07346 -10.07283 -10.05773  -0.95094  -0.94967
 Alpha  occ. eigenvalues --   -0.91884  -0.87418  -0.83890  -0.78025  -0.72316
 Alpha  occ. eigenvalues --   -0.72219  -0.69167  -0.66625  -0.65247  -0.59150
 Alpha  occ. eigenvalues --   -0.56335  -0.54676  -0.51636  -0.51059  -0.49427
 Alpha  occ. eigenvalues --   -0.48269  -0.43792  -0.42076  -0.41537  -0.41373
 Alpha  occ. eigenvalues --   -0.38932  -0.37716  -0.37363  -0.37057  -0.36500
 Alpha  occ. eigenvalues --   -0.35658  -0.33970  -0.33183  -0.32369  -0.31267
 Alpha  occ. eigenvalues --   -0.30311  -0.29126  -0.27225  -0.26323  -0.25615
 Alpha  occ. eigenvalues --   -0.24518  -0.22692  -0.22135  -0.20782  -0.19803
 Alpha  occ. eigenvalues --   -0.19029  -0.17260  -0.16348  -0.16012  -0.14601
 Alpha  occ. eigenvalues --   -0.11701   0.04363
 Alpha virt. eigenvalues --    0.06214   0.06571   0.07349   0.07762   0.08101
 Alpha virt. eigenvalues --    0.08717   0.09764   0.09803   0.10227   0.10426
 Alpha virt. eigenvalues --    0.10706   0.11355   0.12011   0.12491   0.13160

  Beta  occ. eigenvalues --  -19.03212 -14.28276 -14.25526 -14.24294 -14.23541
  Beta  occ. eigenvalues --  -14.23337 -14.19981 -14.19584 -10.17023 -10.15189
  Beta  occ. eigenvalues --  -10.14475 -10.12568 -10.12233 -10.11976 -10.09978
  Beta  occ. eigenvalues --  -10.07369 -10.07266 -10.05736  -0.95029  -0.94927
  Beta  occ. eigenvalues --   -0.91812  -0.87308  -0.83813  -0.77947  -0.72246
  Beta  occ. eigenvalues --   -0.72112  -0.69134  -0.66560  -0.65203  -0.59088
  Beta  occ. eigenvalues --   -0.56185  -0.54611  -0.51540  -0.51013  -0.49367
  Beta  occ. eigenvalues --   -0.48202  -0.43729  -0.42027  -0.41475  -0.41318
  Beta  occ. eigenvalues --   -0.38878  -0.37681  -0.37303  -0.37004  -0.36315
  Beta  occ. eigenvalues --   -0.35588  -0.33905  -0.33110  -0.32313  -0.31037
  Beta  occ. eigenvalues --   -0.30262  -0.29012  -0.27110  -0.26259  -0.25581
  Beta  occ. eigenvalues --   -0.24284  -0.22612  -0.22084  -0.20547  -0.19688
  Beta  occ. eigenvalues --   -0.18942  -0.17207  -0.16221  -0.15974  -0.14495
  Beta  occ. eigenvalues --   -0.11388
  Beta virt. eigenvalues --    0.06379   0.07031   0.07535   0.07705   0.08345
  Beta virt. eigenvalues --    0.08527   0.09104   0.09911   0.10141   0.10503
  Beta virt. eigenvalues --    0.10752   0.10980   0.11579   0.12167   0.12555

 Mulliken charges and spin densities:
               1          2
     1  C    0.723946  -1.108161
     2  C   -1.408779   1.469215
     3  C    0.980860  -0.999778
     4  C    0.001174  -0.455942
     5  O   -0.099572   0.010237
     6  C   -0.348265  -0.391959
     7  N    0.434673  -0.090076
     8  C    0.274985  -0.793388
     9  N   -0.108217   0.000229
    10  C    0.083645  -0.060324
    11  N   -0.214405  -0.015624
    12  C   -0.256936   0.477149
    13  C    1.151045  -1.281208
    14  C   -1.120259   0.771722
    15  N   -0.126578  -0.034033
    16  N   -0.223518   0.066964
    17  N   -0.294046   0.083372
    18  N   -0.169424  -0.077831
    19  H   -0.155994   0.312326
    20  H   -0.007588   0.169113
    21  H   -0.374277   0.526815
    22  H    0.125026   0.059580
    23  H   -0.249677   0.441441
    24  H   -0.200822   0.349706
    25  H    0.107812   0.059657
    26  H   -0.318034   0.488246
    27  H   -0.403908   0.591913
    28  H    0.851935  -0.496187
    29  H   -0.286660   0.460731
    30  H    0.184716   0.130377
    31  H    0.218196   0.082731
    32  H    0.115527   0.135809
    33  H    0.113420   0.117180
 Sum of Mulliken charges =  -1.00000   1.00000

 Dipole moment (field-independent basis, Debye):
    X=             -4.6170    Y=             -1.1059    Z=             -2.1935  Tot=              5.2298
 Quadrupole moment (field-independent basis, Debye-Ang):
   XX=           -180.8716   YY=           -160.0874   ZZ=           -134.9496
   XY=             -5.4632   XZ=             -5.0535   YZ=              0.6536

 Summary of Natural Population Analysis:

                                       Natural Population
                Natural  -----------------------------------------------
    Atom  No    Charge         Core      Valence    Rydberg      Total
 -----------------------------------------------------------------------
      C    1   -0.29060      0.99960     2.28373    0.00727     3.29060
      C    2    0.05325      0.99956     1.93116    0.01604     2.94675
      C    3   -0.21110      0.99958     2.20293    0.00858     3.21110
      C    4   -0.01253      0.99960     2.00136    0.01157     3.01253
      O    5   -0.30591      0.99990     3.29761    0.00840     4.30591
      C    6   -0.01005      0.99952     1.99649    0.01404     3.01005
      N    7   -0.30258      0.99964     2.79071    0.01223     3.80258
      C    8    0.26601      0.99952     1.72040    0.01407     2.73399
      N    9   -0.31150      0.99964     2.80193    0.00993     3.81150
      C   10    0.30921      0.99960     1.67365    0.01754     2.69079
      N   11   -0.30941      0.99964     2.79752    0.01225     3.80941
      C   12    0.19802      0.99949     1.78798    0.01450     2.80198
      C   13   -0.13278      0.99945     2.12572    0.00761     3.13278
      C   14    0.00836      0.99962     1.97818    0.01384     2.99164
      N   15   -0.13937      0.99974     2.62605    0.01358     3.63937
      N   16   -0.18568      0.99965     2.67447    0.01157     3.68568
      N   17   -0.22266      0.99965     2.70992    0.01309     3.72266
      N   18   -0.31635      0.99978     2.80655    0.01002     3.81635
      H   19    0.10324      0.00000     0.39541    0.00134     0.39676
      H   20    0.11509      0.00000     0.38309    0.00182     0.38491
      H   21    0.10225      0.00000     0.39601    0.00174     0.39775
      H   22    0.11623      0.00000     0.38242    0.00134     0.38377
      H   23    0.10300      0.00000     0.39553    0.00147     0.39700
      H   24    0.08474      0.00000     0.41401    0.00125     0.41526
      H   25    0.08578      0.00000     0.41300    0.00122     0.41422
      H   26    0.08668      0.00000     0.41115    0.00217     0.41332
      H   27    0.09596      0.00000     0.40215    0.00189     0.40404
      H   28    0.19429      0.00000     0.30259    0.00312     0.30571
      H   29    0.09736      0.00000     0.40114    0.00150     0.40264
      H   30    0.19626      0.00000     0.30089    0.00285     0.30374
      H   31    0.18950      0.00000     0.30777    0.00273     0.31050
      H   32    0.17161      0.00000     0.32603    0.00236     0.32839
      H   33    0.17367      0.00000     0.32351    0.00282     0.32633
 =======================================================================
   * Total *   -0.00000     17.99316    47.76105    0.24579    66.00000

 Normal termination of Gaussian 16 at Fri Dec 11 23:58:42 2020.
