 Gaussian 16, Revision A.03,

 -----------------------------------------------------------
 # opt freq B3LYP/6-31G(d) empiricaldispersion=gd3bj scf=xqc
 -----------------------------------------------------------

 -------------------------------
 CID_141444341_JID_9133_neutraal
 -------------------------------
 Symbolic Z-matrix:
 Charge =  0 Multiplicity = 1

 SCF Done:  E(RB3LYP) =  -874.199151139     A.U. after   15 cycles
 SCF Done:  E(RB3LYP) =  -874.205208211     A.U. after   13 cycles
 SCF Done:  E(RB3LYP) =  -874.208627475     A.U. after   12 cycles
 SCF Done:  E(RB3LYP) =  -874.211717272     A.U. after   13 cycles
 SCF Done:  E(RB3LYP) =  -874.213521891     A.U. after   12 cycles
 SCF Done:  E(RB3LYP) =  -874.215064753     A.U. after   12 cycles
 SCF Done:  E(RB3LYP) =  -874.215657910     A.U. after   12 cycles
 SCF Done:  E(RB3LYP) =  -874.215884586     A.U. after   11 cycles
 SCF Done:  E(RB3LYP) =  -874.215984024     A.U. after   11 cycles
 SCF Done:  E(RB3LYP) =  -874.216019232     A.U. after   10 cycles
 SCF Done:  E(RB3LYP) =  -874.216031912     A.U. after    7 cycles
 SCF Done:  E(RB3LYP) =  -874.216032011     A.U. after    7 cycles
 SCF Done:  E(RB3LYP) =  -874.216032077     A.U. after    7 cycles
 SCF Done:  E(RB3LYP) =  -874.216032120     A.U. after    7 cycles
 Optimization completed.
    -- Stationary point found.
 Normal termination of Gaussian 16 at Mon Dec 14 13:30:04 2020.

 --------------------------------------------------------------------
 #N Geom=AllCheck Guess=TCheck SCRF=Check GenChk RB3LYP/6-31G(d) Freq
 --------------------------------------------------------------------

 Structure from the checkpoint file:  "JID_9133.chk"
 -------------------------------
 CID_141444341_JID_9133_neutraal
 -------------------------------
 Charge =  0 Multiplicity = 1

 SCF Done:  E(RB3LYP) =  -874.216032120     A.U. after    1 cycles

  Exact polarizability: 202.285   3.598 173.941  16.360  -1.247 123.154
 Approx polarizability: 265.368   2.954 264.165  27.723  -1.032 204.621

                      1                      2                      3
                      A                      A                      A
 Frequencies --     24.3408                26.4858                39.7816
 Red. masses --      4.0677                 4.1862                 4.0227
 Frc consts  --      0.0014                 0.0017                 0.0038
 IR Inten    --      0.2324                 0.2004                 0.4311

                      4                      5                      6
                      A                      A                      A
 Frequencies --     48.6589                63.2214                76.1031
 Red. masses --      5.1214                 4.9193                 3.8336
 Frc consts  --      0.0071                 0.0116                 0.0131
 IR Inten    --      1.3577                 0.3432                 1.6079

                      7                      8                      9
                      A                      A                      A
 Frequencies --     95.2828                97.4191               119.2069
 Red. masses --      3.6304                 3.4904                 3.1966
 Frc consts  --      0.0194                 0.0195                 0.0268
 IR Inten    --      0.9751                 0.5545                 0.1909

                     10                     11                     12
                      A                      A                      A
 Frequencies --    149.2258               159.0325               214.7753
 Red. masses --      4.5559                 3.0730                 3.6091
 Frc consts  --      0.0598                 0.0458                 0.0981
 IR Inten    --      5.9723                 0.7946                 0.0903

                     13                     14                     15
                      A                      A                      A
 Frequencies --    230.5890               242.9242               261.5248
 Red. masses --      2.4267                 1.4685                 1.6147
 Frc consts  --      0.0760                 0.0511                 0.0651
 IR Inten    --     10.2981                 2.6924                 4.4658

                     16                     17                     18
                      A                      A                      A
 Frequencies --    273.9532               292.7449               315.0528
 Red. masses --      1.4337                 3.0823                 1.5209
 Frc consts  --      0.0634                 0.1556                 0.0889
 IR Inten    --      0.7791                 3.5366                 6.7093

                     19                     20                     21
                      A                      A                      A
 Frequencies --    336.7443               352.1674               383.4419
 Red. masses --      2.9365                 2.6304                 2.7696
 Frc consts  --      0.1962                 0.1922                 0.2399
 IR Inten    --      9.1880                 5.7490                 7.9095

                     22                     23                     24
                      A                      A                      A
 Frequencies --    406.2655               420.0119               457.5890
 Red. masses --      2.6124                 2.9821                 2.4604
 Frc consts  --      0.2540                 0.3100                 0.3035
 IR Inten    --      0.0310                 0.2342                 3.3226

                     25                     26                     27
                      A                      A                      A
 Frequencies --    463.7182               493.7116               513.6814
 Red. masses --      2.4917                 2.8600                 3.3723
 Frc consts  --      0.3157                 0.4107                 0.5243
 IR Inten    --      4.9147                 6.8380                 4.7341

                     28                     29                     30
                      A                      A                      A
 Frequencies --    539.3181               584.9643               600.1479
 Red. masses --      3.4512                 1.7151                 2.5732
 Frc consts  --      0.5914                 0.3458                 0.5461
 IR Inten    --      5.0318                33.7768                43.4790

                     31                     32                     33
                      A                      A                      A
 Frequencies --    638.2420               649.9914               668.9707
 Red. masses --      6.1739                 2.4022                 2.6869
 Frc consts  --      1.4818                 0.5980                 0.7085
 IR Inten    --      0.0608                24.1824                93.1092

                     34                     35                     36
                      A                      A                      A
 Frequencies --    706.9508               718.5630               764.7545
 Red. masses --      3.0887                 1.6328                 2.1432
 Frc consts  --      0.9095                 0.4967                 0.7385
 IR Inten    --     31.7563                44.1227                 8.1802

                     37                     38                     39
                      A                      A                      A
 Frequencies --    780.8265               795.9259               830.1456
 Red. masses --      1.9935                 5.5499                 2.2629
 Frc consts  --      0.7161                 2.0715                 0.9188
 IR Inten    --     14.7684                21.8516                60.1669

                     40                     41                     42
                      A                      A                      A
 Frequencies --    838.8216               855.9815               863.2113
 Red. masses --      3.0948                 2.8947                 1.2492
 Frc consts  --      1.2830                 1.2496                 0.5484
 IR Inten    --      5.3527                15.0999                 0.8941

                     43                     44                     45
                      A                      A                      A
 Frequencies --    900.3280               919.0381               935.3302
 Red. masses --      2.6090                 1.3872                 1.7287
 Frc consts  --      1.2460                 0.6903                 0.8910
 IR Inten    --     25.1735                 7.6884                12.0721

                     46                     47                     48
                      A                      A                      A
 Frequencies --    939.3209               968.0944               970.1368
 Red. masses --      2.1544                 1.6739                 1.5740
 Frc consts  --      1.1200                 0.9243                 0.8728
 IR Inten    --     22.8982                 8.9226                 2.3580

                     49                     50                     51
                      A                      A                      A
 Frequencies --    977.8709               996.7292              1023.1267
 Red. masses --      2.3956                 1.2511                 6.2496
 Frc consts  --      1.3497                 0.7323                 3.8545
 IR Inten    --    156.7214                 0.8755                 0.1189

                     52                     53                     54
                      A                      A                      A
 Frequencies --   1047.2728              1049.4012              1054.7456
 Red. masses --      2.2868                 2.2894                 2.1687
 Frc consts  --      1.4777                 1.4855                 1.4215
 IR Inten    --     54.2636                 3.9319                55.5740

                     55                     56                     57
                      A                      A                      A
 Frequencies --   1061.3896              1090.0232              1100.4526
 Red. masses --      2.2178                 2.0714                 1.8949
 Frc consts  --      1.4721                 1.4501                 1.3520
 IR Inten    --      0.9686                 8.5945                16.1150

                     58                     59                     60
                      A                      A                      A
 Frequencies --   1114.2522              1132.8105              1170.0076
 Red. masses --      2.0349                 1.6928                 1.9445
 Frc consts  --      1.4885                 1.2799                 1.5683
 IR Inten    --      8.1984                 1.9329                 4.1702

                     61                     62                     63
                      A                      A                      A
 Frequencies --   1180.3100              1193.9397              1205.1670
 Red. masses --      2.0263                 1.0983                 2.3783
 Frc consts  --      1.6632                 0.9224                 2.0352
 IR Inten    --     19.5236                 0.0095                 2.0832

                     64                     65                     66
                      A                      A                      A
 Frequencies --   1214.7785              1229.5735              1257.5929
 Red. masses --      1.1430                 3.0381                 1.9968
 Frc consts  --      0.9938                 2.7062                 1.8607
 IR Inten    --      0.3171                 4.5022                14.3692

                     67                     68                     69
                      A                      A                      A
 Frequencies --   1277.2813              1304.6418              1317.9881
 Red. masses --      2.3361                 1.2320                 1.7430
 Frc consts  --      2.2455                 1.2355                 1.7839
 IR Inten    --     10.9246                 5.1251                 5.7523

                     70                     71                     72
                      A                      A                      A
 Frequencies --   1340.7422              1354.1386              1366.7036
 Red. masses --      1.3912                 1.2058                 2.6402
 Frc consts  --      1.4734                 1.3027                 2.9056
 IR Inten    --      8.4733                38.4483                 0.4230

                     73                     74                     75
                      A                      A                      A
 Frequencies --   1378.7454              1382.7234              1403.1317
 Red. masses --      1.4192                 1.2711                 1.4244
 Frc consts  --      1.5895                 1.4318                 1.6523
 IR Inten    --      0.5542                25.7746                69.3855

                     76                     77                     78
                      A                      A                      A
 Frequencies --   1403.8742              1433.1354              1447.2124
 Red. masses --      1.3498                 3.1308                 1.2580
 Frc consts  --      1.5674                 3.7886                 1.5523
 IR Inten    --      0.9581               176.3127                 1.3461

                     79                     80                     81
                      A                      A                      A
 Frequencies --   1458.4175              1466.9424              1469.3708
 Red. masses --      1.3087                 1.1784                 1.2920
 Frc consts  --      1.6401                 1.4941                 1.6436
 IR Inten    --     28.7429                 5.6711                 5.9647

                     82                     83                     84
                      A                      A                      A
 Frequencies --   1499.9140              1502.7904              1503.7349
 Red. masses --      1.0887                 1.1073                 2.1680
 Frc consts  --      1.4431                 1.4734                 2.8884
 IR Inten    --      2.6889                 6.8616                 5.0978

                     85                     86                     87
                      A                      A                      A
 Frequencies --   1516.3441              1521.4886              1530.5780
 Red. masses --      1.0632                 1.0490                 1.0612
 Frc consts  --      1.4404                 1.4308                 1.4647
 IR Inten    --     11.7309                 3.7022                 4.4197

                     88                     89                     90
                      A                      A                      A
 Frequencies --   1533.9742              1541.7497              1546.9622
 Red. masses --      1.0880                 1.0888                 2.0467
 Frc consts  --      1.5084                 1.5248                 2.8858
 IR Inten    --     14.5648                 8.8613                 7.5698

                     91                     92                     93
                      A                      A                      A
 Frequencies --   1563.8140              1646.1630              1666.3342
 Red. masses --      1.1204                 5.5022                 5.5846
 Frc consts  --      1.6144                 8.7848                 9.1362
 IR Inten    --      4.3915                 0.7631                 1.0900

                     94                     95                     96
                      A                      A                      A
 Frequencies --   1728.5660              1805.4657              2987.2662
 Red. masses --      1.0649                 6.7325                 1.0555
 Frc consts  --      1.8746                12.9302                 5.5496
 IR Inten    --     73.8348               371.9655                43.5789

                     97                     98                     99
                      A                      A                      A
 Frequencies --   3041.5462              3047.8211              3064.7027
 Red. masses --      1.0624                 1.0385                 1.0782
 Frc consts  --      5.7904                 5.6838                 5.9666
 IR Inten    --     16.0485                25.9114                 6.1378

                    100                    101                    102
                      A                      A                      A
 Frequencies --   3067.6770              3072.5020              3096.1069
 Red. masses --      1.0628                 1.0856                 1.0803
 Frc consts  --      5.8925                 6.0381                 6.1014
 IR Inten    --     28.4824                33.3290                31.3455

                    103                    104                    105
                      A                      A                      A
 Frequencies --   3108.7390              3124.2589              3124.3000
 Red. masses --      1.0999                 1.1035                 1.1031
 Frc consts  --      6.2630                 6.3463                 6.3442
 IR Inten    --     55.3058                13.1939                24.3114

                    106                    107                    108
                      A                      A                      A
 Frequencies --   3131.2208              3159.2013              3174.6006
 Red. masses --      1.1011                 1.1006                 1.0867
 Frc consts  --      6.3609                 6.4717                 6.4528
 IR Inten    --     32.0183                14.3337                 8.6703

                    109                    110                    111
                      A                      A                      A
 Frequencies --   3184.1169              3194.6742              3205.7465
 Red. masses --      1.0866                 1.0912                 1.0938
 Frc consts  --      6.4905                 6.5614                 6.6226
 IR Inten    --      0.2438                23.3272                37.6215

                    112                    113                    114
                      A                      A                      A
 Frequencies --   3212.9948              3375.2262              3433.0688
 Red. masses --      1.0966                 1.0729                 1.0520
 Frc consts  --      6.6702                 7.2012                 7.3049
 IR Inten    --     10.2692                 9.9986                14.2360

                    115                    116                    117
                      A                      A                      A
 Frequencies --   3459.5732              3525.9173              3616.6635
 Red. masses --      1.0740                 1.0892                 1.0770
 Frc consts  --      7.5736                 7.9784                 8.3003
 IR Inten    --      4.5235                52.4024                38.8755

 - Thermochemistry -
 -------------------
 Temperature   298.150 Kelvin.  Pressure   1.00000 Atm.
 Atom     1 has atomic number  6 and mass  12.00000

 Molecular mass:   266.18551 amu.
 Principal axes and moments of inertia in atomic units:
                           1         2         3
     Eigenvalues --  2768.752878543.13570**********
           X            0.99995  -0.00619   0.00730
           Y            0.00624   0.99995  -0.00770
           Z           -0.00725   0.00775   0.99994
 This molecule is an asymmetric top.
 Rotational symmetry number  1.
 Warning -- assumption of classical behavior for rotation
           may cause significant error
 Rotational temperatures (Kelvin)      0.03128     0.01014     0.00848
 Rotational constants (GHZ):           0.65182     0.21125     0.17663
 Zero-point vibrational energy     935760.9 (Joules/Mol)
                                  223.65223 (Kcal/Mol)
 Warning -- explicit consideration of  30 degrees of freedom as
           vibrations may cause significant error
 Vibrational temperatures:     35.02    38.11    57.24    70.01    90.96
          (Kelvin)            109.50   137.09   140.16   171.51   214.70
                              228.81   309.01   331.77   349.51   376.28
                              394.16   421.19   453.29   484.50   506.69
                              551.69   584.53   604.30   658.37   667.19
                              710.34   739.07   775.96   841.63   863.48
                              918.29   935.19   962.50  1017.14  1033.85
                             1100.31  1123.44  1145.16  1194.39  1206.88
                             1231.57  1241.97  1295.37  1322.29  1345.73
                             1351.47  1392.87  1395.81  1406.94  1434.07
                             1472.05  1506.79  1509.85  1517.54  1527.10
                             1568.30  1583.31  1603.16  1629.86  1683.38
                             1698.20  1717.81  1733.97  1747.80  1769.08
                             1809.40  1837.72  1877.09  1896.29  1929.03
                             1948.30  1966.38  1983.71  1989.43  2018.79
                             2019.86  2061.96  2082.22  2098.34  2110.60
                             2114.10  2158.04  2162.18  2163.54  2181.68
                             2189.08  2202.16  2207.05  2218.23  2225.73
                             2249.98  2368.46  2397.48  2487.02  2597.66
                             4298.01  4376.11  4385.13  4409.42  4413.70
                             4420.65  4454.61  4472.78  4495.11  4495.17
                             4505.13  4545.39  4567.54  4581.23  4596.42
                             4612.35  4622.78  4856.20  4939.42  4977.55
                             5073.01  5203.57

 Zero-point correction=                           0.356413 (Hartree/Particle)
 Thermal correction to Energy=                    0.376222
 Thermal correction to Enthalpy=                  0.377166
 Thermal correction to Gibbs Free Energy=         0.306262
 Sum of electronic and zero-point Energies=           -873.859620
 Sum of electronic and thermal Energies=              -873.839810
 Sum of electronic and thermal Enthalpies=            -873.838866
 Sum of electronic and thermal Free Energies=         -873.909770

                     E (Thermal)             CV                S
                      KCal/Mol        Cal/Mol-Kelvin    Cal/Mol-Kelvin
 Total                  236.083             74.501            149.230
 Electronic               0.000              0.000              0.000
 Translational            0.889              2.981             42.636
 Rotational               0.889              2.981             33.846
 Vibrational            234.306             68.540             72.748
 Vibration     1          0.593              1.985              6.244
 Vibration     2          0.593              1.985              6.077
 Vibration     3          0.594              1.981              5.270
 Vibration     4          0.595              1.978              4.871
 Vibration     5          0.597              1.972              4.354
 Vibration     6          0.599              1.965              3.989
 Vibration     7          0.603              1.953              3.549
 Vibration     8          0.603              1.951              3.505
 Vibration     9          0.609              1.933              3.113
 Vibration    10          0.618              1.904              2.682
 Vibration    11          0.621              1.892              2.561
 Vibration    12          0.645              1.818              2.003
 Vibration    13          0.652              1.794              1.874
 Vibration    14          0.659              1.774              1.781
 Vibration    15          0.669              1.743              1.652
 Vibration    16          0.676              1.721              1.571
 Vibration    17          0.688              1.687              1.458
 Vibration    18          0.702              1.645              1.336
 Vibration    19          0.717              1.602              1.228
 Vibration    20          0.729              1.571              1.156
 Vibration    21          0.753              1.506              1.026
 Vibration    22          0.771              1.457              0.940
 Vibration    23          0.783              1.427              0.892
 Vibration    24          0.816              1.344              0.773
 Vibration    25          0.821              1.331              0.755
 Vibration    26          0.849              1.264              0.674
 Vibration    27          0.869              1.220              0.625
 Vibration    28          0.894              1.163              0.567
 Vibration    29          0.942              1.064              0.476
 Vibration    30          0.958              1.031              0.449

                           ! Non-Optimized Parameters !
 Normal termination of Gaussian 16 at Mon Dec 14 13:51:48 2020.

 ----------------------------------------------------------------------
 # B3LYP/6-311++G(d,p) empiricaldispersion=gd3bj scf=xqc pop=npa geom=c
 heck
 ----------------------------------------------------------------------

 ---------------------------------------
 CID_141444341_JID_9133_Energie_neutraal
 ---------------------------------------
 Structure from the checkpoint file:  "JID_9133.chk"
 Charge =  0 Multiplicity = 1

 SCF Done:  E(RB3LYP) =  -874.474519828     A.U. after   16 cycles
 Normal termination of Gaussian 16 at Mon Dec 14 14:02:49 2020.

 ----------------------------------------------------------------------
 # B3LYP/6-311++G(d,p) empiricaldispersion=gd3bj scf=xqc pop=npa geom=c
 heck
 ----------------------------------------------------------------------

 -------------------------------------
 CID_141444341_JID_9133_Energie_kation
 -------------------------------------
 Structure from the checkpoint file:  "JID_9133.chk"
 Charge =  1 Multiplicity = 2

 SCF Done:  E(UB3LYP) =  -874.173850634     A.U. after   33 cycles
 SCF Done:  E(UB3LYP) =  -874.176771281     a.u. after   11 cycles
 Normal termination of Gaussian 16 at Mon Dec 14 18:39:41 2020.
 Gaussian 16:  ES64L-G16RevA.03 25-Dec-2016

 ----------------------------------------------------------------------
 # B3LYP/6-311++G(d,p) empiricaldispersion=gd3bj scf=xqc pop=npa geom=c
 heck
 ----------------------------------------------------------------------

 ------------------------------------
 CID_141444341_JID_9133_Energie_anion
 ------------------------------------
 Structure from the checkpoint file:  "JID_9133.chk"
 Charge = -1 Multiplicity = 2

                         Standard orientation:
 ---------------------------------------------------------------------
 Center     Atomic      Atomic             Coordinates (Angstroms)
 Number     Number       Type             X           Y           Z
 ---------------------------------------------------------------------
      1          6           0       -0.454258    3.207160    0.406916
      2          6           0       -1.801867    2.878570   -0.244216
      3          6           0       -1.836080    1.589541   -1.079939
      4          7           0       -1.508345    0.321407   -0.404955
      5          7           0       -2.266558    0.090685    0.774393
      6          6           0       -3.572642   -0.417568    0.611631
      7          8           0       -4.498124    0.006554    1.291683
      8          7           0       -3.728637   -1.386500   -0.347758
      9          7           0       -2.729568   -2.277544   -0.807490
     10          7           0       -0.122426    0.142758   -0.238636
     11          7           0        0.251924   -1.228016   -0.334066
     12          6           0        0.358382   -1.875444    0.973729
     13          6           0        1.480847   -1.334961   -1.146433
     14          6           0        2.699647   -0.657534   -0.552243
     15          6           0        3.615614   -1.376500    0.224657
     16          6           0        4.702418   -0.738885    0.824654
     17          6           0        4.887236    0.633247    0.653637
     18          6           0        3.983485    1.360889   -0.123486
     19          6           0        2.899824    0.719483   -0.721859
     20          1           0       -0.218500    2.523801    1.231543
     21          1           0       -0.460843    4.219160    0.825628
     22          1           0        0.366209    3.141963   -0.315843
     23          1           0       -2.591227    2.850618    0.518886
     24          1           0       -2.086324    3.693767   -0.921973
     25          1           0       -2.843257    1.462982   -1.493629
     26          1           0       -1.136512    1.660824   -1.916621
     27          1           0       -2.320544    0.893139    1.403716
     28          1           0       -4.667707   -1.758882   -0.389873
     29          1           0       -1.984638   -1.708211   -1.208701
     30          1           0       -2.306590   -2.737568    0.000779
     31          1           0        0.192233    0.526009    0.658009
     32          1           0        0.621924   -2.928525    0.829851
     33          1           0        1.124376   -1.417325    1.622589
     34          1           0       -0.608666   -1.814876    1.475641
     35          1           0        1.242862   -0.905098   -2.122726
     36          1           0        1.673060   -2.404721   -1.286328
     37          1           0        3.478821   -2.447586    0.355385
     38          1           0        5.405254   -1.313697    1.421473
     39          1           0        5.733574    1.131989    1.117529
     40          1           0        4.126620    2.428433   -0.267488
     41          1           0        2.194496    1.283859   -1.324003
 ---------------------------------------------------------------------

 SCF Done:  E(UB3LYP) =  -874.466230781     A.U. after   33 cycles
 SCF Done:  E(UB3LYP) =  -874.466230781     a.u. after    1 cycles

 The electronic state is 2-A.
 Alpha  occ. eigenvalues --  -19.00942 -14.28778 -14.27405 -14.27211 -14.27118
 Alpha  occ. eigenvalues --  -14.25225 -14.24385 -10.21528 -10.11520 -10.11121
 Alpha  occ. eigenvalues --  -10.10169 -10.09104 -10.08734 -10.08718 -10.08679
 Alpha  occ. eigenvalues --  -10.08625 -10.08598 -10.08340 -10.07494  -0.98437
 Alpha  occ. eigenvalues --   -0.95155  -0.89360  -0.87207  -0.77926  -0.76503
 Alpha  occ. eigenvalues --   -0.71305  -0.70983  -0.67854  -0.65977  -0.65455
 Alpha  occ. eigenvalues --   -0.61755  -0.58696  -0.54387  -0.53914  -0.51959
 Alpha  occ. eigenvalues --   -0.51286  -0.49588  -0.46985  -0.44727  -0.43217
 Alpha  occ. eigenvalues --   -0.42100  -0.41494  -0.41047  -0.39653  -0.38187
 Alpha  occ. eigenvalues --   -0.37381  -0.37049  -0.35933  -0.35201  -0.34978
 Alpha  occ. eigenvalues --   -0.34214  -0.33488  -0.33222  -0.31914  -0.31465
 Alpha  occ. eigenvalues --   -0.30468  -0.29191  -0.27987  -0.27556  -0.26893
 Alpha  occ. eigenvalues --   -0.26493  -0.25829  -0.25317  -0.21989  -0.20532
 Alpha  occ. eigenvalues --   -0.19599  -0.18328  -0.17157  -0.16790  -0.16682
 Alpha  occ. eigenvalues --   -0.15713  -0.14751   0.03688
 Alpha virt. eigenvalues --    0.05576   0.06128   0.06566   0.07152   0.07410
 Alpha virt. eigenvalues --    0.07466   0.07630   0.08612   0.08840   0.09045
 Alpha virt. eigenvalues --    0.09545   0.09933   0.10187   0.10996   0.11174

  Beta  occ. eigenvalues --  -19.00937 -14.28777 -14.27400 -14.27201 -14.27100
  Beta  occ. eigenvalues --  -14.25223 -14.24373 -10.21526 -10.11508 -10.11109
  Beta  occ. eigenvalues --  -10.10140 -10.09098 -10.08719 -10.08700 -10.08665
  Beta  occ. eigenvalues --  -10.08613 -10.08582 -10.08324 -10.07457  -0.98427
  Beta  occ. eigenvalues --   -0.95144  -0.89349  -0.87192  -0.77903  -0.76477
  Beta  occ. eigenvalues --   -0.71277  -0.70954  -0.67821  -0.65940  -0.65418
  Beta  occ. eigenvalues --   -0.61714  -0.58652  -0.54354  -0.53885  -0.51915
  Beta  occ. eigenvalues --   -0.51229  -0.49548  -0.46965  -0.44699  -0.43183
  Beta  occ. eigenvalues --   -0.42058  -0.41473  -0.41021  -0.39637  -0.38157
  Beta  occ. eigenvalues --   -0.37334  -0.37020  -0.35895  -0.35175  -0.34959
  Beta  occ. eigenvalues --   -0.34185  -0.33458  -0.33194  -0.31883  -0.31431
  Beta  occ. eigenvalues --   -0.30436  -0.29164  -0.27949  -0.27524  -0.26845
  Beta  occ. eigenvalues --   -0.26453  -0.25796  -0.25284  -0.21975  -0.20511
  Beta  occ. eigenvalues --   -0.19584  -0.18315  -0.17141  -0.16753  -0.16655
  Beta  occ. eigenvalues --   -0.15695  -0.14738
  Beta virt. eigenvalues --    0.05697   0.06466   0.06613   0.06800   0.07208
  Beta virt. eigenvalues --    0.07705   0.07868   0.08036   0.09010   0.09101
  Beta virt. eigenvalues --    0.09364   0.09876   0.10078   0.10323   0.11314

 Mulliken charges and spin densities:
               1          2
     1  C    0.247834  -0.765641
     2  C    0.046291  -0.424611
     3  C    0.089316  -0.177188
     4  N    0.532694   0.039192
     5  N   -0.800732   0.031302
     6  C    0.255048  -0.227799
     7  O   -0.334341   0.020962
     8  N   -0.364663   0.059531
     9  N   -0.304009  -0.071553
    10  N   -0.138138   0.107281
    11  N   -0.166315  -0.071423
    12  C    0.138726  -0.656721
    13  C    1.315578  -1.840414
    14  C   -0.054796   0.804638
    15  C   -0.286686   0.295414
    16  C    0.258965  -0.589588
    17  C    0.976209  -1.323174
    18  C   -0.057972  -0.261804
    19  C   -1.278747   0.883572
    20  H   -0.281207   0.418289
    21  H   -0.547072   0.715661
    22  H    0.133618   0.011035
    23  H    0.166422   0.001460
    24  H   -0.217639   0.379459
    25  H    0.104794   0.061565
    26  H   -0.156047   0.365286
    27  H    0.239763   0.075216
    28  H    0.291777   0.048781
    29  H    0.301203  -0.007176
    30  H    0.112404   0.106320
    31  H    0.456133  -0.391996
    32  H   -0.260409   0.434521
    33  H    0.098856   0.079630
    34  H   -0.071773   0.247457
    35  H    0.037812   0.151056
    36  H   -0.094516   0.277637
    37  H   -0.360221   0.512721
    38  H   -0.454889   0.636182
    39  H   -0.110181   0.261033
    40  H   -0.455852   0.643267
    41  H   -0.007240   0.140621
 Sum of Mulliken charges =  -1.00000   1.00000

 Dipole moment (field-independent basis, Debye):
    X=             -2.9138    Y=             -1.8092    Z=             -1.5316  Tot=              3.7562
 Quadrupole moment (field-independent basis, Debye-Ang):
   XX=           -209.4694   YY=           -180.8005   ZZ=           -151.8241
   XY=              4.0507   XZ=              0.8449   YZ=             -0.4246

 Summary of Natural Population Analysis:

                                       Natural Population
                Natural  -----------------------------------------------
    Atom  No    Charge         Core      Valence    Rydberg      Total
 -----------------------------------------------------------------------
      C    1   -0.28769      0.99967     2.28224    0.00579     3.28769
      C    2   -0.20677      0.99964     2.19935    0.00778     3.20677
      C    3   -0.08557      0.99959     2.07461    0.01136     3.08557
      N    4   -0.10822      0.99972     2.59181    0.01669     3.60822
      N    5   -0.25670      0.99967     2.74488    0.01215     3.75670
      C    6    0.39734      0.99971     1.58001    0.02295     2.60266
      O    7   -0.33070      0.99988     3.32527    0.00555     4.33070
      N    8   -0.24240      0.99966     2.73124    0.01150     3.74240
      N    9   -0.32219      0.99977     2.81079    0.01163     3.82219
      N   10   -0.15762      0.99973     2.64348    0.01441     3.65762
      N   11   -0.18964      0.99973     2.67472    0.01519     3.68964
      C   12   -0.19316      0.99963     2.18418    0.00935     3.19316
      C   13   -0.08881      0.99957     2.07649    0.01275     3.08881
      C   14   -0.03216      0.99950     2.02249    0.01017     3.03216
      C   15   -0.09978      0.99951     2.08987    0.01040     3.09978
      C   16   -0.10041      0.99956     2.09047    0.01038     3.10041
      C   17   -0.10058      0.99956     2.09154    0.00948     3.10058
      C   18   -0.09999      0.99956     2.09000    0.01043     3.09999
      C   19   -0.09599      0.99951     2.08678    0.00970     3.09599
      H   20    0.09103      0.00000     0.40750    0.00146     0.40897
      H   21    0.10303      0.00000     0.39575    0.00122     0.39697
      H   22    0.10197      0.00000     0.39635    0.00167     0.39803
      H   23    0.09494      0.00000     0.40383    0.00123     0.40506
      H   24    0.10297      0.00000     0.39588    0.00116     0.39703
      H   25    0.09737      0.00000     0.40149    0.00114     0.40263
      H   26    0.10472      0.00000     0.39396    0.00131     0.39528
      H   27    0.18486      0.00000     0.31244    0.00269     0.31514
      H   28    0.18878      0.00000     0.30907    0.00216     0.31122
      H   29    0.19304      0.00000     0.30379    0.00317     0.30696
      H   30    0.16758      0.00000     0.32983    0.00259     0.33242
      H   31    0.16484      0.00000     0.33152    0.00365     0.33516
      H   32    0.09909      0.00000     0.39952    0.00139     0.40091
      H   33    0.08981      0.00000     0.40868    0.00152     0.41019
      H   34    0.10190      0.00000     0.39671    0.00139     0.39810
      H   35    0.10308      0.00000     0.39555    0.00138     0.39692
      H   36    0.09900      0.00000     0.39981    0.00120     0.40100
      H   37    0.10194      0.00000     0.39649    0.00157     0.39806
      H   38    0.10169      0.00000     0.39713    0.00119     0.39831
      H   39    0.10110      0.00000     0.39787    0.00102     0.39890
      H   40    0.10245      0.00000     0.39641    0.00113     0.39755
      H   41    0.10586      0.00000     0.39215    0.00199     0.39414
 =======================================================================
   * Total *    0.00000     18.99316    52.75193    0.25491    72.00000

 Normal termination of Gaussian 16 at Mon Dec 14 19:12:05 2020.
