 Gaussian 16, Revision A.03,

 -----------------------------------------------------------
 # opt freq B3LYP/6-31G(d) empiricaldispersion=gd3bj scf=xqc
 -----------------------------------------------------------

 ------------------------------
 CID_85972710_JID_1457_neutraal
 ------------------------------
 Symbolic Z-matrix:
 Charge =  0 Multiplicity = 1

 SCF Done:  E(RB3LYP) =  -838.387260095     A.U. after   17 cycles
 SCF Done:  E(RB3LYP) =  -838.395195698     A.U. after   18 cycles
 SCF Done:  E(RB3LYP) =  -838.398696820     A.U. after   18 cycles
 SCF Done:  E(RB3LYP) =  -838.399992920     A.U. after   18 cycles
 SCF Done:  E(RB3LYP) =  -838.400862795     A.U. after   15 cycles
 SCF Done:  E(RB3LYP) =  -838.401033907     A.U. after   14 cycles
 SCF Done:  E(RB3LYP) =  -838.401145979     A.U. after   14 cycles
 SCF Done:  E(RB3LYP) =  -838.401186844     A.U. after   13 cycles
 SCF Done:  E(RB3LYP) =  -838.401187581     A.U. after   10 cycles
 SCF Done:  E(RB3LYP) =  -838.401187806     A.U. after    9 cycles
 SCF Done:  E(RB3LYP) =  -838.401188242     A.U. after   10 cycles
 SCF Done:  E(RB3LYP) =  -838.401188542     A.U. after   11 cycles
 SCF Done:  E(RB3LYP) =  -838.401188776     A.U. after    9 cycles
 SCF Done:  E(RB3LYP) =  -838.401188971     A.U. after   10 cycles
 SCF Done:  E(RB3LYP) =  -838.401189067     A.U. after    8 cycles
 SCF Done:  E(RB3LYP) =  -838.401189102     A.U. after    9 cycles
 Optimization completed.
    -- Stationary point found.
 Normal termination of Gaussian 16 at Tue Dec  8 20:05:10 2020.

 --------------------------------------------------------------------
 #N Geom=AllCheck Guess=TCheck SCRF=Check GenChk RB3LYP/6-31G(d) Freq
 --------------------------------------------------------------------

 Structure from the checkpoint file:  "JID_1457.chk"
 ------------------------------
 CID_85972710_JID_1457_neutraal
 ------------------------------
 Charge =  0 Multiplicity = 1

 SCF Done:  E(RB3LYP) =  -838.401189102     A.U. after    1 cycles

  Exact polarizability: 195.304   4.348 115.060  -0.001   0.000  52.382
 Approx polarizability: 342.547  11.149 191.257  -0.002  -0.001  81.171

                      1                      2                      3
                      A                      A                      A
 Frequencies --     46.7550                51.0397                93.9965
 Red. masses --      2.6681                 1.1866                 7.5142
 Frc consts  --      0.0034                 0.0018                 0.0391
 IR Inten    --      0.7097                 0.0750                 3.4237

                      4                      5                      6
                      A                      A                      A
 Frequencies --    164.3262               166.4091               197.1824
 Red. masses --      4.7682                 4.0621                 2.7337
 Frc consts  --      0.0759                 0.0663                 0.0626
 IR Inten    --      0.0089                 1.0755                 1.2807

                      7                      8                      9
                      A                      A                      A
 Frequencies --    230.8487               241.5916               290.5322
 Red. masses --      5.2006                 1.2013                 3.8122
 Frc consts  --      0.1633                 0.0413                 0.1896
 IR Inten    --      1.9432                 0.0942                 1.6276

                     10                     11                     12
                      A                      A                      A
 Frequencies --    317.7132               367.7564               412.1426
 Red. masses --      5.9450                 8.4416                 4.3668
 Frc consts  --      0.3536                 0.6727                 0.4370
 IR Inten    --      0.3924                 6.4543                 7.6115

                     13                     14                     15
                      A                      A                      A
 Frequencies --    456.7900               537.7611               564.6150
 Red. masses --      3.0234                 5.4178                 3.7881
 Frc consts  --      0.3717                 0.9231                 0.7115
 IR Inten    --      1.8171                 0.0980                 0.2046

                     16                     17                     18
                      A                      A                      A
 Frequencies --    600.0767               687.8785               729.0012
 Red. masses --      5.4803                 7.0846                 6.4576
 Frc consts  --      1.1627                 1.9751                 2.0220
 IR Inten    --      3.0889                 3.7449                 0.3058

                     19                     20                     21
                      A                      A                      A
 Frequencies --    729.2162               826.4721               843.3846
 Red. masses --      3.9725                 6.0398                 1.3805
 Frc consts  --      1.2446                 2.4307                 0.5786
 IR Inten    --      0.0001                28.8994                29.4791

                     22                     23                     24
                      A                      A                      A
 Frequencies --    874.2981               902.2707               990.8608
 Red. masses --      1.3090                 5.2584                 1.1932
 Frc consts  --      0.5895                 2.5222                 0.6902
 IR Inten    --      4.8182                52.3746                 5.7438

                     25                     26                     27
                      A                      A                      A
 Frequencies --    997.8581              1007.2368              1026.5660
 Red. masses --      1.2962                 1.3206                 1.5479
 Frc consts  --      0.7604                 0.7894                 0.9611
 IR Inten    --      0.0000                 9.0512                 0.7339

                     28                     29                     30
                      A                      A                      A
 Frequencies --   1073.4693              1105.4568              1140.8375
 Red. masses --      1.5350                 2.7069                 1.8763
 Frc consts  --      1.0422                 1.9490                 1.4388
 IR Inten    --      4.0610               161.4010                10.2801

                     31                     32                     33
                      A                      A                      A
 Frequencies --   1218.8951              1221.6640              1318.5089
 Red. masses --      2.1377                 3.1183                 1.4003
 Frc consts  --      1.8713                 2.7420                 1.4343
 IR Inten    --      3.8752               204.3861                10.8874

                     34                     35                     36
                      A                      A                      A
 Frequencies --   1368.1566              1389.3452              1443.0426
 Red. masses --      8.3453                 1.1820                 1.4804
 Frc consts  --      9.2038                 1.3443                 1.8162
 IR Inten    --      6.3455                 1.9277                27.4887

                     37                     38                     39
                      A                      A                      A
 Frequencies --   1448.6816              1499.8111              1502.9993
 Red. masses --      2.0543                 1.0511                 2.0784
 Frc consts  --      2.5402                 1.3930                 2.7662
 IR Inten    --     42.0135                11.1797                13.6423

                     40                     41                     42
                      A                      A                      A
 Frequencies --   1507.9023              1517.0414              1520.8280
 Red. masses --      1.0448                 1.1594                 1.1622
 Frc consts  --      1.3997                 1.5720                 1.5837
 IR Inten    --      4.6217                49.6996                 1.8148

                     43                     44                     45
                      A                      A                      A
 Frequencies --   1574.5314              1618.6561              1658.5635
 Red. masses --      6.4785                 6.9184                 6.7506
 Frc consts  --      9.4629                10.6799                10.9410
 IR Inten    --    438.7437                26.5698                57.0899

                     46                     47                     48
                      A                      A                      A
 Frequencies --   3066.2022              3069.5072              3130.9657
 Red. masses --      1.0356                 1.0300                 1.1005
 Frc consts  --      5.7365                 5.7177                 6.3561
 IR Inten    --     16.2864                16.2312                 7.2112

                     49                     50                     51
                      A                      A                      A
 Frequencies --   3138.3538              3155.7214              3165.2915
 Red. masses --      1.1038                 1.1084                 1.1042
 Frc consts  --      6.4055                 6.5032                 6.5182
 IR Inten    --     14.3396                 6.8663                 3.0350

                     52                     53                     54
                      A                      A                      A
 Frequencies --   3194.9088              3221.5267              3227.8582
 Red. masses --      1.0897                 1.0888                 1.0919
 Frc consts  --      6.5533                 6.6574                 6.7028
 IR Inten    --      4.2872                 8.4235                 1.9534

 - Thermochemistry -
 -------------------
 Temperature   298.150 Kelvin.  Pressure   1.00000 Atm.
 Atom     1 has atomic number  6 and mass  12.00000

 Molecular mass:   167.04049 amu.
 Principal axes and moments of inertia in atomic units:
                           1         2         3
     Eigenvalues --   836.631523332.543614146.52750
           X            0.99998   0.00688   0.00000
           Y           -0.00688   0.99998  -0.00000
           Z           -0.00000   0.00000   1.00000
 This molecule is an asymmetric top.
 Rotational symmetry number  1.
 Warning -- assumption of classical behavior for rotation
           may cause significant error
 Rotational temperatures (Kelvin)      0.10353     0.02599     0.02089
 Rotational constants (GHZ):           2.15715     0.54155     0.43524
 Zero-point vibrational energy     405852.9 (Joules/Mol)
                                   97.00117 (Kcal/Mol)
 Warning -- explicit consideration of  16 degrees of freedom as
           vibrations may cause significant error
 Vibrational temperatures:     67.27    73.43   135.24   236.43   239.43
          (Kelvin)            283.70   332.14   347.60   418.01   457.12
                              529.12   592.98   657.22   773.72   812.35
                              863.38   989.70  1048.87  1049.18  1189.11
                             1213.44  1257.92  1298.17  1425.63  1435.70
                             1449.19  1477.00  1544.48  1590.51  1641.41
                             1753.72  1757.70  1897.04  1968.47  1998.96
                             2076.22  2084.33  2157.89  2162.48  2169.54
                             2182.68  2188.13  2265.40  2328.89  2386.30
                             4411.58  4416.34  4504.76  4515.39  4540.38
                             4554.15  4596.76  4635.06  4644.17

 Zero-point correction=                           0.154581 (Hartree/Particle)
 Thermal correction to Energy=                    0.165804
 Thermal correction to Enthalpy=                  0.166748
 Thermal correction to Gibbs Free Energy=         0.116573
 Sum of electronic and zero-point Energies=           -838.246608
 Sum of electronic and thermal Energies=              -838.235385
 Sum of electronic and thermal Enthalpies=            -838.234441
 Sum of electronic and thermal Free Energies=         -838.284616

                     E (Thermal)             CV                S
                      KCal/Mol        Cal/Mol-Kelvin    Cal/Mol-Kelvin
 Total                  104.044             40.401            105.603
 Electronic               0.000              0.000              0.000
 Translational            0.889              2.981             41.247
 Rotational               0.889              2.981             30.826
 Vibrational            102.266             34.439             33.531
 Vibration     1          0.595              1.979              4.950
 Vibration     2          0.595              1.977              4.777
 Vibration     3          0.603              1.953              3.575
 Vibration     4          0.623              1.886              2.499
 Vibration     5          0.624              1.884              2.476
 Vibration     6          0.637              1.844              2.159
 Vibration     7          0.653              1.794              1.872
 Vibration     8          0.658              1.777              1.791
 Vibration     9          0.686              1.691              1.471
 Vibration    10          0.704              1.640              1.322
 Vibration    11          0.740              1.539              1.089
 Vibration    12          0.776              1.444              0.919
 Vibration    13          0.815              1.346              0.776
 Vibration    14          0.893              1.167              0.570
 Vibration    15          0.920              1.108              0.515
 Vibration    16          0.958              1.032              0.450

 Optimization completed.
    -- Stationary point found.
 Normal termination of Gaussian 16 at Tue Dec  8 20:08:49 2020.

 ----------------------------------------------------------------------
 # B3LYP/6-311++G(d,p) empiricaldispersion=gd3bj scf=xqc pop=npa geom=c
 heck
 ----------------------------------------------------------------------

 --------------------------------------
 CID_85972710_JID_1457_Energie_neutraal
 --------------------------------------
 Structure from the checkpoint file:  "JID_1457.chk"
 Charge =  0 Multiplicity = 1

 SCF Done:  E(RB3LYP) =  -838.546986237     A.U. after   15 cycles
 Normal termination of Gaussian 16 at Tue Dec  8 20:10:28 2020.

 ----------------------------------------------------------------------
 # B3LYP/6-311++G(d,p) empiricaldispersion=gd3bj scf=xqc pop=npa geom=c
 heck
 ----------------------------------------------------------------------

 ------------------------------------
 CID_85972710_JID_1457_Energie_kation
 ------------------------------------
 Structure from the checkpoint file:  "JID_1457.chk"
 Charge =  1 Multiplicity = 2

 SCF Done:  E(UB3LYP) =  -838.261208050     A.U. after   31 cycles
 Normal termination of Gaussian 16 at Tue Dec  8 20:16:37 2020.
 Gaussian 16:  ES64L-G16RevA.03 25-Dec-2016

 ----------------------------------------------------------------------
 # B3LYP/6-311++G(d,p) empiricaldispersion=gd3bj scf=xqc pop=npa geom=c
 heck
 ----------------------------------------------------------------------

 -----------------------------------
 CID_85972710_JID_1457_Energie_anion
 -----------------------------------
 Structure from the checkpoint file:  "JID_1457.chk"
 Charge = -1 Multiplicity = 2

                         Standard orientation:
 ---------------------------------------------------------------------
 Center     Atomic      Atomic             Coordinates (Angstroms)
 Number     Number       Type             X           Y           Z
 ---------------------------------------------------------------------
      1          6           0       -1.491017    2.398164   -0.000013
      2          6           0       -0.889724    1.014850    0.000002
      3          6           0       -1.699115   -0.138399    0.000016
      4          6           0       -1.126802   -1.421772    0.000039
      5          6           0        0.243874   -1.573407    0.000044
      6          6           0        1.073314   -0.430815    0.000024
      7          6           0        0.496226    0.846414    0.000012
      8         16           0        2.814846   -0.732930   -0.000075
      9          6           0        3.539395    0.937550    0.000067
     10          7           0       -3.107713    0.076319   -0.000090
     11          8           0       -3.794258   -0.942540    0.000031
     12          1           0       -2.126899    2.553768   -0.876775
     13          1           0       -2.126297    2.554052    0.877143
     14          1           0       -0.705471    3.159515   -0.000376
     15          1           0       -1.795319   -2.276007    0.000073
     16          1           0        0.689891   -2.563921    0.000055
     17          1           0        1.122424    1.730916    0.000009
     18          1           0        3.256809    1.494773   -0.896624
     19          1           0        3.256743    1.494609    0.896840
     20          1           0        4.621740    0.789747    0.000096
 ---------------------------------------------------------------------

 SCF Done:  E(UB3LYP) =  -838.588451292     A.U. after   23 cycles

 The electronic state is 2-A.
 Alpha  occ. eigenvalues --  -88.73372 -18.92285 -14.16745 -10.09956 -10.06083
 Alpha  occ. eigenvalues --  -10.03569 -10.03564 -10.03510 -10.03257 -10.02280
 Alpha  occ. eigenvalues --  -10.01755  -7.81996  -5.78410  -5.77987  -5.77393
 Alpha  occ. eigenvalues --   -0.91333  -0.72870  -0.68397  -0.63667  -0.61261
 Alpha  occ. eigenvalues --   -0.55654  -0.55496  -0.48507  -0.45163  -0.41632
 Alpha  occ. eigenvalues --   -0.35864  -0.33876  -0.33523  -0.32093  -0.30191
 Alpha  occ. eigenvalues --   -0.28810  -0.27701  -0.27491  -0.25451  -0.24930
 Alpha  occ. eigenvalues --   -0.24254  -0.22479  -0.21095  -0.20080  -0.18075
 Alpha  occ. eigenvalues --   -0.14992  -0.11461  -0.08354  -0.01164   0.02467
 Alpha virt. eigenvalues --    0.06996   0.09438   0.10356   0.11105   0.11253
 Alpha virt. eigenvalues --    0.12581   0.12905   0.13299   0.14347   0.14494
 Alpha virt. eigenvalues --    0.15031   0.15433   0.15869   0.16845   0.16862

  Beta  occ. eigenvalues --  -88.73363 -18.91288 -14.16092 -10.09959 -10.05778
  Beta  occ. eigenvalues --  -10.03666 -10.03602 -10.03392 -10.03269 -10.02294
  Beta  occ. eigenvalues --  -10.01567  -7.81988  -5.78410  -5.77990  -5.77354
  Beta  occ. eigenvalues --   -0.89617  -0.72602  -0.68208  -0.63444  -0.60810
  Beta  occ. eigenvalues --   -0.55571  -0.54953  -0.47709  -0.44895  -0.41253
  Beta  occ. eigenvalues --   -0.35608  -0.33758  -0.33484  -0.31790  -0.29882
  Beta  occ. eigenvalues --   -0.28380  -0.27593  -0.27133  -0.25396  -0.23945
  Beta  occ. eigenvalues --   -0.23031  -0.20804  -0.19921  -0.19715  -0.17423
  Beta  occ. eigenvalues --   -0.13813  -0.10955  -0.06914  -0.00174
  Beta virt. eigenvalues --    0.06988   0.09427   0.10341   0.10421   0.11243
  Beta virt. eigenvalues --    0.11253   0.12918   0.12927   0.13306   0.14493
  Beta virt. eigenvalues --    0.14514   0.15051   0.15865   0.16148   0.16842

 Mulliken charges and spin densities:
               1          2
     1  C   -0.278189  -0.014669
     2  C    1.166432   0.157402
     3  C   -1.236915  -0.092354
     4  C   -0.435437   0.202484
     5  C   -0.447026  -0.107543
     6  C    0.777276   0.191987
     7  C    0.082845  -0.027735
     8  S   -0.887559   0.018882
     9  C   -0.454975   0.003655
    10  N   -0.266117   0.312950
    11  O   -0.240170   0.345370
    12  H    0.154457   0.010756
    13  H    0.154431   0.010760
    14  H    0.097232  -0.001494
    15  H    0.159308  -0.015950
    16  H    0.134132   0.003409
    17  H    0.018557   0.001776
    18  H    0.175204   0.000320
    19  H    0.175195   0.000322
    20  H    0.151318  -0.000326
 Sum of Mulliken charges =  -1.00000   1.00000

 Dipole moment (field-independent basis, Debye):
    X=              9.6584    Y=              2.8720    Z=              0.0002  Tot=             10.0763
 Quadrupole moment (field-independent basis, Debye-Ang):
   XX=           -126.7515   YY=            -81.4865   ZZ=            -80.4470
   XY=             -0.1039   XZ=              0.0002   YZ=              0.0003

 Summary of Natural Population Analysis:

                                       Natural Population
                Natural  -----------------------------------------------
    Atom  No    Charge         Core      Valence    Rydberg      Total
 -----------------------------------------------------------------------
      C    1   -0.29411      0.99964     2.28825    0.00622     3.29411
      C    2    0.02745      0.99948     1.96395    0.00912     2.97255
      C    3    0.02651      0.99942     1.95802    0.01605     2.97349
      C    4   -0.05117      0.99952     2.04176    0.00989     3.05117
      C    5   -0.14487      0.99952     2.13599    0.00936     3.14487
      C    6   -0.03641      0.99943     2.02734    0.00963     3.03641
      C    7   -0.14993      0.99947     2.14165    0.00881     3.14993
      S    8    0.11658      4.99953     2.86084    0.02305     7.88342
      C    9   -0.35603      0.99963     2.35107    0.00533     3.35603
      N   10    0.06135      0.99974     2.40803    0.03088     3.43865
      O   11   -0.09006      0.99990     3.07830    0.01186     4.09006
      H   12    0.10835      0.00000     0.39051    0.00114     0.39165
      H   13    0.10834      0.00000     0.39052    0.00114     0.39166
      H   14    0.08497      0.00000     0.41397    0.00107     0.41503
      H   15    0.10366      0.00000     0.39189    0.00445     0.39634
      H   16    0.09205      0.00000     0.40627    0.00168     0.40795
      H   17    0.09003      0.00000     0.40827    0.00170     0.40997
      H   18    0.10048      0.00000     0.39778    0.00174     0.39952
      H   19    0.10048      0.00000     0.39778    0.00174     0.39952
      H   20    0.10234      0.00000     0.39658    0.00108     0.39766
 =======================================================================
   * Total *    0.00000     14.99529    28.84877    0.15594    44.00000

 Normal termination of Gaussian 16 at Tue Dec  8 20:20:59 2020.
