 Gaussian 16, Revision A.03,

 -----------------------------------------------------------
 # opt freq B3LYP/6-31G(d) empiricaldispersion=gd3bj scf=xqc
 -----------------------------------------------------------

 -------------------------------
 CID_112728235_JID_7275_neutraal
 -------------------------------
 Symbolic Z-matrix:
 Charge =  0 Multiplicity = 1

 SCF Done:  E(RB3LYP) =  -1071.93587804     A.U. after   14 cycles
 SCF Done:  E(RB3LYP) =  -1071.93749419     A.U. after   13 cycles
 SCF Done:  E(RB3LYP) =  -1071.93541487     A.U. after   13 cycles
 SCF Done:  E(RB3LYP) =  -1071.93905152     A.U. after   12 cycles
 SCF Done:  E(RB3LYP) =  -1071.94028500     A.U. after   12 cycles
 SCF Done:  E(RB3LYP) =  -1071.94098478     A.U. after   12 cycles
 SCF Done:  E(RB3LYP) =  -1071.94179847     A.U. after   13 cycles
 SCF Done:  E(RB3LYP) =  -1071.94307849     A.U. after   15 cycles
 SCF Done:  E(RB3LYP) =  -1071.94446202     A.U. after   13 cycles
 SCF Done:  E(RB3LYP) =  -1071.94832060     A.U. after   15 cycles
 SCF Done:  E(RB3LYP) =  -1071.95278004     A.U. after    9 cycles
 SCF Done:  E(RB3LYP) =  -1071.95278056     A.U. after    9 cycles
 SCF Done:  E(RB3LYP) =  -1071.95278060     A.U. after    8 cycles
 SCF Done:  E(RB3LYP) =  -1071.95278098     A.U. after    9 cycles
 SCF Done:  E(RB3LYP) =  -1071.95278108     A.U. after    8 cycles
 Optimization completed.
    -- Stationary point found.
 Normal termination of Gaussian 16 at Sun Dec 13 20:35:49 2020.

 --------------------------------------------------------------------
 #N Geom=AllCheck Guess=TCheck SCRF=Check GenChk RB3LYP/6-31G(d) Freq
 --------------------------------------------------------------------

 Structure from the checkpoint file:  "JID_7275.chk"
 -------------------------------
 CID_112728235_JID_7275_neutraal
 -------------------------------
 Charge =  0 Multiplicity = 1

 SCF Done:  E(RB3LYP) =  -1071.95278108     A.U. after    1 cycles

  Exact polarizability: 163.706 -17.889 190.250  22.602   3.611 129.793
 Approx polarizability: 243.130 -36.723 293.877  56.640   7.571 233.369

                      1                      2                      3
                      A                      A                      A
 Frequencies --     14.7424                36.5710                46.1093
 Red. masses --      4.8070                 3.1209                 5.6256
 Frc consts  --      0.0006                 0.0025                 0.0070
 IR Inten    --      0.0875                 0.0337                 1.0067

                      4                      5                      6
                      A                      A                      A
 Frequencies --     49.8837                91.1462                96.3680
 Red. masses --      4.7569                 2.3331                 2.3761
 Frc consts  --      0.0070                 0.0114                 0.0130
 IR Inten    --      0.0976                 0.6353                 1.1672

                      7                      8                      9
                      A                      A                      A
 Frequencies --    118.5216               122.0260               188.2616
 Red. masses --      1.7515                 3.3582                 3.1054
 Frc consts  --      0.0145                 0.0295                 0.0648
 IR Inten    --      0.0456                 0.5890                 0.5560

                     10                     11                     12
                      A                      A                      A
 Frequencies --    199.4980               238.1012               262.4253
 Red. masses --      3.2428                 1.0956                 1.1048
 Frc consts  --      0.0760                 0.0366                 0.0448
 IR Inten    --      0.5226                 0.0206                 0.2197

                     13                     14                     15
                      A                      A                      A
 Frequencies --    269.6529               295.2704               313.6316
 Red. masses --      3.4787                 3.0858                 3.5091
 Frc consts  --      0.1490                 0.1585                 0.2034
 IR Inten    --      1.8272                 0.0593                 1.7850

                     16                     17                     18
                      A                      A                      A
 Frequencies --    339.7714               387.2341               391.9316
 Red. masses --      2.3095                 3.5613                 4.3642
 Frc consts  --      0.1571                 0.3146                 0.3950
 IR Inten    --      4.1275                 0.3355                 0.9182

                     19                     20                     21
                      A                      A                      A
 Frequencies --    430.2773               485.0707               493.5744
 Red. masses --      3.6200                 3.5086                 4.0900
 Frc consts  --      0.3949                 0.4864                 0.5871
 IR Inten    --      1.7797                 3.7076                 0.7530

                     22                     23                     24
                      A                      A                      A
 Frequencies --    515.1231               529.3946               574.4099
 Red. masses --      4.5014                 3.5053                 4.2972
 Frc consts  --      0.7038                 0.5788                 0.8354
 IR Inten    --      7.3050                 0.6093                 2.4205

                     25                     26                     27
                      A                      A                      A
 Frequencies --    589.2261               667.0310               677.2458
 Red. masses --      7.1705                 7.7538                 4.7196
 Frc consts  --      1.4668                 2.0326                 1.2754
 IR Inten    --      8.9533                 1.5494                 1.6909

                     28                     29                     30
                      A                      A                      A
 Frequencies --    708.2617               731.9501               741.4280
 Red. masses --      3.9408                 2.2912                 1.6558
 Frc consts  --      1.1647                 0.7232                 0.5363
 IR Inten    --      1.2221                 6.5122                 8.4580

                     31                     32                     33
                      A                      A                      A
 Frequencies --    756.9361               774.6955               817.3945
 Red. masses --      3.2208                 4.3668                 1.4719
 Frc consts  --      1.0872                 1.5441                 0.5794
 IR Inten    --      1.7655                 3.1278                44.9196

                     34                     35                     36
                      A                      A                      A
 Frequencies --    835.8202               843.8867               882.9934
 Red. masses --      1.3619                 3.5035                 3.0520
 Frc consts  --      0.5605                 1.4700                 1.4020
 IR Inten    --     10.8888                36.1754                 3.7408

                     37                     38                     39
                      A                      A                      A
 Frequencies --    885.6740               911.1431               936.3411
 Red. masses --      4.2619                 1.5161                 3.0161
 Frc consts  --      1.9697                 0.7416                 1.5580
 IR Inten    --     22.0180                 6.7976                 8.8721

                     40                     41                     42
                      A                      A                      A
 Frequencies --    942.5222               948.7601               961.9134
 Red. masses --      1.1954                 1.2886                 3.8860
 Frc consts  --      0.6257                 0.6834                 2.1185
 IR Inten    --      0.5551                 0.5205                17.1239

                     43                     44                     45
                      A                      A                      A
 Frequencies --    974.7875              1016.3130              1020.8598
 Red. masses --      1.4985                 2.2055                 1.6291
 Frc consts  --      0.8389                 1.3422                 1.0003
 IR Inten    --      0.0402                42.8736                 0.4817

                     46                     47                     48
                      A                      A                      A
 Frequencies --   1034.3215              1076.5455              1097.7745
 Red. masses --      3.0097                 1.4957                 1.5752
 Frc consts  --      1.8971                 1.0213                 1.1184
 IR Inten    --     81.7075                 5.8250                 7.2195

                     49                     50                     51
                      A                      A                      A
 Frequencies --   1135.8526              1158.7688              1167.7931
 Red. masses --      2.2930                 2.1269                 1.7096
 Frc consts  --      1.7430                 1.6826                 1.3736
 IR Inten    --      0.9071                60.7742                 3.5206

                     52                     53                     54
                      A                      A                      A
 Frequencies --   1172.7342              1210.4853              1238.6807
 Red. masses --      1.5522                 1.7846                 1.8679
 Frc consts  --      1.2578                 1.5407                 1.6886
 IR Inten    --     14.7503                18.9921                 0.4561

                     55                     56                     57
                      A                      A                      A
 Frequencies --   1255.9164              1275.5198              1296.6227
 Red. masses --      1.5524                 2.2947                 1.3090
 Frc consts  --      1.4427                 2.1996                 1.2966
 IR Inten    --      2.8309                43.8593                 2.7947

                     58                     59                     60
                      A                      A                      A
 Frequencies --   1306.5645              1346.0161              1362.7020
 Red. masses --      1.6556                 3.6694                 1.3298
 Frc consts  --      1.6652                 3.9170                 1.4549
 IR Inten    --     28.3152                 6.3825                 3.2524

                     61                     62                     63
                      A                      A                      A
 Frequencies --   1377.1109              1386.7327              1416.4247
 Red. masses --      2.0639                 2.1481                 1.4641
 Frc consts  --      2.3061                 2.4339                 1.7306
 IR Inten    --      5.3059                15.7184                 7.3963

                     64                     65                     66
                      A                      A                      A
 Frequencies --   1426.1550              1440.4681              1445.6096
 Red. masses --      1.2286                 1.2603                 1.2461
 Frc consts  --      1.4723                 1.5407                 1.5342
 IR Inten    --      2.4817                 0.7036                 0.7557

                     67                     68                     69
                      A                      A                      A
 Frequencies --   1470.9116              1492.2434              1509.1190
 Red. masses --      2.3849                 6.0203                 1.0858
 Frc consts  --      3.0402                 7.8985                 1.4570
 IR Inten    --     26.9125                51.4295                 3.8116

                     70                     71                     72
                      A                      A                      A
 Frequencies --   1516.5495              1519.2600              1521.2402
 Red. masses --      1.0449                 1.1122                 1.0493
 Frc consts  --      1.4159                 1.5125                 1.4306
 IR Inten    --      0.8394                 6.0271                 2.2032

                     73                     74                     75
                      A                      A                      A
 Frequencies --   1527.7293              1532.6451              1536.2190
 Red. masses --      1.1116                 1.0520                 1.1049
 Frc consts  --      1.5286                 1.4559                 1.5363
 IR Inten    --     11.8233                 3.0542                 0.8019

                     76                     77                     78
                      A                      A                      A
 Frequencies --   1555.8212              1561.4184              1632.3968
 Red. masses --      2.7342                 6.2230                 5.8199
 Frc consts  --      3.8994                 8.9390                 9.1373
 IR Inten    --     40.4912                 8.9762                19.9021

                     79                     80                     81
                      A                      A                      A
 Frequencies --   1675.0210              3033.5090              3041.2527
 Red. masses --      6.5103                 1.0843                 1.0444
 Frc consts  --     10.7619                 5.8786                 5.6917
 IR Inten    --     11.0247                20.0838                27.4042

                     82                     83                     84
                      A                      A                      A
 Frequencies --   3043.5773              3047.8312              3069.2517
 Red. masses --      1.0348                 1.0353                 1.0610
 Frc consts  --      5.6475                 5.6662                 5.8888
 IR Inten    --     24.9975                28.2385                44.0156

                     85                     86                     87
                      A                      A                      A
 Frequencies --   3101.7847              3108.6380              3114.7312
 Red. masses --      1.0908                 1.1024                 1.1018
 Frc consts  --      6.1835                 6.2766                 6.2978
 IR Inten    --     25.0753                 0.9045                89.4974

                     88                     89                     90
                      A                      A                      A
 Frequencies --   3120.5123              3122.6763              3133.4108
 Red. masses --      1.1027                 1.1022                 1.1045
 Frc consts  --      6.3262                 6.3321                 6.3894
 IR Inten    --     22.9623                28.9453                24.4162

                     91                     92                     93
                      A                      A                      A
 Frequencies --   3136.9374              3171.5264              3189.3698
 Red. masses --      1.1030                 1.0866                 1.0942
 Frc consts  --      6.3947                 6.4397                 6.5576
 IR Inten    --     10.2183                13.7158                31.3199

                     94                     95                     96
                      A                      A                      A
 Frequencies --   3211.9840              3250.9336              3278.2789
 Red. masses --      1.0899                 1.0941                 1.0949
 Frc consts  --      6.6249                 6.8130                 6.9327
 IR Inten    --      7.4898                 0.7357                 1.4428

 - Thermochemistry -
 -------------------
 Temperature   298.150 Kelvin.  Pressure   1.00000 Atm.
 Atom     1 has atomic number  6 and mass  12.00000

 Molecular mass:   247.10309 amu.
 Principal axes and moments of inertia in atomic units:
                           1         2         3
     Eigenvalues --  3577.298244634.739166972.00145
           X            0.99987   0.01474   0.00629
           Y           -0.01468   0.99985  -0.00910
           Z           -0.00642   0.00901   0.99994
 This molecule is an asymmetric top.
 Rotational symmetry number  1.
 Warning -- assumption of classical behavior for rotation
           may cause significant error
 Rotational temperatures (Kelvin)      0.02421     0.01869     0.01242
 Rotational constants (GHZ):           0.50450     0.38939     0.25886
 Zero-point vibrational energy     741503.8 (Joules/Mol)
                                  177.22367 (Kcal/Mol)
 Warning -- explicit consideration of  25 degrees of freedom as
           vibrations may cause significant error
 Vibrational temperatures:     21.21    52.62    66.34    71.77   131.14
          (Kelvin)            138.65   170.53   175.57   270.87   287.03
                              342.57   377.57   387.97   424.83   451.25
                              488.86   557.14   563.90   619.07   697.91
                              710.14   741.15   761.68   826.45   847.76
                              959.71   974.41  1019.03  1053.11  1066.75
                             1089.06  1114.61  1176.05  1202.56  1214.16
                             1270.43  1274.29  1310.93  1347.19  1356.08
                             1365.05  1383.98  1402.50  1462.25  1468.79
                             1488.16  1548.91  1579.45  1634.24  1667.21
                             1680.19  1687.30  1741.62  1782.19  1806.98
                             1835.19  1865.55  1879.85  1936.62  1960.62
                             1981.36  1995.20  2037.92  2051.92  2072.51
                             2079.91  2116.31  2147.01  2171.29  2181.98
                             2185.88  2188.73  2198.06  2205.13  2210.28
                             2238.48  2246.53  2348.65  2409.98  4364.54
                             4375.68  4379.03  4385.15  4415.97  4462.78
                             4472.64  4481.40  4489.72  4492.83  4508.28
                             4513.35  4563.12  4588.79  4621.33  4677.37
                             4716.71

 Zero-point correction=                           0.282424 (Hartree/Particle)
 Thermal correction to Energy=                    0.299268
 Thermal correction to Enthalpy=                  0.300212
 Thermal correction to Gibbs Free Energy=         0.235695
 Sum of electronic and zero-point Energies=          -1071.670357
 Sum of electronic and thermal Energies=             -1071.653513
 Sum of electronic and thermal Enthalpies=           -1071.652569
 Sum of electronic and thermal Free Energies=        -1071.717086

                     E (Thermal)             CV                S
                      KCal/Mol        Cal/Mol-Kelvin    Cal/Mol-Kelvin
 Total                  187.793             63.303            135.788
 Electronic               0.000              0.000              0.000
 Translational            0.889              2.981             42.415
 Rotational               0.889              2.981             33.113
 Vibrational            186.016             57.341             60.260
 Vibration     1          0.593              1.986              7.240
 Vibration     2          0.594              1.982              5.437
 Vibration     3          0.595              1.979              4.978
 Vibration     4          0.595              1.978              4.822
 Vibration     5          0.602              1.955              3.635
 Vibration     6          0.603              1.952              3.526
 Vibration     7          0.609              1.934              3.124
 Vibration     8          0.610              1.931              3.068
 Vibration     9          0.633              1.856              2.245
 Vibration    10          0.638              1.841              2.138
 Vibration    11          0.656              1.782              1.817
 Vibration    12          0.670              1.742              1.646
 Vibration    13          0.674              1.729              1.598
 Vibration    14          0.689              1.683              1.444
 Vibration    15          0.701              1.648              1.343
 Vibration    16          0.720              1.596              1.213
 Vibration    17          0.756              1.497              1.011
 Vibration    18          0.759              1.487              0.993
 Vibration    19          0.791              1.404              0.858
 Vibration    20          0.841              1.283              0.697
 Vibration    21          0.849              1.264              0.674
 Vibration    22          0.870              1.216              0.621
 Vibration    23          0.884              1.185              0.589
 Vibration    24          0.931              1.087              0.496
 Vibration    25          0.946              1.055              0.469

 Optimization completed.
    -- Stationary point found.
 Normal termination of Gaussian 16 at Sun Dec 13 20:49:28 2020.

 ----------------------------------------------------------------------
 # B3LYP/6-311++G(d,p) empiricaldispersion=gd3bj scf=xqc pop=npa geom=c
 heck
 ----------------------------------------------------------------------

 ---------------------------------------
 CID_112728235_JID_7275_Energie_neutraal
 ---------------------------------------
 Structure from the checkpoint file:  "JID_7275.chk"
 Charge =  0 Multiplicity = 1

 SCF Done:  E(RB3LYP) =  -1072.15661823     A.U. after   16 cycles
 Normal termination of Gaussian 16 at Sun Dec 13 20:56:53 2020.

 ----------------------------------------------------------------------
 # B3LYP/6-311++G(d,p) empiricaldispersion=gd3bj scf=xqc pop=npa geom=c
 heck
 ----------------------------------------------------------------------

 -------------------------------------
 CID_112728235_JID_7275_Energie_kation
 -------------------------------------
 Structure from the checkpoint file:  "JID_7275.chk"
 Charge =  1 Multiplicity = 2

 SCF Done:  E(UB3LYP) =  -1071.86271046     A.U. after   27 cycles
 Normal termination of Gaussian 16 at Sun Dec 13 21:14:20 2020.
 Gaussian 16:  ES64L-G16RevA.03 25-Dec-2016

 ----------------------------------------------------------------------
 # B3LYP/6-311++G(d,p) empiricaldispersion=gd3bj scf=xqc pop=npa geom=c
 heck
 ----------------------------------------------------------------------

 ------------------------------------
 CID_112728235_JID_7275_Energie_anion
 ------------------------------------
 Structure from the checkpoint file:  "JID_7275.chk"
 Charge = -1 Multiplicity = 2

                         Standard orientation:
 ---------------------------------------------------------------------
 Center     Atomic      Atomic             Coordinates (Angstroms)
 Number     Number       Type             X           Y           Z
 ---------------------------------------------------------------------
      1          6           0       -2.247097    3.150479   -0.267120
      2          6           0       -2.064475    1.656110   -0.202576
      3          6           0       -1.038027    1.085099    0.564967
      4          6           0       -0.866417   -0.293755    0.640398
      5          6           0       -1.698706   -1.161949   -0.073512
      6          6           0       -2.722600   -0.602123   -0.842194
      7          6           0       -2.904562    0.779989   -0.895219
      8          6           0       -1.475623   -2.663140   -0.029408
      9          6           0       -0.104185   -3.036568   -0.618768
     10          6           0       -1.634512   -3.223048    1.393546
     11          8           0       -0.187433    1.903224    1.296103
     12          6           0        0.957896    2.372262    0.563449
     13          6           0        1.840974    1.253002    0.086974
     14          6           0        2.697991    0.529423    0.871610
     15         16           0        3.418247   -0.752775   -0.041132
     16          6           0        2.508236   -0.206904   -1.433710
     17          7           0        1.746729    0.823650   -1.224159
     18          1           0       -2.049416    3.612148    0.704790
     19          1           0       -1.560495    3.611231   -0.989816
     20          1           0       -3.265013    3.405993   -0.577295
     21          1           0       -0.058314   -0.673908    1.256279
     22          1           0       -3.388441   -1.253994   -1.402552
     23          1           0       -3.716167    1.191589   -1.490810
     24          1           0       -2.247194   -3.126146   -0.659055
     25          1           0        0.709466   -2.614720   -0.017783
     26          1           0        0.025709   -4.125047   -0.644593
     27          1           0        0.002494   -2.650152   -1.637972
     28          1           0       -2.620175   -2.980726    1.804530
     29          1           0       -1.516986   -4.313076    1.397699
     30          1           0       -0.879131   -2.803193    2.067932
     31          1           0        0.643623    2.964312   -0.303352
     32          1           0        1.486810    3.020469    1.266064
     33          1           0        2.920638    0.669378    1.920168
     34          1           0        2.599644   -0.714373   -2.386439
 ---------------------------------------------------------------------

 SCF Done:  E(UB3LYP) =  -1072.14646126     A.U. after   33 cycles
 SCF Done:  E(UB3LYP) =  -1072.14646126     a.u. after    1 cycles

 The electronic state is 2-A.
 Alpha  occ. eigenvalues --  -88.75471 -19.02740 -14.18901 -10.11720 -10.11596
 Alpha  occ. eigenvalues --  -10.09600 -10.07948 -10.07779 -10.07730 -10.07375
 Alpha  occ. eigenvalues --  -10.07074 -10.07050 -10.06944 -10.06634 -10.06146
 Alpha  occ. eigenvalues --  -10.05998 -10.05408  -7.84131  -5.80396  -5.80053
 Alpha  occ. eigenvalues --   -5.79778  -0.94281  -0.83791  -0.75700  -0.70614
 Alpha  occ. eigenvalues --   -0.67448  -0.65884  -0.65599  -0.62973  -0.58695
 Alpha  occ. eigenvalues --   -0.58250  -0.56073  -0.51174  -0.49353  -0.47648
 Alpha  occ. eigenvalues --   -0.46235  -0.42890  -0.40714  -0.38714  -0.37747
 Alpha  occ. eigenvalues --   -0.36734  -0.35176  -0.34153  -0.33582  -0.32407
 Alpha  occ. eigenvalues --   -0.32097  -0.31672  -0.31207  -0.29450  -0.28863
 Alpha  occ. eigenvalues --   -0.28703  -0.27977  -0.27636  -0.26443  -0.25366
 Alpha  occ. eigenvalues --   -0.25145  -0.24165  -0.23208  -0.22556  -0.22303
 Alpha  occ. eigenvalues --   -0.17139  -0.16681  -0.15691  -0.14133  -0.13372
 Alpha  occ. eigenvalues --   -0.12878   0.04790
 Alpha virt. eigenvalues --    0.06347   0.06860   0.07705   0.08383   0.08552
 Alpha virt. eigenvalues --    0.08746   0.09068   0.09539   0.09713   0.10559
 Alpha virt. eigenvalues --    0.11198   0.11250   0.11705   0.12059   0.12750

  Beta  occ. eigenvalues --  -88.75427 -19.02725 -14.18896 -10.11721 -10.11587
  Beta  occ. eigenvalues --  -10.09314 -10.07921 -10.07771 -10.07726 -10.07374
  Beta  occ. eigenvalues --  -10.07070 -10.07036 -10.06684 -10.06628 -10.06145
  Beta  occ. eigenvalues --  -10.05979 -10.05396  -7.84091  -5.80379  -5.80036
  Beta  occ. eigenvalues --   -5.79624  -0.94246  -0.83580  -0.75688  -0.70596
  Beta  occ. eigenvalues --   -0.67164  -0.65761  -0.65574  -0.62839  -0.58640
  Beta  occ. eigenvalues --   -0.58216  -0.55881  -0.51148  -0.49289  -0.47279
  Beta  occ. eigenvalues --   -0.46118  -0.42736  -0.40655  -0.38630  -0.37717
  Beta  occ. eigenvalues --   -0.36618  -0.35090  -0.34105  -0.33555  -0.32380
  Beta  occ. eigenvalues --   -0.31998  -0.31625  -0.31177  -0.29405  -0.28684
  Beta  occ. eigenvalues --   -0.28558  -0.27617  -0.27412  -0.26386  -0.25296
  Beta  occ. eigenvalues --   -0.24994  -0.24111  -0.23166  -0.22530  -0.22275
  Beta  occ. eigenvalues --   -0.17062  -0.15949  -0.15625  -0.14100  -0.13156
  Beta  occ. eigenvalues --   -0.11800
  Beta virt. eigenvalues --    0.06733   0.07253   0.07820   0.08564   0.08691
  Beta virt. eigenvalues --    0.08743   0.09267   0.09373   0.09619   0.09869
  Beta virt. eigenvalues --    0.10874   0.11214   0.11424   0.11674   0.12143

 Mulliken charges and spin densities:
               1          2
     1  C    0.896629  -1.414133
     2  C    0.501047   0.323380
     3  C   -1.141966   0.461480
     4  C   -0.241657   0.148054
     5  C    1.322336  -0.767473
     6  C   -0.243103  -0.144531
     7  C   -0.080808  -0.411072
     8  C   -1.309064   1.444014
     9  C    0.094645  -0.661798
    10  C    0.256155  -0.924131
    11  O   -0.047147  -0.026207
    12  C   -0.244721  -0.646193
    13  C   -0.606329   0.145023
    14  C    0.129314   0.250996
    15  S    0.105463  -0.142122
    16  C   -0.091687   0.282497
    17  N    0.102829   0.014097
    18  H    0.054463   0.135293
    19  H    0.118315   0.042008
    20  H   -0.020730   0.147521
    21  H    0.332147  -0.131301
    22  H   -0.141181   0.273095
    23  H   -0.095042   0.235755
    24  H   -0.286759   0.464340
    25  H   -0.064992   0.153617
    26  H   -0.191070   0.339767
    27  H    0.164056  -0.047562
    28  H    0.105119   0.027085
    29  H   -0.400152   0.545756
    30  H   -0.010299   0.153918
    31  H    0.114573   0.029963
    32  H   -0.139307   0.298195
    33  H   -0.074481   0.309259
    34  H    0.133404   0.091409
 Sum of Mulliken charges =  -1.00000   1.00000

 Dipole moment (field-independent basis, Debye):
    X=             -0.0913    Y=              2.2714    Z=             -0.6020  Tot=              2.3516
 Quadrupole moment (field-independent basis, Debye-Ang):
   XX=           -157.7218   YY=           -166.8146   ZZ=           -134.9620
   XY=             -7.9647   XZ=             -0.3074   YZ=              0.7484

 Summary of Natural Population Analysis:

                                       Natural Population
                Natural  -----------------------------------------------
    Atom  No    Charge         Core      Valence    Rydberg      Total
 -----------------------------------------------------------------------
      C    1   -0.29259      0.99964     2.28831    0.00465     3.29259
      C    2   -0.03819      0.99946     2.02939    0.00934     3.03819
      C    3    0.16053      0.99931     1.82644    0.01373     2.83947
      C    4   -0.11199      0.99945     2.10350    0.00904     3.11199
      C    5   -0.00791      0.99950     1.99740    0.01102     3.00791
      C    6   -0.10561      0.99951     2.09646    0.00964     3.10561
      C    7   -0.09703      0.99953     2.08840    0.00911     3.09703
      C    8   -0.11847      0.99958     2.10833    0.01056     3.11847
      C    9   -0.28229      0.99965     2.27569    0.00695     3.28229
      C   10   -0.28014      0.99965     2.27455    0.00593     3.28014
      O   11   -0.29523      0.99987     3.28625    0.00911     4.29523
      C   12   -0.01770      0.99949     2.00514    0.01307     3.01770
      C   13    0.03313      0.99948     1.95232    0.01507     2.96687
      C   14   -0.15855      0.99945     2.14810    0.01099     3.15855
      S   15    0.18381      4.99947     2.79561    0.02110     7.81619
      C   16   -0.00858      0.99965     1.99313    0.01580     3.00858
      N   17   -0.24400      0.99967     2.73332    0.01101     3.74400
      H   18    0.10838      0.00000     0.39033    0.00129     0.39162
      H   19    0.10319      0.00000     0.39559    0.00121     0.39681
      H   20    0.09898      0.00000     0.40016    0.00086     0.40102
      H   21    0.10874      0.00000     0.38927    0.00199     0.39126
      H   22    0.09816      0.00000     0.40076    0.00108     0.40184
      H   23    0.09599      0.00000     0.40311    0.00090     0.40401
      H   24    0.09417      0.00000     0.40368    0.00214     0.40583
      H   25    0.10246      0.00000     0.39614    0.00140     0.39754
      H   26    0.09591      0.00000     0.40313    0.00097     0.40409
      H   27    0.10074      0.00000     0.39821    0.00105     0.39926
      H   28    0.09912      0.00000     0.40009    0.00079     0.40088
      H   29    0.09856      0.00000     0.40036    0.00107     0.40144
      H   30    0.09699      0.00000     0.40201    0.00101     0.40301
      H   31    0.08711      0.00000     0.41071    0.00218     0.41289
      H   32    0.09410      0.00000     0.40451    0.00139     0.40590
      H   33    0.10724      0.00000     0.39160    0.00117     0.39276
      H   34    0.09098      0.00000     0.40782    0.00121     0.40902
 =======================================================================
   * Total *   -0.00000     20.99236    44.79980    0.20785    66.00000

 Normal termination of Gaussian 16 at Sun Dec 13 21:35:01 2020.
