 Gaussian 16, Revision A.03,

 -----------------------------------------------------------
 # opt freq B3LYP/6-31G(d) empiricaldispersion=gd3bj scf=xqc
 -----------------------------------------------------------

 -------------------------------
 CID_130119321_JID_1623_neutraal
 -------------------------------
 Symbolic Z-matrix:
 Charge =  0 Multiplicity = 1

 SCF Done:  E(RB3LYP) =  -553.807436885     A.U. after   15 cycles
 SCF Done:  E(RB3LYP) =  -553.809373311     A.U. after   12 cycles
 SCF Done:  E(RB3LYP) =  -553.809311287     A.U. after   12 cycles
 SCF Done:  E(RB3LYP) =  -553.809703370     A.U. after   11 cycles
 SCF Done:  E(RB3LYP) =  -553.809703842     A.U. after   11 cycles
 SCF Done:  E(RB3LYP) =  -553.809851267     A.U. after   11 cycles
 SCF Done:  E(RB3LYP) =  -553.809898827     A.U. after   11 cycles
 SCF Done:  E(RB3LYP) =  -553.809944546     A.U. after   11 cycles
 SCF Done:  E(RB3LYP) =  -553.809962100     A.U. after   10 cycles
 SCF Done:  E(RB3LYP) =  -553.809976896     A.U. after   10 cycles
 SCF Done:  E(RB3LYP) =  -553.809987178     A.U. after   10 cycles
 SCF Done:  E(RB3LYP) =  -553.809987940     A.U. after    9 cycles
 SCF Done:  E(RB3LYP) =  -553.809988262     A.U. after    8 cycles
 SCF Done:  E(RB3LYP) =  -553.809988304     A.U. after    7 cycles
 Optimization completed.
    -- Stationary point found.
 Normal termination of Gaussian 16 at Tue Dec  8 20:40:42 2020.

 --------------------------------------------------------------------
 #N Geom=AllCheck Guess=TCheck SCRF=Check GenChk RB3LYP/6-31G(d) Freq
 --------------------------------------------------------------------

 Structure from the checkpoint file:  "JID_1623.chk"
 -------------------------------
 CID_130119321_JID_1623_neutraal
 -------------------------------
 Charge =  0 Multiplicity = 1

 SCF Done:  E(RB3LYP) =  -553.809988304     A.U. after    1 cycles

  Exact polarizability: 111.661  -0.055  79.247   0.157   2.724  66.824
 Approx polarizability: 139.229   5.263 122.971   0.933   8.539  95.063

                      1                      2                      3
                      A                      A                      A
 Frequencies --     37.8522                79.1436                93.4641
 Red. masses --      4.8678                 3.2884                 4.8322
 Frc consts  --      0.0041                 0.0121                 0.0249
 IR Inten    --      0.0035                 1.5889                 5.8574

                      4                      5                      6
                      A                      A                      A
 Frequencies --    123.0572               148.9278               208.1866
 Red. masses --      3.8392                 3.3595                 3.3354
 Frc consts  --      0.0343                 0.0439                 0.0852
 IR Inten    --      0.0981                 0.5275                10.7583

                      7                      8                      9
                      A                      A                      A
 Frequencies --    233.6281               241.6939               250.3036
 Red. masses --      1.1599                 2.7749                 1.1968
 Frc consts  --      0.0373                 0.0955                 0.0442
 IR Inten    --      0.5097                22.0013                 1.8813

                     10                     11                     12
                      A                      A                      A
 Frequencies --    321.0632               401.7283               420.1418
 Red. masses --      3.8614                 2.9057                 3.5160
 Frc consts  --      0.2345                 0.2763                 0.3657
 IR Inten    --      9.6101                 2.0596                 4.9403

                     13                     14                     15
                      A                      A                      A
 Frequencies --    430.7547               449.9046               526.5330
 Red. masses --      1.9649                 5.4379                 2.8127
 Frc consts  --      0.2148                 0.6485                 0.4594
 IR Inten    --      0.5288                 5.0564                 2.4870

                     16                     17                     18
                      A                      A                      A
 Frequencies --    565.0556               720.2370               766.1701
 Red. masses --      4.7567                 4.1033                10.7977
 Frc consts  --      0.8948                 1.2541                 3.7345
 IR Inten    --      4.1968                 2.7901                27.5046

                     19                     20                     21
                      A                      A                      A
 Frequencies --    787.5028               812.5462               817.9507
 Red. masses --      1.2657                 4.9182                 3.4268
 Frc consts  --      0.4625                 1.9132                 1.3508
 IR Inten    --      0.3517                 5.2643                 1.0208

                     22                     23                     24
                      A                      A                      A
 Frequencies --    924.3093               948.5715               956.8998
 Red. masses --      3.4511                 1.2308                 1.3726
 Frc consts  --      1.7372                 0.6525                 0.7405
 IR Inten    --      0.9306                 1.6401                 0.4420

                     25                     26                     27
                      A                      A                      A
 Frequencies --    961.1283              1065.9809              1072.2797
 Red. masses --      3.6762                 6.1607                 2.3383
 Frc consts  --      2.0009                 4.1246                 1.5841
 IR Inten    --     37.0696                92.0387                 7.4792

                     28                     29                     30
                      A                      A                      A
 Frequencies --   1109.4341              1131.7133              1162.2477
 Red. masses --      1.1086                 2.2584                 2.5072
 Frc consts  --      0.8039                 1.7042                 1.9955
 IR Inten    --      3.0232                26.7339                 9.8653

                     31                     32                     33
                      A                      A                      A
 Frequencies --   1173.1229              1177.8524              1193.1425
 Red. masses --      2.1438                 1.7341                 2.3925
 Frc consts  --      1.7383                 1.4174                 2.0068
 IR Inten    --      9.3351                42.4227               316.1121

                     34                     35                     36
                      A                      A                      A
 Frequencies --   1220.7140              1273.9799              1303.3266
 Red. masses --      1.9408                 1.6744                 1.6506
 Frc consts  --      1.7039                 1.6012                 1.6520
 IR Inten    --      7.3899                 6.6760                40.5503

                     37                     38                     39
                      A                      A                      A
 Frequencies --   1390.2683              1398.0578              1428.1892
 Red. masses --      1.3045                 1.8652                 1.3523
 Frc consts  --      1.4856                 2.1480                 1.6252
 IR Inten    --      2.7786               236.6903                20.6044

                     40                     41                     42
                      A                      A                      A
 Frequencies --   1440.5615              1446.0657              1492.7496
 Red. masses --      1.4051                 2.1177                 1.0776
 Frc consts  --      1.7179                 2.6091                 1.4147
 IR Inten    --    181.0135               216.4753                 3.8128

                     43                     44                     45
                      A                      A                      A
 Frequencies --   1509.7823              1514.9313              1521.9058
 Red. masses --      1.0468                 1.1051                 1.0548
 Frc consts  --      1.4058                 1.4943                 1.4395
 IR Inten    --      0.0564                18.4252                13.2576

                     46                     47                     48
                      A                      A                      A
 Frequencies --   1530.2048              1550.2762              1798.4445
 Red. masses --      1.0491                 1.0571                11.2313
 Frc consts  --      1.4473                 1.4969                21.4030
 IR Inten    --      0.0382                13.3590               314.6313

                     49                     50                     51
                      A                      A                      A
 Frequencies --   1930.9412              3056.7735              3060.7695
 Red. masses --     12.7907                 1.0552                 1.0380
 Frc consts  --     28.0984                 5.8089                 5.7291
 IR Inten    --    340.3600                17.8700                22.3388

                     52                     53                     54
                      A                      A                      A
 Frequencies --   3064.5660              3065.3109              3083.7690
 Red. masses --      1.0419                 1.0577                 1.0841
 Frc consts  --      5.7653                 5.8555                 6.0743
 IR Inten    --     20.4007                13.9319                30.7348

                     55                     56                     57
                      A                      A                      A
 Frequencies --   3109.8118              3110.6644              3123.5933
 Red. masses --      1.1076                 1.1072                 1.1020
 Frc consts  --      6.3108                 6.3124                 6.3351
 IR Inten    --     13.9277                10.9658                17.8072

                     58                     59                     60
                      A                      A                      A
 Frequencies --   3127.1799              3168.3301              3172.5228
 Red. masses --      1.1020                 1.1008                 1.1001
 Frc consts  --      6.3496                 6.5104                 6.5234
 IR Inten    --     37.6696                 1.4529                17.8285

 - Thermochemistry -
 -------------------
 Temperature   298.150 Kelvin.  Pressure   1.00000 Atm.
 Atom     1 has atomic number  6 and mass  12.00000

 Molecular mass:   157.07389 amu.
 Principal axes and moments of inertia in atomic units:
                           1         2         3
     Eigenvalues --   603.979123351.878233495.52523
           X            0.99996  -0.00745   0.00422
           Y            0.00757   0.99958  -0.02798
           Z           -0.00401   0.02801   0.99960
 This molecule is an asymmetric top.
 Rotational symmetry number  1.
 Warning -- assumption of classical behavior for rotation
           may cause significant error
 Rotational temperatures (Kelvin)      0.14341     0.02584     0.02478
 Rotational constants (GHZ):           2.98809     0.53843     0.51630
 Zero-point vibrational energy     473758.4 (Joules/Mol)
                                  113.23097 (Kcal/Mol)
 Warning -- explicit consideration of  16 degrees of freedom as
           vibrations may cause significant error
 Vibrational temperatures:     54.46   113.87   134.47   177.05   214.27
          (Kelvin)            299.53   336.14   347.74   360.13   461.94
                              578.00   604.49   619.76   647.31   757.56
                              812.99  1036.26  1102.35  1133.04  1169.07
                             1176.85  1329.87  1364.78  1376.77  1382.85
                             1533.71  1542.77  1596.23  1628.28  1672.22
                             1687.86  1694.67  1716.67  1756.34  1832.97
                             1875.20  2000.29  2011.49  2054.85  2072.65
                             2080.57  2147.73  2172.24  2179.65  2189.68
                             2201.62  2230.50  2587.56  2778.19  4398.02
                             4403.76  4409.23  4410.30  4436.86  4474.33
                             4475.55  4494.15  4499.31  4558.52  4564.55

 Zero-point correction=                           0.180445 (Hartree/Particle)
 Thermal correction to Energy=                    0.191845
 Thermal correction to Enthalpy=                  0.192789
 Thermal correction to Gibbs Free Energy=         0.142603
 Sum of electronic and zero-point Energies=           -553.629543
 Sum of electronic and thermal Energies=              -553.618143
 Sum of electronic and thermal Enthalpies=            -553.617199
 Sum of electronic and thermal Free Energies=         -553.667386

                     E (Thermal)             CV                S
                      KCal/Mol        Cal/Mol-Kelvin    Cal/Mol-Kelvin
 Total                  120.384             41.095            105.626
 Electronic               0.000              0.000              0.000
 Translational            0.889              2.981             41.064
 Rotational               0.889              2.981             30.338
 Vibrational            118.607             35.133             34.224
 Vibration     1          0.594              1.982              5.368
 Vibration     2          0.600              1.963              3.912
 Vibration     3          0.602              1.954              3.586
 Vibration     4          0.610              1.930              3.052
 Vibration     5          0.618              1.904              2.686
 Vibration     6          0.641              1.828              2.060
 Vibration     7          0.654              1.789              1.851
 Vibration     8          0.658              1.776              1.790
 Vibration     9          0.663              1.762              1.728
 Vibration    10          0.707              1.633              1.305
 Vibration    11          0.767              1.466              0.956
 Vibration    12          0.783              1.426              0.891
 Vibration    13          0.792              1.403              0.856
 Vibration    14          0.809              1.361              0.796
 Vibration    15          0.881              1.191              0.595
 Vibration    16          0.921              1.107              0.514

 Optimization completed.
    -- Stationary point found.
 Normal termination of Gaussian 16 at Tue Dec  8 20:45:53 2020.

 ----------------------------------------------------------------------
 # B3LYP/6-311++G(d,p) empiricaldispersion=gd3bj scf=xqc pop=npa geom=c
 heck
 ----------------------------------------------------------------------

 ---------------------------------------
 CID_130119321_JID_1623_Energie_neutraal
 ---------------------------------------
 Structure from the checkpoint file:  "JID_1623.chk"
 Charge =  0 Multiplicity = 1

 SCF Done:  E(RB3LYP) =  -553.973548487     A.U. after   14 cycles
 Normal termination of Gaussian 16 at Tue Dec  8 20:48:51 2020.

 ----------------------------------------------------------------------
 # B3LYP/6-311++G(d,p) empiricaldispersion=gd3bj scf=xqc pop=npa geom=c
 heck
 ----------------------------------------------------------------------

 -------------------------------------
 CID_130119321_JID_1623_Energie_kation
 -------------------------------------
 Structure from the checkpoint file:  "JID_1623.chk"
 Charge =  1 Multiplicity = 2

 SCF Done:  E(UB3LYP) =  -553.629462799     A.U. after   24 cycles
 Normal termination of Gaussian 16 at Tue Dec  8 20:55:03 2020.
 Gaussian 16:  ES64L-G16RevA.03 25-Dec-2016

 ----------------------------------------------------------------------
 # B3LYP/6-311++G(d,p) empiricaldispersion=gd3bj scf=xqc pop=npa geom=c
 heck
 ----------------------------------------------------------------------

 ------------------------------------
 CID_130119321_JID_1623_Energie_anion
 ------------------------------------
 Structure from the checkpoint file:  "JID_1623.chk"
 Charge = -1 Multiplicity = 2

                         Standard orientation:
 ---------------------------------------------------------------------
 Center     Atomic      Atomic             Coordinates (Angstroms)
 Number     Number       Type             X           Y           Z
 ---------------------------------------------------------------------
      1          6           0        3.187256    0.286220   -1.006703
      2          6           0        2.463610   -0.680010   -0.075017
      3          6           0        2.776050   -0.471347    1.403125
      4          8           0        1.024568   -0.682133   -0.321387
      5          6           0        0.317530    0.448443   -0.098472
      6          8           0        0.747602    1.510197    0.318714
      7          7           0       -0.995418    0.247836   -0.434402
      8          6           0       -2.092252    1.075282    0.094818
      9          6           0       -2.956368   -0.201024    0.067859
     10          8           0       -4.102528   -0.452304    0.311289
     11          6           0       -1.741565   -1.025587   -0.407754
     12          1           0        2.955927    1.321751   -0.751591
     13          1           0        2.897619    0.102094   -2.046366
     14          1           0        4.268662    0.132153   -0.920728
     15          1           0        2.725774   -1.705586   -0.352520
     16          1           0        2.536224    0.547165    1.712942
     17          1           0        2.204131   -1.175076    2.017091
     18          1           0        3.841933   -0.654365    1.578917
     19          1           0       -1.900763    1.484588    1.094859
     20          1           0       -2.420534    1.883255   -0.568237
     21          1           0       -1.853553   -1.513698   -1.382085
     22          1           0       -1.370205   -1.755069    0.322466
 ---------------------------------------------------------------------

 SCF Done:  E(UB3LYP) =  -553.965810464     A.U. after   31 cycles

 The electronic state is 2-A.
 Alpha  occ. eigenvalues --  -19.04828 -18.98447 -18.98399 -14.22783 -10.20478
 Alpha  occ. eigenvalues --  -10.12650 -10.11624 -10.09534 -10.09526 -10.05407
 Alpha  occ. eigenvalues --  -10.05142  -0.99378  -0.92318  -0.90543  -0.84493
 Alpha  occ. eigenvalues --   -0.69034  -0.63072  -0.59124  -0.58744  -0.52435
 Alpha  occ. eigenvalues --   -0.43837  -0.41748  -0.39616  -0.38523  -0.38039
 Alpha  occ. eigenvalues --   -0.35205  -0.34501  -0.33149  -0.30854  -0.30436
 Alpha  occ. eigenvalues --   -0.30156  -0.29520  -0.27858  -0.27726  -0.25700
 Alpha  occ. eigenvalues --   -0.25511  -0.24563  -0.23357  -0.19182  -0.16926
 Alpha  occ. eigenvalues --   -0.14395  -0.12920   0.04916
 Alpha virt. eigenvalues --    0.06502   0.08507   0.09009   0.09264   0.10556
 Alpha virt. eigenvalues --    0.11088   0.11342   0.12294   0.12959   0.13719
 Alpha virt. eigenvalues --    0.14048   0.14289   0.15089   0.15711   0.16551

  Beta  occ. eigenvalues --  -19.04814 -18.98376 -18.98132 -14.22783 -10.20470
  Beta  occ. eigenvalues --  -10.12632 -10.11210 -10.09568 -10.09564 -10.05379
  Beta  occ. eigenvalues --  -10.05112  -0.99347  -0.91689  -0.90499  -0.84390
  Beta  occ. eigenvalues --   -0.68953  -0.62801  -0.59074  -0.58686  -0.52336
  Beta  occ. eigenvalues --   -0.43735  -0.41346  -0.39342  -0.38172  -0.37964
  Beta  occ. eigenvalues --   -0.35065  -0.34238  -0.33051  -0.30767  -0.30286
  Beta  occ. eigenvalues --   -0.30018  -0.29137  -0.27715  -0.27554  -0.25651
  Beta  occ. eigenvalues --   -0.25186  -0.23319  -0.23223  -0.19106  -0.16885
  Beta  occ. eigenvalues --   -0.14275  -0.12695
  Beta virt. eigenvalues --    0.07573   0.08886   0.09264   0.09699   0.10122
  Beta virt. eigenvalues --    0.11000   0.11489   0.12154   0.12445   0.13038
  Beta virt. eigenvalues --    0.14042   0.14162   0.14528   0.15027   0.15680

 Mulliken charges and spin densities:
               1          2
     1  C    0.888430  -1.323364
     2  C   -1.064177   1.131058
     3  C    1.036243  -1.503093
     4  O   -0.025850  -0.003714
     5  C    0.241395  -0.301858
     6  O   -0.317497   0.006217
     7  N   -0.049550   0.034476
     8  C    0.034324  -0.287440
     9  C   -0.168479   0.431862
    10  O   -0.388464   0.111976
    11  C    0.178648  -0.460792
    12  H    0.051696   0.117637
    13  H    0.102112   0.022686
    14  H   -0.502297   0.667664
    15  H   -0.815835   1.003054
    16  H    0.048553   0.128176
    17  H   -0.071208   0.207215
    18  H   -0.406869   0.556415
    19  H    0.015960   0.155315
    20  H    0.171837  -0.004842
    21  H    0.203328  -0.031762
    22  H   -0.162301   0.343112
 Sum of Mulliken charges =  -1.00000   1.00000

 Dipole moment (field-independent basis, Debye):
    X=             -2.7350    Y=              2.4842    Z=             -1.9171  Tot=              4.1625
 Quadrupole moment (field-independent basis, Debye-Ang):
   XX=           -151.4508   YY=            -92.1941   ZZ=            -83.3660
   XY=              4.4534   XZ=              2.5554   YZ=              1.4193

 Summary of Natural Population Analysis:

                                       Natural Population
                Natural  -----------------------------------------------
    Atom  No    Charge         Core      Valence    Rydberg      Total
 -----------------------------------------------------------------------
      C    1   -0.30133      0.99964     2.29573    0.00597     3.30133
      C    2    0.06468      0.99956     1.92143    0.01434     2.93532
      C    3   -0.30058      0.99964     2.29499    0.00595     3.30058
      O    4   -0.28950      0.99986     3.28084    0.00879     4.28950
      C    5    0.46801      0.99965     1.50604    0.02630     2.53199
      O    6   -0.33426      0.99987     3.32990    0.00449     4.33426
      N    7   -0.26735      0.99965     2.75807    0.00963     3.76735
      C    8   -0.12737      0.99963     2.11882    0.00893     3.12737
      C    9    0.33856      0.99969     1.63838    0.02337     2.66144
      O   10   -0.25761      0.99986     3.25143    0.00632     4.25761
      C   11   -0.12765      0.99962     2.11906    0.00897     3.12765
      H   12    0.10974      0.00000     0.38931    0.00095     0.39026
      H   13    0.09984      0.00000     0.39925    0.00091     0.40016
      H   14    0.10436      0.00000     0.39406    0.00158     0.39564
      H   15    0.09232      0.00000     0.40500    0.00268     0.40768
      H   16    0.10918      0.00000     0.38980    0.00102     0.39082
      H   17    0.10266      0.00000     0.39604    0.00130     0.39734
      H   18    0.10338      0.00000     0.39505    0.00157     0.39662
      H   19    0.10619      0.00000     0.39234    0.00146     0.39381
      H   20    0.09945      0.00000     0.39967    0.00088     0.40055
      H   21    0.09990      0.00000     0.39912    0.00099     0.40010
      H   22    0.10737      0.00000     0.39059    0.00203     0.39263
 =======================================================================
   * Total *    0.00000     10.99666    30.86492    0.13842    42.00000

 Normal termination of Gaussian 16 at Tue Dec  8 21:01:05 2020.
