 Gaussian 16, Revision A.03,

 -----------------------------------------------------------
 # opt freq B3LYP/6-31G(d) empiricaldispersion=gd3bj scf=xqc
 -----------------------------------------------------------

 -------------------------------
 CID_144492580_JID_2686_neutraal
 -------------------------------
 Symbolic Z-matrix:
 Charge =  0 Multiplicity = 1

 SCF Done:  E(RB3LYP) =  -468.087616551     A.U. after   15 cycles
 SCF Done:  E(RB3LYP) =  -468.108679868     A.U. after   13 cycles
 SCF Done:  E(RB3LYP) =  -468.109646550     A.U. after   12 cycles
 SCF Done:  E(RB3LYP) =  -468.101158942     A.U. after   15 cycles
 SCF Done:  E(RB3LYP) =  -468.110238557     A.U. after   12 cycles
 SCF Done:  E(RB3LYP) =  -468.110131661     A.U. after   12 cycles
 SCF Done:  E(RB3LYP) =  -468.110273115     A.U. after   12 cycles
 SCF Done:  E(RB3LYP) =  -468.110291544     A.U. after    9 cycles
 SCF Done:  E(RB3LYP) =  -468.110292274     A.U. after    8 cycles
 SCF Done:  E(RB3LYP) =  -468.110292533     A.U. after    8 cycles
 SCF Done:  E(RB3LYP) =  -468.110316473     A.U. after   12 cycles
 SCF Done:  E(RB3LYP) =  -468.110323520     A.U. after   10 cycles
 SCF Done:  E(RB3LYP) =  -468.110320637     A.U. after   10 cycles
 SCF Done:  E(RB3LYP) =  -468.110323842     A.U. after    8 cycles
 SCF Done:  E(RB3LYP) =  -468.110323957     A.U. after    9 cycles
 Optimization completed.
    -- Stationary point found.
 Normal termination of Gaussian 16 at Wed Dec  9 18:05:55 2020.

 --------------------------------------------------------------------
 #N Geom=AllCheck Guess=TCheck SCRF=Check GenChk RB3LYP/6-31G(d) Freq
 --------------------------------------------------------------------

 Structure from the checkpoint file:  "JID_2686.chk"
 -------------------------------
 CID_144492580_JID_2686_neutraal
 -------------------------------
 Charge =  0 Multiplicity = 1

 SCF Done:  E(RB3LYP) =  -468.110323957     A.U. after    1 cycles

  Exact polarizability: 189.345 -12.702 116.222   3.794  -0.633  87.462
 Approx polarizability: 239.789 -30.869 169.265   9.435  -2.584 131.951

                      1                      2                      3
                      A                      A                      A
 Frequencies --      8.4060                47.9068                53.4159
 Red. masses --      2.8102                 3.6606                 3.0328
 Frc consts  --      0.0001                 0.0049                 0.0051
 IR Inten    --      0.0077                 0.4669                 0.5213

                      4                      5                      6
                      A                      A                      A
 Frequencies --     93.5420               124.0083               156.4587
 Red. masses --      2.1078                 2.8290                 2.8928
 Frc consts  --      0.0109                 0.0256                 0.0417
 IR Inten    --      0.0692                 0.4248                 0.5728

                      7                      8                      9
                      A                      A                      A
 Frequencies --    199.7387               220.3469               260.2106
 Red. masses --      2.2031                 1.0477                 1.6598
 Frc consts  --      0.0518                 0.0300                 0.0662
 IR Inten    --      0.8298                 0.0443                 0.0516

                     10                     11                     12
                      A                      A                      A
 Frequencies --    274.6798               300.1998               304.7999
 Red. masses --      2.4705                 2.0426                 2.2005
 Frc consts  --      0.1098                 0.1085                 0.1204
 IR Inten    --      0.5159                 0.1593                 0.1000

                     13                     14                     15
                      A                      A                      A
 Frequencies --    372.9541               429.3177               450.8354
 Red. masses --      2.4460                 2.5831                 3.0833
 Frc consts  --      0.2005                 0.2805                 0.3692
 IR Inten    --      0.0295                 0.6433                 1.9606

                     16                     17                     18
                      A                      A                      A
 Frequencies --    482.7550               513.3200               551.5390
 Red. masses --      3.1931                 4.5037                 3.6947
 Frc consts  --      0.4384                 0.6992                 0.6622
 IR Inten    --      3.8440                 0.1844                 1.6795

                     19                     20                     21
                      A                      A                      A
 Frequencies --    561.9404               601.9659               747.0568
 Red. masses --      5.5924                 2.6867                 2.3098
 Frc consts  --      1.0405                 0.5736                 0.7595
 IR Inten    --      1.5865                 1.3298                 2.0884

                     22                     23                     24
                      A                      A                      A
 Frequencies --    783.7745               821.3704               826.7733
 Red. masses --      1.5392                 1.5402                 1.4871
 Frc consts  --      0.5571                 0.6122                 0.5989
 IR Inten    --      2.7494                 1.3041                 3.9686

                     25                     26                     27
                      A                      A                      A
 Frequencies --    859.8319               870.5417               915.0274
 Red. masses --      2.6188                 1.4897                 2.2875
 Frc consts  --      1.1407                 0.6651                 1.1284
 IR Inten    --      2.2177                 6.4362                 1.7781

                     28                     29                     30
                      A                      A                      A
 Frequencies --    935.9622               947.0189               974.2033
 Red. masses --      2.3887                 1.3586                 1.6859
 Frc consts  --      1.2329                 0.7179                 0.9427
 IR Inten    --      4.0242                 2.9271                 2.5560

                     31                     32                     33
                      A                      A                      A
 Frequencies --    990.3173              1010.4904              1049.3745
 Red. masses --      1.4073                 2.1466                 2.6855
 Frc consts  --      0.8132                 1.2914                 1.7423
 IR Inten    --      2.0857                 8.0959                 0.1687

                     34                     35                     36
                      A                      A                      A
 Frequencies --   1069.5186              1097.8993              1110.4078
 Red. masses --      1.8577                 1.6030                 1.8421
 Frc consts  --      1.2520                 1.1385                 1.3382
 IR Inten    --      3.4087                 3.2985                 0.4371

                     37                     38                     39
                      A                      A                      A
 Frequencies --   1116.8744              1144.3938              1171.2509
 Red. masses --      1.7280                 2.1450                 1.1634
 Frc consts  --      1.2700                 1.6552                 0.9403
 IR Inten    --      1.3781                 0.4374                 3.4557

                     40                     41                     42
                      A                      A                      A
 Frequencies --   1190.1289              1209.8189              1254.0964
 Red. masses --      1.9666                 1.4136                 2.3957
 Frc consts  --      1.6412                 1.2190                 2.2200
 IR Inten    --      0.9569                 0.2536                 3.4045

                     43                     44                     45
                      A                      A                      A
 Frequencies --   1281.3088              1299.1894              1312.5781
 Red. masses --      1.2802                 1.2980                 1.2211
 Frc consts  --      1.2383                 1.2908                 1.2395
 IR Inten    --      4.7526                 5.1713                 3.0070

                     46                     47                     48
                      A                      A                      A
 Frequencies --   1333.3471              1344.7731              1361.8712
 Red. masses --      1.3203                 1.2716                 1.2965
 Frc consts  --      1.3829                 1.3548                 1.4167
 IR Inten    --     30.5076                 0.3456                10.0200

                     49                     50                     51
                      A                      A                      A
 Frequencies --   1387.3986              1393.8929              1397.3575
 Red. masses --      1.4238                 1.6360                 1.5241
 Frc consts  --      1.6148                 1.8728                 1.7534
 IR Inten    --      4.3868                 0.9373                14.9571

                     52                     53                     54
                      A                      A                      A
 Frequencies --   1400.1620              1407.4795              1433.8427
 Red. masses --      1.5825                 1.7041                 1.2533
 Frc consts  --      1.8279                 1.9890                 1.5181
 IR Inten    --     11.5322                 0.0469                 3.8951

                     55                     56                     57
                      A                      A                      A
 Frequencies --   1441.7595              1502.6218              1510.4058
 Red. masses --      1.2305                 1.0939                 1.0821
 Frc consts  --      1.5070                 1.4552                 1.4545
 IR Inten    --      0.3805                 0.3595                 3.7454

                     58                     59                     60
                      A                      A                      A
 Frequencies --   1514.9969              1519.6836              1523.3258
 Red. masses --      1.0649                 1.0882                 1.0448
 Frc consts  --      1.4401                 1.4806                 1.4284
 IR Inten    --      0.2306                 3.4669                 6.8634

                     61                     62                     63
                      A                      A                      A
 Frequencies --   1529.0749              1530.7784              1535.1480
 Red. masses --      1.0476                 1.1021                 1.0653
 Frc consts  --      1.4431                 1.5216                 1.4791
 IR Inten    --      3.2115                 0.7024                 6.0983

                     64                     65                     66
                      A                      A                      A
 Frequencies --   1541.2808              1708.4578              2337.8805
 Red. masses --      1.0479                 6.5890                11.9375
 Frc consts  --      1.4666                11.3312                38.4423
 IR Inten    --      1.6555                 0.6959                 1.1128

                     67                     68                     69
                      A                      A                      A
 Frequencies --   2996.6551              2999.4429              3024.7366
 Red. masses --      1.0816                 1.0709                 1.0698
 Frc consts  --      5.7228                 5.6767                 5.7666
 IR Inten    --     24.3573                37.3658                18.0845

                     70                     71                     72
                      A                      A                      A
 Frequencies --   3033.0430              3037.5561              3046.3306
 Red. masses --      1.0688                 1.0644                 1.0430
 Frc consts  --      5.7932                 5.7862                 5.7027
 IR Inten    --     19.4184                17.5652                15.6693

                     73                     74                     75
                      A                      A                      A
 Frequencies --   3049.1916              3050.7033              3057.6700
 Red. masses --      1.0550                 1.0834                 1.0357
 Frc consts  --      5.7790                 5.9408                 5.7052
 IR Inten    --     38.4890                60.4761                23.7938

                     76                     77                     78
                      A                      A                      A
 Frequencies --   3073.7678              3082.6453              3083.9784
 Red. masses --      1.0923                 1.0972                 1.1021
 Frc consts  --      6.0804                 6.1431                 6.1760
 IR Inten    --     27.4143                67.5157                 8.7396

                     79                     80                     81
                      A                      A                      A
 Frequencies --   3087.0202              3112.0511              3121.5470
 Red. masses --      1.1053                 1.1013                 1.1025
 Frc consts  --      6.2059                 6.2842                 6.3295
 IR Inten    --     58.5746                41.8378                49.5468

                     82                     83                     84
                      A                      A                      A
 Frequencies --   3128.5156              3135.9175              3176.6666
 Red. masses --      1.1021                 1.1026                 1.0900
 Frc consts  --      6.3552                 6.3887                 6.4806
 IR Inten    --     32.8666                34.3065                17.9469

 - Thermochemistry -
 -------------------
 Temperature   298.150 Kelvin.  Pressure   1.00000 Atm.
 Atom     1 has atomic number  6 and mass  12.00000

 Molecular mass:   162.14085 amu.
 Principal axes and moments of inertia in atomic units:
                           1         2         3
     Eigenvalues --   708.222715644.436496168.93226
           X            1.00000   0.00117  -0.00091
           Y           -0.00117   1.00000  -0.00006
           Z            0.00091   0.00006   1.00000
 This molecule is an asymmetric top.
 Rotational symmetry number  1.
 Warning -- assumption of classical behavior for rotation
           may cause significant error
 Rotational temperatures (Kelvin)      0.12230     0.01535     0.01404
 Rotational constants (GHZ):           2.54827     0.31974     0.29255
 Zero-point vibrational energy     711482.1 (Joules/Mol)
                                  170.04831 (Kcal/Mol)
 Warning -- explicit consideration of  20 degrees of freedom as
           vibrations may cause significant error
 Vibrational temperatures:     12.09    68.93    76.85   134.59   178.42
          (Kelvin)            225.11   287.38   317.03   374.39   395.20
                              431.92   438.54   536.60   617.69   648.65
                              694.58   738.55   793.54   808.51   866.09
                             1074.85  1127.68  1181.77  1189.54  1237.11
                             1252.52  1316.52  1346.64  1362.55  1401.66
                             1424.85  1453.87  1509.82  1538.80  1579.63
                             1597.63  1606.93  1646.53  1685.17  1712.33
                             1740.66  1804.36  1843.52  1869.24  1888.51
                             1918.39  1934.83  1959.43  1996.16  2005.50
                             2010.49  2014.52  2025.05  2062.98  2074.37
                             2161.94  2173.14  2179.74  2186.49  2191.73
                             2200.00  2202.45  2208.74  2217.56  2458.09
                             3363.69  4311.52  4315.53  4351.92  4363.87
                             4370.37  4382.99  4387.11  4389.28  4399.31
                             4422.47  4435.24  4437.16  4441.53  4477.55
                             4491.21  4501.24  4511.89  4570.51

 Zero-point correction=                           0.270989 (Hartree/Particle)
 Thermal correction to Energy=                    0.284270
 Thermal correction to Enthalpy=                  0.285215
 Thermal correction to Gibbs Free Energy=         0.228994
 Sum of electronic and zero-point Energies=           -467.839335
 Sum of electronic and thermal Energies=              -467.826054
 Sum of electronic and thermal Enthalpies=            -467.825109
 Sum of electronic and thermal Free Energies=         -467.881330

                     E (Thermal)             CV                S
                      KCal/Mol        Cal/Mol-Kelvin    Cal/Mol-Kelvin
 Total                  178.382             49.204            118.326
 Electronic               0.000              0.000              0.000
 Translational            0.889              2.981             41.159
 Rotational               0.889              2.981             31.578
 Vibrational            176.605             43.242             45.589
 Vibration     1          0.593              1.987              8.356
 Vibration     2          0.595              1.978              4.902
 Vibration     3          0.596              1.976              4.687
 Vibration     4          0.603              1.954              3.585
 Vibration     5          0.610              1.929              3.037
 Vibration     6          0.620              1.895              2.592
 Vibration     7          0.638              1.840              2.136
 Vibration     8          0.647              1.810              1.956
 Vibration     9          0.668              1.745              1.660
 Vibration    10          0.677              1.720              1.567
 Vibration    11          0.693              1.673              1.416
 Vibration    12          0.696              1.665              1.390
 Vibration    13          0.744              1.528              1.068
 Vibration    14          0.791              1.406              0.861
 Vibration    15          0.810              1.359              0.793
 Vibration    16          0.839              1.288              0.703
 Vibration    17          0.868              1.220              0.626
 Vibration    18          0.907              1.136              0.541
 Vibration    19          0.918              1.114              0.520
 Vibration    20          0.960              1.028              0.446

 Optimization completed.
    -- Stationary point found.
 Normal termination of Gaussian 16 at Wed Dec  9 18:11:54 2020.

 ----------------------------------------------------------------------
 # B3LYP/6-311++G(d,p) empiricaldispersion=gd3bj scf=xqc pop=npa geom=c
 heck
 ----------------------------------------------------------------------

 ---------------------------------------
 CID_144492580_JID_2686_Energie_neutraal
 ---------------------------------------
 Structure from the checkpoint file:  "JID_2686.chk"
 Charge =  0 Multiplicity = 1

 SCF Done:  E(RB3LYP) =  -468.236692621     A.U. after   14 cycles
 Normal termination of Gaussian 16 at Wed Dec  9 18:15:06 2020.

 ----------------------------------------------------------------------
 # B3LYP/6-311++G(d,p) empiricaldispersion=gd3bj scf=xqc pop=npa geom=c
 heck
 ----------------------------------------------------------------------

 -------------------------------------
 CID_144492580_JID_2686_Energie_kation
 -------------------------------------
 Structure from the checkpoint file:  "JID_2686.chk"
 Charge =  1 Multiplicity = 2

 SCF Done:  E(UB3LYP) =  -467.949123962     A.U. after   20 cycles
 Normal termination of Gaussian 16 at Wed Dec  9 18:20:48 2020.
 Gaussian 16:  ES64L-G16RevA.03 25-Dec-2016

 ----------------------------------------------------------------------
 # B3LYP/6-311++G(d,p) empiricaldispersion=gd3bj scf=xqc pop=npa geom=c
 heck
 ----------------------------------------------------------------------

 ------------------------------------
 CID_144492580_JID_2686_Energie_anion
 ------------------------------------
 Structure from the checkpoint file:  "JID_2686.chk"
 Charge = -1 Multiplicity = 2

                         Standard orientation:
 ---------------------------------------------------------------------
 Center     Atomic      Atomic             Coordinates (Angstroms)
 Number     Number       Type             X           Y           Z
 ---------------------------------------------------------------------
      1          6           0       -4.954826   -0.892976    0.206317
      2          6           0       -3.435249   -0.853713    0.382814
      3          6           0       -2.737731    0.254258   -0.443897
      4          6           0       -3.181650    1.671155   -0.030222
      5          6           0       -1.282050    0.122755   -0.339570
      6          6           0       -0.081423   -0.008466   -0.221639
      7          6           0        1.337573   -0.079762   -0.087591
      8          6           0        1.984602   -1.261825   -0.082239
      9          6           0        3.479121   -1.400896    0.019806
     10          6           0        4.207190   -0.072770   -0.225267
     11          6           0        3.515049    1.064550    0.531939
     12          6           0        2.073993    1.244916    0.041603
     13          1           0       -5.435925    0.014183    0.586627
     14          1           0       -5.385033   -1.743817    0.745761
     15          1           0       -5.226973   -0.997411   -0.851373
     16          1           0       -3.180113   -0.710759    1.440774
     17          1           0       -3.006274   -1.818977    0.089373
     18          1           0       -3.022149    0.106013   -1.497815
     19          1           0       -2.965461    1.843667    1.029994
     20          1           0       -2.647506    2.428249   -0.612073
     21          1           0       -4.255068    1.809501   -0.192249
     22          1           0        1.401010   -2.176843   -0.157043
     23          1           0        3.825430   -2.163122   -0.691666
     24          1           0        3.740044   -1.792375    1.016552
     25          1           0        4.196651    0.153026   -1.300322
     26          1           0        5.258727   -0.157455    0.072850
     27          1           0        3.506722    0.829359    1.605196
     28          1           0        4.069063    2.003594    0.416578
     29          1           0        1.514423    1.898700    0.721395
     30          1           0        2.064839    1.751116   -0.934878
 ---------------------------------------------------------------------

 SCF Done:  E(UB3LYP) =  -468.219314040     A.U. after   33 cycles
 SCF Done:  E(UB3LYP) =  -468.219314040     a.u. after    1 cycles

 The electronic state is 2-A.
 Alpha  occ. eigenvalues --  -10.10064 -10.08759 -10.07569 -10.07488 -10.07364
 Alpha  occ. eigenvalues --  -10.06974 -10.06911 -10.06862 -10.06685 -10.06156
 Alpha  occ. eigenvalues --  -10.06097 -10.05859  -0.74554  -0.72488  -0.67393
 Alpha  occ. eigenvalues --   -0.64791  -0.64094  -0.61212  -0.55778  -0.52926
 Alpha  occ. eigenvalues --   -0.51236  -0.48900  -0.43977  -0.40741  -0.38928
 Alpha  occ. eigenvalues --   -0.36984  -0.35791  -0.33416  -0.33279  -0.32666
 Alpha  occ. eigenvalues --   -0.30826  -0.30593  -0.29300  -0.29136  -0.28801
 Alpha  occ. eigenvalues --   -0.27671  -0.26045  -0.24503  -0.23977  -0.23540
 Alpha  occ. eigenvalues --   -0.22750  -0.22022  -0.20218  -0.15933  -0.12375
 Alpha  occ. eigenvalues --    0.04547
 Alpha virt. eigenvalues --    0.05475   0.07493   0.07648   0.08021   0.08215
 Alpha virt. eigenvalues --    0.08312   0.08694   0.09784   0.10543   0.10761
 Alpha virt. eigenvalues --    0.11142   0.11520   0.11826   0.12295   0.13043

  Beta  occ. eigenvalues --  -10.10062 -10.08733 -10.07567 -10.07477 -10.07353
  Beta  occ. eigenvalues --  -10.06906 -10.06891 -10.06836 -10.06654 -10.06109
  Beta  occ. eigenvalues --  -10.06075 -10.05844  -0.74484  -0.72450  -0.67330
  Beta  occ. eigenvalues --   -0.64717  -0.64039  -0.61165  -0.55709  -0.52880
  Beta  occ. eigenvalues --   -0.51124  -0.48830  -0.43895  -0.40684  -0.38880
  Beta  occ. eigenvalues --   -0.36959  -0.35737  -0.33375  -0.33236  -0.32610
  Beta  occ. eigenvalues --   -0.30776  -0.30544  -0.29260  -0.29071  -0.28740
  Beta  occ. eigenvalues --   -0.27622  -0.25987  -0.24453  -0.23949  -0.23491
  Beta  occ. eigenvalues --   -0.22704  -0.21975  -0.20072  -0.15905  -0.12108
  Beta virt. eigenvalues --    0.06498   0.06820   0.07917   0.08063   0.08371
  Beta virt. eigenvalues --    0.08730   0.08875   0.09115   0.10327   0.10710
  Beta virt. eigenvalues --    0.10906   0.11217   0.11760   0.12039   0.12692

 Mulliken charges and spin densities:
               1          2
     1  C    1.446827  -2.008824
     2  C   -1.229937   0.913973
     3  C   -1.331077   1.550225
     4  C    0.531609  -1.301319
     5  C    1.444311  -1.160179
     6  C    0.466782  -0.183842
     7  C    0.556638  -0.000352
     8  C   -1.167059   0.601645
     9  C    0.551415  -1.101765
    10  C   -0.145098  -0.079880
    11  C   -0.087238  -0.244821
    12  C   -0.138963  -0.519747
    13  H   -0.276849   0.418798
    14  H   -0.387027   0.527323
    15  H   -0.446819   0.588178
    16  H    0.014467   0.117617
    17  H    0.182338  -0.049036
    18  H   -0.003283   0.166220
    19  H    0.081934   0.064933
    20  H    0.135720   0.009290
    21  H   -0.467000   0.620035
    22  H    0.160645  -0.018820
    23  H   -0.064199   0.205508
    24  H   -0.030353   0.184606
    25  H    0.189793  -0.060782
    26  H   -1.002927   1.182641
    27  H    0.084052   0.053768
    28  H   -0.305043   0.465710
    29  H    0.155762  -0.013937
    30  H    0.080579   0.072834
 Sum of Mulliken charges =  -1.00000   1.00000

 Dipole moment (field-independent basis, Debye):
    X=              1.4600    Y=              0.1393    Z=             -0.2685  Tot=              1.4910
 Quadrupole moment (field-independent basis, Debye-Ang):
   XX=           -227.1961   YY=           -103.9146   ZZ=            -99.6844
   XY=             -1.7840   XZ=             -6.0523   YZ=              1.1176

 Summary of Natural Population Analysis:

                                       Natural Population
                Natural  -----------------------------------------------
    Atom  No    Charge         Core      Valence    Rydberg      Total
 -----------------------------------------------------------------------
      C    1   -0.28777      0.99967     2.28289    0.00521     3.28777
      C    2   -0.17999      0.99963     2.17144    0.00892     3.17999
      C    3   -0.14529      0.99956     2.13695    0.00879     3.14529
      C    4   -0.27787      0.99965     2.27230    0.00592     3.27787
      C    5    0.00972      0.99929     1.98301    0.00798     2.99028
      C    6   -0.01701      0.99925     2.00975    0.00802     3.01701
      C    7   -0.05348      0.99944     2.04586    0.00818     3.05348
      C    8   -0.05837      0.99950     2.04989    0.00898     3.05837
      C    9   -0.20674      0.99962     2.19766    0.00946     3.20674
      C   10   -0.18862      0.99963     2.17986    0.00912     3.18862
      C   11   -0.18974      0.99964     2.18071    0.00939     3.18974
      C   12   -0.19191      0.99960     2.18346    0.00884     3.19191
      H   13    0.09892      0.00000     0.39924    0.00184     0.40108
      H   14    0.10023      0.00000     0.39871    0.00106     0.39977
      H   15    0.09765      0.00000     0.40061    0.00174     0.40235
      H   16    0.09499      0.00000     0.40398    0.00103     0.40501
      H   17    0.09797      0.00000     0.40100    0.00103     0.40203
      H   18    0.10576      0.00000     0.39208    0.00216     0.39424
      H   19    0.09761      0.00000     0.40153    0.00086     0.40239
      H   20    0.10044      0.00000     0.39883    0.00073     0.39956
      H   21    0.10194      0.00000     0.39700    0.00106     0.39806
      H   22    0.09550      0.00000     0.40365    0.00085     0.40450
      H   23    0.10101      0.00000     0.39804    0.00095     0.39899
      H   24    0.10267      0.00000     0.39603    0.00131     0.39733
      H   25    0.09287      0.00000     0.40591    0.00122     0.40713
      H   26    0.10286      0.00000     0.39389    0.00325     0.39714
      H   27    0.09426      0.00000     0.40461    0.00113     0.40574
      H   28    0.09977      0.00000     0.39919    0.00104     0.40023
      H   29    0.10229      0.00000     0.39669    0.00102     0.39771
      H   30    0.10034      0.00000     0.39864    0.00102     0.39966
 =======================================================================
   * Total *    0.00000     11.99447    32.88341    0.12212    45.00000

 Normal termination of Gaussian 16 at Wed Dec  9 18:29:22 2020.
