 Gaussian 16, Revision A.03,

 -----------------------------------------------------------
 # opt freq B3LYP/6-31G(d) empiricaldispersion=gd3bj scf=xqc
 -----------------------------------------------------------

 ------------------------------
 CID_64000277_JID_5873_neutraal
 ------------------------------
 Symbolic Z-matrix:
 Charge =  0 Multiplicity = 1

 SCF Done:  E(RB3LYP) =  -620.550502889     A.U. after   13 cycles
 SCF Done:  E(RB3LYP) =  -620.556124231     A.U. after   11 cycles
 SCF Done:  E(RB3LYP) =  -620.557107733     A.U. after   10 cycles
 SCF Done:  E(RB3LYP) =  -620.557940824     A.U. after   10 cycles
 SCF Done:  E(RB3LYP) =  -620.558346216     A.U. after   10 cycles
 SCF Done:  E(RB3LYP) =  -620.558482684     A.U. after   10 cycles
 SCF Done:  E(RB3LYP) =  -620.558661455     A.U. after   10 cycles
 SCF Done:  E(RB3LYP) =  -620.558776967     A.U. after   10 cycles
 SCF Done:  E(RB3LYP) =  -620.558875113     A.U. after   11 cycles
 SCF Done:  E(RB3LYP) =  -620.558902918     A.U. after   10 cycles
 SCF Done:  E(RB3LYP) =  -620.559010160     A.U. after    8 cycles
 SCF Done:  E(RB3LYP) =  -620.559004914     A.U. after    8 cycles
 SCF Done:  E(RB3LYP) =  -620.559013575     A.U. after    8 cycles
 SCF Done:  E(RB3LYP) =  -620.559019071     A.U. after   10 cycles
 SCF Done:  E(RB3LYP) =  -620.559019766     A.U. after    7 cycles
 SCF Done:  E(RB3LYP) =  -620.559019875     A.U. after    6 cycles
 Optimization completed.
    -- Stationary point found.
 Normal termination of Gaussian 16 at Thu Dec 10 17:25:52 2020.

 --------------------------------------------------------------------
 #N Geom=AllCheck Guess=TCheck SCRF=Check GenChk RB3LYP/6-31G(d) Freq
 --------------------------------------------------------------------

 Structure from the checkpoint file:  "JID_5873.chk"
 ------------------------------
 CID_64000277_JID_5873_neutraal
 ------------------------------
 Charge =  0 Multiplicity = 1

 SCF Done:  E(RB3LYP) =  -620.559019875     A.U. after    1 cycles

  Exact polarizability: 168.979  -2.435 134.866  -1.506   3.778 131.731
 Approx polarizability: 206.323  -3.991 195.892   0.881   5.092 196.813

                      1                      2                      3
                      A                      A                      A
 Frequencies --     23.6747                32.4093                66.9508
 Red. masses --      3.6502                 2.7367                 2.8958
 Frc consts  --      0.0012                 0.0017                 0.0076
 IR Inten    --      0.0852                 0.0343                 0.3321

                      4                      5                      6
                      A                      A                      A
 Frequencies --     84.4119                96.5109               135.0290
 Red. masses --      2.5910                 2.6570                 2.7689
 Frc consts  --      0.0109                 0.0146                 0.0297
 IR Inten    --      0.0303                 0.1579                 0.1329

                      7                      8                      9
                      A                      A                      A
 Frequencies --    140.6594               193.2478               220.2643
 Red. masses --      2.3006                 2.6551                 1.6718
 Frc consts  --      0.0268                 0.0584                 0.0478
 IR Inten    --      0.7868                 0.2095                 0.6952

                     10                     11                     12
                      A                      A                      A
 Frequencies --    253.0976               263.9553               274.3292
 Red. masses --      2.6735                 1.9124                 2.0021
 Frc consts  --      0.1009                 0.0785                 0.0888
 IR Inten    --      1.1132                 1.0590                 1.9810

                     13                     14                     15
                      A                      A                      A
 Frequencies --    290.3922               323.2124               344.1672
 Red. masses --      1.6020                 1.9516                 2.5662
 Frc consts  --      0.0796                 0.1201                 0.1791
 IR Inten    --      3.2364                 2.7783                 1.0286

                     16                     17                     18
                      A                      A                      A
 Frequencies --    363.4558               374.3320               390.6095
 Red. masses --      2.4954                 2.1601                 2.0319
 Frc consts  --      0.1942                 0.1783                 0.1827
 IR Inten    --      3.7289                 1.1395                 0.3004

                     19                     20                     21
                      A                      A                      A
 Frequencies --    445.1979               452.6088               475.8481
 Red. masses --      2.0442                 2.5485                 1.9357
 Frc consts  --      0.2387                 0.3076                 0.2582
 IR Inten    --      0.6892                 2.3735                 9.9238

                     22                     23                     24
                      A                      A                      A
 Frequencies --    492.7167               505.8916               588.2999
 Red. masses --      2.0262                 2.1467                 2.1646
 Frc consts  --      0.2898                 0.3237                 0.4414
 IR Inten    --     10.0161                12.2900                 9.3235

                     25                     26                     27
                      A                      A                      A
 Frequencies --    623.8949               677.0725               742.5714
 Red. masses --      2.7821                 1.8799                 2.6806
 Frc consts  --      0.6380                 0.5077                 0.8709
 IR Inten    --      6.6460                56.6771                 5.5812

                     28                     29                     30
                      A                      A                      A
 Frequencies --    786.2269               788.6322               794.8880
 Red. masses --      1.0832                 1.2587                 2.1960
 Frc consts  --      0.3945                 0.4612                 0.8175
 IR Inten    --      0.3883                 1.4745                16.5989

                     31                     32                     33
                      A                      A                      A
 Frequencies --    817.1709               839.0433               856.3089
 Red. masses --      1.6865                 1.5777                 2.3893
 Frc consts  --      0.6635                 0.6544                 1.0323
 IR Inten    --      6.0877                 6.0379                 0.9575

                     34                     35                     36
                      A                      A                      A
 Frequencies --    873.0205               887.5332               913.1256
 Red. masses --      2.0563                 1.9696                 2.1843
 Frc consts  --      0.9234                 0.9141                 1.0731
 IR Inten    --      4.3603                 0.9038                 7.9945

                     37                     38                     39
                      A                      A                      A
 Frequencies --    941.0723               958.3127               970.2518
 Red. masses --      2.1952                 1.9250                 2.0067
 Frc consts  --      1.1454                 1.0416                 1.1130
 IR Inten    --      3.9557                 6.3695                 5.2461

                     40                     41                     42
                      A                      A                      A
 Frequencies --    992.7666               995.9936              1026.0215
 Red. masses --      1.9172                 1.9685                 1.8313
 Frc consts  --      1.1133                 1.1506                 1.1358
 IR Inten    --      5.2273                10.2509                11.4462

                     43                     44                     45
                      A                      A                      A
 Frequencies --   1031.1115              1046.9538              1060.3473
 Red. masses --      2.7188                 1.6328                 1.4024
 Frc consts  --      1.7031                 1.0545                 0.9290
 IR Inten    --     10.3992                 3.3856                12.9567

                     46                     47                     48
                      A                      A                      A
 Frequencies --   1070.4777              1079.4876              1085.3090
 Red. masses --      1.9563                 1.4761                 1.7585
 Frc consts  --      1.3208                 1.0135                 1.2204
 IR Inten    --      2.1900                 0.7801                12.2221

                     49                     50                     51
                      A                      A                      A
 Frequencies --   1086.2660              1104.4857              1124.2557
 Red. masses --      2.0412                 2.2791                 2.3020
 Frc consts  --      1.4191                 1.6381                 1.7143
 IR Inten    --      5.2376                 6.0696                 5.1150

                     52                     53                     54
                      A                      A                      A
 Frequencies --   1147.7090              1149.5418              1165.7875
 Red. masses --      1.1229                 1.9342                 2.3701
 Frc consts  --      0.8715                 1.5059                 1.8978
 IR Inten    --      0.1890                22.3295                21.5723

                     55                     56                     57
                      A                      A                      A
 Frequencies --   1201.3082              1207.1935              1211.6043
 Red. masses --      1.9352                 1.9539                 1.4309
 Frc consts  --      1.6455                 1.6777                 1.2376
 IR Inten    --      4.3054                27.5716                 2.3361

                     58                     59                     60
                      A                      A                      A
 Frequencies --   1226.5627              1242.4700              1267.4512
 Red. masses --      2.4220                 1.8639                 1.3406
 Frc consts  --      2.1469                 1.6953                 1.2689
 IR Inten    --     41.1392                 1.0549                 5.6939

                     61                     62                     63
                      A                      A                      A
 Frequencies --   1289.3719              1295.7286              1318.3699
 Red. masses --      1.4012                 1.2556                 1.2252
 Frc consts  --      1.3725                 1.2420                 1.2546
 IR Inten    --      2.5142                 3.8868                 0.9000

                     64                     65                     66
                      A                      A                      A
 Frequencies --   1322.6555              1339.4652              1352.3337
 Red. masses --      1.2444                 1.2641                 1.3238
 Frc consts  --      1.2826                 1.3363                 1.4264
 IR Inten    --     11.3548                 1.2812                 1.0461

                     67                     68                     69
                      A                      A                      A
 Frequencies --   1369.8030              1377.4248              1391.4572
 Red. masses --      1.2839                 1.3558                 1.3463
 Frc consts  --      1.4194                 1.5156                 1.5358
 IR Inten    --      9.3284                 1.6346                 3.9835

                     70                     71                     72
                      A                      A                      A
 Frequencies --   1394.7437              1403.7045              1408.1781
 Red. masses --      1.3478                 1.3134                 1.2760
 Frc consts  --      1.5448                 1.5247                 1.4908
 IR Inten    --     23.6353                28.7152                 2.5053

                     73                     74                     75
                      A                      A                      A
 Frequencies --   1418.0835              1423.5196              1433.6128
 Red. masses --      1.2975                 1.3386                 1.3339
 Frc consts  --      1.5373                 1.5982                 1.6153
 IR Inten    --     16.2673                 6.3825                 5.8244

                     76                     77                     78
                      A                      A                      A
 Frequencies --   1439.0413              1444.4926              1447.2824
 Red. masses --      1.3854                 1.4035                 1.2919
 Frc consts  --      1.6903                 1.7254                 1.5943
 IR Inten    --      1.7609                22.3625                 7.0239

                     79                     80                     81
                      A                      A                      A
 Frequencies --   1495.8282              1499.3391              1501.4014
 Red. masses --      1.0899                 1.0940                 1.1392
 Frc consts  --      1.4368                 1.4491                 1.5130
 IR Inten    --      1.0526                 0.6474                 3.5003

                     82                     83                     84
                      A                      A                      A
 Frequencies --   1511.0949              1512.7992              1522.3671
 Red. masses --      1.0788                 1.0936                 1.1045
 Frc consts  --      1.4514                 1.4746                 1.5082
 IR Inten    --      5.4636                 3.2936                 4.3066

                     85                     86                     87
                      A                      A                      A
 Frequencies --   1525.4156              1529.8314              1534.1736
 Red. masses --      1.1099                 1.1824                 1.0671
 Frc consts  --      1.5216                 1.6305                 1.4798
 IR Inten    --      3.1607                 6.2422                 6.6695

                     88                     89                     90
                      A                      A                      A
 Frequencies --   1534.6633              1538.0180              1539.6910
 Red. masses --      1.0530                 1.3304                 1.0683
 Frc consts  --      1.4611                 1.8542                 1.4922
 IR Inten    --      2.8515                 2.3969                 8.4030

                     91                     92                     93
                      A                      A                      A
 Frequencies --   1549.1511              2932.6293              2979.6020
 Red. masses --      1.0565                 1.0802                 1.0828
 Frc consts  --      1.4939                 5.4737                 5.6641
 IR Inten    --      5.7177                34.0850                56.5924

                     94                     95                     96
                      A                      A                      A
 Frequencies --   2990.9929              3021.0326              3045.6748
 Red. masses --      1.0694                 1.0637                 1.0629
 Frc consts  --      5.6367                 5.7195                 5.8093
 IR Inten    --     28.2002                60.2447                 5.2970

                     97                     98                     99
                      A                      A                      A
 Frequencies --   3046.7087              3050.4465              3052.7443
 Red. masses --      1.0718                 1.0678                 1.0679
 Frc consts  --      5.8619                 5.8541                 5.8635
 IR Inten    --     11.1439                37.2098                33.9821

                    100                    101                    102
                      A                      A                      A
 Frequencies --   3054.4575              3058.3840              3062.1607
 Red. masses --      1.0615                 1.0509                 1.0570
 Frc consts  --      5.8350                 5.7914                 5.8396
 IR Inten    --     28.5406                 6.5377                42.3841

                    103                    104                    105
                      A                      A                      A
 Frequencies --   3068.3863              3089.0278              3094.3879
 Red. masses --      1.0901                 1.1000                 1.0961
 Frc consts  --      6.0469                 6.1844                 6.1838
 IR Inten    --     65.3423                19.5164                54.9441

                    106                    107                    108
                      A                      A                      A
 Frequencies --   3111.6836              3113.5748              3116.1849
 Red. masses --      1.0967                 1.0967                 1.1016
 Frc consts  --      6.2563                 6.2643                 6.3028
 IR Inten    --     49.9439                33.2688                54.0301

                    109                    110                    111
                      A                      A                      A
 Frequencies --   3122.4640              3129.1465              3139.3025
 Red. masses --      1.1018                 1.0982                 1.0522
 Frc consts  --      6.3290                 6.3354                 6.1096
 IR Inten    --     40.6747                27.4823                18.6325

                    112                    113                    114
                      A                      A                      A
 Frequencies --   3140.7185              3144.6380              3155.3059
 Red. masses --      1.0981                 1.0595                 1.0896
 Frc consts  --      6.3818                 6.1727                 6.3915
 IR Inten    --     44.8290                11.5011                21.8224

                    115                    116                    117
                      A                      A                      A
 Frequencies --   3213.2841              3228.0652              3526.4839
 Red. masses --      1.1190                 1.1157                 1.0748
 Frc consts  --      6.8076                 6.8497                 7.8752
 IR Inten    --      0.6454                33.3660                 0.7238

 - Thermochemistry -
 -------------------
 Temperature   298.150 Kelvin.  Pressure   1.00000 Atm.
 Atom     1 has atomic number  6 and mass  12.00000

 Molecular mass:   210.20960 amu.
 Principal axes and moments of inertia in atomic units:
                           1         2         3
     Eigenvalues --  1810.107995929.132246214.56781
           X            0.99997   0.00479  -0.00551
           Y           -0.00460   0.99946   0.03264
           Z            0.00566  -0.03261   0.99945
 This molecule is an asymmetric top.
 Rotational symmetry number  1.
 Warning -- assumption of classical behavior for rotation
           may cause significant error
 Rotational temperatures (Kelvin)      0.04785     0.01461     0.01394
 Rotational constants (GHZ):           0.99704     0.30439     0.29040
 Zero-point vibrational energy    1005904.1 (Joules/Mol)
                                  240.41685 (Kcal/Mol)
 Warning -- explicit consideration of  24 degrees of freedom as
           vibrations may cause significant error
 Vibrational temperatures:     34.06    46.63    96.33   121.45   138.86
          (Kelvin)            194.28   202.38   278.04   316.91   364.15
                              379.77   394.70   417.81   465.03   495.18
                              522.93   538.58   562.00   640.54   651.20
                              684.64   708.91   727.87   846.43   897.65
                              974.16  1068.39  1131.21  1134.67  1143.67
                             1175.73  1207.20  1232.04  1256.08  1276.96
                             1313.78  1353.99  1378.80  1395.98  1428.37
                             1433.01  1476.22  1483.54  1506.33  1525.60
                             1540.18  1553.14  1561.52  1562.89  1589.11
                             1617.55  1651.30  1653.93  1677.31  1728.41
                             1736.88  1743.23  1764.75  1787.64  1823.58
                             1855.12  1864.26  1896.84  1903.01  1927.19
                             1945.71  1970.84  1981.81  2002.00  2006.73
                             2019.62  2026.05  2040.31  2048.13  2062.65
                             2070.46  2078.30  2082.32  2152.16  2157.21
                             2160.18  2174.13  2176.58  2190.35  2194.73
                             2201.09  2207.33  2208.04  2212.86  2215.27
                             2228.88  4219.40  4286.98  4303.37  4346.59
                             4382.05  4383.53  4388.91  4392.22  4394.68
                             4400.33  4405.77  4414.72  4444.42  4452.13
                             4477.02  4479.74  4483.50  4492.53  4502.14
                             4516.76  4518.79  4524.43  4539.78  4623.20
                             4644.47  5073.82

 Zero-point correction=                           0.383129 (Hartree/Particle)
 Thermal correction to Energy=                    0.399271
 Thermal correction to Enthalpy=                  0.400215
 Thermal correction to Gibbs Free Energy=         0.339056
 Sum of electronic and zero-point Energies=           -620.175891
 Sum of electronic and thermal Energies=              -620.159749
 Sum of electronic and thermal Enthalpies=            -620.158804
 Sum of electronic and thermal Free Energies=         -620.219964

                     E (Thermal)             CV                S
                      KCal/Mol        Cal/Mol-Kelvin    Cal/Mol-Kelvin
 Total                  250.546             63.414            128.720
 Electronic               0.000              0.000              0.000
 Translational            0.889              2.981             41.933
 Rotational               0.889              2.981             32.567
 Vibrational            248.769             57.452             54.221
 Vibration     1          0.593              1.985              6.299
 Vibration     2          0.594              1.983              5.676
 Vibration     3          0.598              1.970              4.241
 Vibration     4          0.601              1.960              3.786
 Vibration     5          0.603              1.952              3.524
 Vibration     6          0.613              1.918              2.873
 Vibration     7          0.615              1.913              2.795
 Vibration     8          0.635              1.849              2.196
 Vibration     9          0.647              1.810              1.957
 Vibration    10          0.664              1.758              1.709
 Vibration    11          0.671              1.739              1.635
 Vibration    12          0.677              1.721              1.569
 Vibration    13          0.686              1.692              1.472
 Vibration    14          0.708              1.629              1.294
 Vibration    15          0.723              1.587              1.193
 Vibration    16          0.737              1.548              1.107
 Vibration    17          0.745              1.525              1.062
 Vibration    18          0.758              1.490              0.998
 Vibration    19          0.805              1.371              0.810
 Vibration    20          0.811              1.355              0.788
 Vibration    21          0.832              1.304              0.721
 Vibration    22          0.848              1.266              0.677
 Vibration    23          0.861              1.237              0.644
 Vibration    24          0.946              1.057              0.470

                           ! Non-Optimized Parameters !
 Normal termination of Gaussian 16 at Thu Dec 10 17:40:51 2020.

 ----------------------------------------------------------------------
 # B3LYP/6-311++G(d,p) empiricaldispersion=gd3bj scf=xqc pop=npa geom=c
 heck
 ----------------------------------------------------------------------

 --------------------------------------
 CID_64000277_JID_5873_Energie_neutraal
 --------------------------------------
 Structure from the checkpoint file:  "JID_5873.chk"
 Charge =  0 Multiplicity = 1

 SCF Done:  E(RB3LYP) =  -620.732157610     A.U. after   13 cycles
 Normal termination of Gaussian 16 at Thu Dec 10 17:47:37 2020.

 ----------------------------------------------------------------------
 # B3LYP/6-311++G(d,p) empiricaldispersion=gd3bj scf=xqc pop=npa geom=c
 heck
 ----------------------------------------------------------------------

 ------------------------------------
 CID_64000277_JID_5873_Energie_kation
 ------------------------------------
 Structure from the checkpoint file:  "JID_5873.chk"
 Charge =  1 Multiplicity = 2

 SCF Done:  E(UB3LYP) =  -620.467143902     A.U. after   19 cycles
 Normal termination of Gaussian 16 at Thu Dec 10 18:00:14 2020.
 Gaussian 16:  ES64L-G16RevA.03 25-Dec-2016

 ----------------------------------------------------------------------
 # B3LYP/6-311++G(d,p) empiricaldispersion=gd3bj scf=xqc pop=npa geom=c
 heck
 ----------------------------------------------------------------------

 -----------------------------------
 CID_64000277_JID_5873_Energie_anion
 -----------------------------------
 Structure from the checkpoint file:  "JID_5873.chk"
 Charge = -1 Multiplicity = 2

                         Standard orientation:
 ---------------------------------------------------------------------
 Center     Atomic      Atomic             Coordinates (Angstroms)
 Number     Number       Type             X           Y           Z
 ---------------------------------------------------------------------
      1          6           0        3.036405    1.968364   -1.267316
      2          6           0        3.807158    0.733563   -0.790263
      3          6           0        3.011966   -0.254402    0.093604
      4          6           0        1.915235   -0.976333   -0.700184
      5          6           0        0.967906   -1.860401    0.146036
      6          7           0       -0.224326   -1.201172    0.681289
      7          6           0        0.117221   -0.245166    1.734149
      8          6           0        1.131020    0.860455    1.380573
      9          7           0        2.500884    0.346505    1.334436
     10          6           0       -1.187806   -0.678218   -0.309394
     11          6           0       -1.275698   -1.561030   -1.559519
     12          6           0       -2.591023   -0.581029    0.330892
     13          6           0       -3.573577    0.248609   -0.470098
     14          6           0       -4.660118    1.020693    0.236437
     15          6           0       -3.502234    1.755444   -0.394901
     16          1           0        2.678874    2.564007   -0.420544
     17          1           0        2.166644    1.700536   -1.876805
     18          1           0        3.678725    2.613355   -1.876909
     19          1           0        4.201741    0.185357   -1.657272
     20          1           0        4.687567    1.065778   -0.220842
     21          1           0        3.730706   -1.029239    0.405131
     22          1           0        1.316252   -0.254022   -1.264996
     23          1           0        2.418936   -1.599134   -1.450561
     24          1           0        0.646846   -2.717779   -0.450453
     25          1           0        1.521436   -2.267565    1.000703
     26          1           0        0.535236   -0.803558    2.580929
     27          1           0       -0.802958    0.231217    2.084759
     28          1           0        1.099525    1.602678    2.187652
     29          1           0        0.812756    1.386609    0.465806
     30          1           0        3.154266    1.051671    1.660719
     31          1           0       -0.904033    0.338285   -0.641519
     32          1           0       -1.530145   -2.591350   -1.285046
     33          1           0       -2.061802   -1.183996   -2.219690
     34          1           0       -0.348679   -1.576222   -2.138169
     35          1           0       -2.973867   -1.599300    0.479669
     36          1           0       -2.517161   -0.139183    1.329872
     37          1           0       -3.851951   -0.160501   -1.439218
     38          1           0       -5.635797    1.093962   -0.235825
     39          1           0       -4.696721    0.963571    1.321538
     40          1           0       -2.755658    2.189382    0.266351
     41          1           0       -3.685377    2.334823   -1.295446
 ---------------------------------------------------------------------

 SCF Done:  E(UB3LYP) =  -620.717813497     A.U. after   29 cycles

 The electronic state is 2-A.
 Alpha  occ. eigenvalues --  -14.20071 -14.19101 -10.10303 -10.09626 -10.09053
 Alpha  occ. eigenvalues --  -10.08864 -10.08639 -10.08544 -10.08106 -10.07807
 Alpha  occ. eigenvalues --  -10.07188 -10.06484 -10.06468 -10.06368 -10.05689
 Alpha  occ. eigenvalues --   -0.82982  -0.79634  -0.76981  -0.69135  -0.68240
 Alpha  occ. eigenvalues --   -0.64852  -0.60623  -0.59843  -0.57624  -0.52962
 Alpha  occ. eigenvalues --   -0.51098  -0.50820  -0.47946  -0.45347  -0.44710
 Alpha  occ. eigenvalues --   -0.41158  -0.40936  -0.38367  -0.37965  -0.36991
 Alpha  occ. eigenvalues --   -0.35993  -0.34649  -0.34593  -0.32763  -0.31382
 Alpha  occ. eigenvalues --   -0.30382  -0.29921  -0.29247  -0.28004  -0.27702
 Alpha  occ. eigenvalues --   -0.27495  -0.26798  -0.26422  -0.25446  -0.25209
 Alpha  occ. eigenvalues --   -0.24600  -0.24320  -0.23280  -0.23065  -0.21560
 Alpha  occ. eigenvalues --   -0.20181  -0.19156  -0.12319  -0.10578   0.04264
 Alpha virt. eigenvalues --    0.05986   0.06621   0.07221   0.07642   0.08038
 Alpha virt. eigenvalues --    0.08435   0.09385   0.09624   0.09929   0.10425
 Alpha virt. eigenvalues --    0.10755   0.11025   0.11752   0.12282   0.12663

  Beta  occ. eigenvalues --  -14.20072 -14.19084 -10.10298 -10.09623 -10.09045
  Beta  occ. eigenvalues --  -10.08845 -10.08635 -10.08536 -10.08094 -10.07788
  Beta  occ. eigenvalues --  -10.07183 -10.06461 -10.06449 -10.06350 -10.05657
  Beta  occ. eigenvalues --   -0.82971  -0.79606  -0.76964  -0.69104  -0.68223
  Beta  occ. eigenvalues --   -0.64816  -0.60598  -0.59808  -0.57592  -0.52926
  Beta  occ. eigenvalues --   -0.51048  -0.50758  -0.47914  -0.45300  -0.44685
  Beta  occ. eigenvalues --   -0.41127  -0.40900  -0.38339  -0.37929  -0.36970
  Beta  occ. eigenvalues --   -0.35954  -0.34619  -0.34572  -0.32733  -0.31355
  Beta  occ. eigenvalues --   -0.30361  -0.29893  -0.29226  -0.27966  -0.27673
  Beta  occ. eigenvalues --   -0.27470  -0.26769  -0.26397  -0.25422  -0.25184
  Beta  occ. eigenvalues --   -0.24572  -0.24299  -0.23248  -0.23043  -0.21529
  Beta  occ. eigenvalues --   -0.20161  -0.19139  -0.12300  -0.10566
  Beta virt. eigenvalues --    0.06269   0.06802   0.07248   0.07539   0.08072
  Beta virt. eigenvalues --    0.08559   0.08707   0.09667   0.09953   0.10160
  Beta virt. eigenvalues --    0.10787   0.10986   0.11236   0.11953   0.12547

 Mulliken charges and spin densities:
               1          2
     1  C    1.030290  -1.535664
     2  C   -1.051842   0.537179
     3  C    1.272173  -1.001312
     4  C   -0.678325   0.474306
     5  C    0.140249  -0.665349
     6  N    0.275277   0.084909
     7  C   -0.213538   0.013957
     8  C   -0.105625  -0.425185
     9  N   -0.277393   0.146381
    10  C   -0.682886   0.211076
    11  C   -0.443556  -0.249204
    12  C    1.299613  -1.431403
    13  C   -1.203542   1.386599
    14  C    0.474520  -0.973192
    15  C    0.196544  -0.640971
    16  H   -0.103776   0.257602
    17  H   -0.429954   0.573093
    18  H   -0.426983   0.580329
    19  H   -0.042549   0.152310
    20  H   -0.328852   0.493688
    21  H    0.024324   0.153370
    22  H    0.488730  -0.330290
    23  H   -0.205982   0.399711
    24  H    0.046802   0.130452
    25  H    0.171811  -0.006639
    26  H    0.059668   0.111993
    27  H    0.153140  -0.079915
    28  H   -0.567487   0.738818
    29  H    0.180090  -0.025645
    30  H    0.082454   0.173004
    31  H    0.671439  -0.545573
    32  H    0.088812   0.062980
    33  H   -0.209727   0.351992
    34  H   -0.347387   0.483277
    35  H    0.216892  -0.072827
    36  H   -0.035557   0.164352
    37  H   -0.184916   0.407905
    38  H   -0.092478   0.232636
    39  H    0.016984   0.112401
    40  H   -0.045354   0.176901
    41  H   -0.212103   0.371950
 Sum of Mulliken charges =  -1.00000   1.00000

 Dipole moment (field-independent basis, Debye):
    X=             -2.4509    Y=             -4.1256    Z=              2.3265  Tot=              5.3329
 Quadrupole moment (field-independent basis, Debye-Ang):
   XX=           -180.1392   YY=           -144.1417   ZZ=           -143.0742
   XY=             -4.1088   XZ=             -3.3377   YZ=              0.0898

 Summary of Natural Population Analysis:

                                       Natural Population
                Natural  -----------------------------------------------
    Atom  No    Charge         Core      Valence    Rydberg      Total
 -----------------------------------------------------------------------
      C    1   -0.28912      0.99966     2.28409    0.00537     3.28912
      C    2   -0.19264      0.99962     2.18463    0.00839     3.19264
      C    3   -0.00255      0.99958     1.98993    0.01303     3.00255
      C    4   -0.21143      0.99960     2.20374    0.00809     3.21143
      C    5   -0.08635      0.99961     2.07453    0.01221     3.08635
      N    6   -0.28249      0.99971     2.77100    0.01178     3.78249
      C    7   -0.08584      0.99960     2.07451    0.01173     3.08584
      C    8   -0.10383      0.99961     2.09261    0.01161     3.10383
      N    9   -0.35170      0.99973     2.83936    0.01260     3.85170
      C   10   -0.00622      0.99958     1.99397    0.01267     3.00622
      C   11   -0.29218      0.99964     2.28626    0.00628     3.29218
      C   12   -0.18865      0.99959     2.17932    0.00975     3.18865
      C   13   -0.11712      0.99959     2.10656    0.01098     3.11712
      C   14   -0.19634      0.99962     2.19041    0.00631     3.19634
      C   15   -0.19915      0.99962     2.19021    0.00932     3.19915
      H   16    0.09791      0.00000     0.40066    0.00143     0.40209
      H   17    0.09618      0.00000     0.40245    0.00137     0.40382
      H   18    0.10034      0.00000     0.39856    0.00110     0.39966
      H   19    0.09580      0.00000     0.40286    0.00133     0.40420
      H   20    0.09392      0.00000     0.40467    0.00141     0.40608
      H   21    0.08696      0.00000     0.41137    0.00168     0.41304
      H   22    0.09909      0.00000     0.39924    0.00167     0.40091
      H   23    0.10315      0.00000     0.39553    0.00132     0.39685
      H   24    0.09623      0.00000     0.40269    0.00108     0.40377
      H   25    0.09760      0.00000     0.40126    0.00114     0.40240
      H   26    0.09520      0.00000     0.40347    0.00132     0.40480
      H   27    0.09267      0.00000     0.40609    0.00124     0.40733
      H   28    0.09765      0.00000     0.40085    0.00150     0.40235
      H   29    0.08371      0.00000     0.41401    0.00229     0.41629
      H   30    0.17868      0.00000     0.31815    0.00317     0.32132
      H   31    0.08368      0.00000     0.41351    0.00281     0.41632
      H   32    0.09750      0.00000     0.40153    0.00097     0.40250
      H   33    0.10286      0.00000     0.39612    0.00102     0.39714
      H   34    0.10290      0.00000     0.39618    0.00092     0.39710
      H   35    0.09838      0.00000     0.40028    0.00135     0.40162
      H   36    0.09800      0.00000     0.40040    0.00160     0.40200
      H   37    0.10233      0.00000     0.39645    0.00122     0.39767
      H   38    0.10072      0.00000     0.39825    0.00103     0.39928
      H   39    0.09858      0.00000     0.40041    0.00101     0.40142
      H   40    0.10181      0.00000     0.39696    0.00122     0.39819
      H   41    0.10375      0.00000     0.39508    0.00117     0.39625
 =======================================================================
   * Total *   -0.00000     14.99436    43.81815    0.18750    59.00000

 Normal termination of Gaussian 16 at Thu Dec 10 18:17:36 2020.
