 Gaussian 16, Revision A.03,

 -----------------------------------------------------------
 # opt freq B3LYP/6-31G(d) empiricaldispersion=gd3bj scf=xqc
 -----------------------------------------------------------

 ------------------------------
 CID_55236304_JID_9578_neutraal
 ------------------------------
 Symbolic Z-matrix:
 Charge =  0 Multiplicity = 1

 SCF Done:  E(RB3LYP) =  -1242.09791577     A.U. after   15 cycles
 SCF Done:  E(RB3LYP) =  -1242.10382274     A.U. after   13 cycles
 SCF Done:  E(RB3LYP) =  -1242.09875877     A.U. after   14 cycles
 SCF Done:  E(RB3LYP) =  -1242.10514124     A.U. after   12 cycles
 SCF Done:  E(RB3LYP) =  -1242.10587661     A.U. after   13 cycles
 SCF Done:  E(RB3LYP) =  -1242.10666291     A.U. after   12 cycles
 SCF Done:  E(RB3LYP) =  -1242.10705760     A.U. after   12 cycles
 SCF Done:  E(RB3LYP) =  -1242.10738353     A.U. after   13 cycles
 SCF Done:  E(RB3LYP) =  -1242.10793320     A.U. after   11 cycles
 SCF Done:  E(RB3LYP) =  -1242.10862436     A.U. after   12 cycles
 SCF Done:  E(RB3LYP) =  -1242.10894210     A.U. after   10 cycles
 SCF Done:  E(RB3LYP) =  -1242.10893952     A.U. after    9 cycles
 SCF Done:  E(RB3LYP) =  -1242.10894386     A.U. after    9 cycles
 SCF Done:  E(RB3LYP) =  -1242.10894397     A.U. after    7 cycles
 SCF Done:  E(RB3LYP) =  -1242.10894403     A.U. after    6 cycles
 Optimization completed.
    -- Stationary point found.
 Normal termination of Gaussian 16 at Mon Dec 14 13:46:15 2020.

 --------------------------------------------------------------------
 #N Geom=AllCheck Guess=TCheck SCRF=Check GenChk RB3LYP/6-31G(d) Freq
 --------------------------------------------------------------------

 Structure from the checkpoint file:  "JID_9578.chk"
 ------------------------------
 CID_55236304_JID_9578_neutraal
 ------------------------------
 Charge =  0 Multiplicity = 1

 SCF Done:  E(RB3LYP) =  -1242.10894403     A.U. after    1 cycles

  Exact polarizability: 197.342  -0.607 164.204  -0.209  -5.154 140.177
 Approx polarizability: 244.754  -8.693 252.669  -1.373 -25.416 230.209

                      1                      2                      3
                      A                      A                      A
 Frequencies --     37.3182                44.3749                58.6065
 Red. masses --      3.2597                 5.6303                 5.5382
 Frc consts  --      0.0027                 0.0065                 0.0112
 IR Inten    --      0.2746                 0.4102                 0.3280

                      4                      5                      6
                      A                      A                      A
 Frequencies --     67.3532                76.1553               111.9421
 Red. masses --      4.4709                 6.5763                 6.1112
 Frc consts  --      0.0119                 0.0225                 0.0451
 IR Inten    --      0.4787                 1.6628                 1.2283

                      7                      8                      9
                      A                      A                      A
 Frequencies --    133.5638               141.0176               151.9583
 Red. masses --      4.7947                 2.6367                 4.6886
 Frc consts  --      0.0504                 0.0309                 0.0638
 IR Inten    --      0.3747                 0.3124                 2.0681

                     10                     11                     12
                      A                      A                      A
 Frequencies --    171.7130               177.3786               216.9241
 Red. masses --      2.4827                 1.0796                 4.4830
 Frc consts  --      0.0431                 0.0200                 0.1243
 IR Inten    --      0.4232                 0.4312                 1.3665

                     13                     14                     15
                      A                      A                      A
 Frequencies --    243.3056               261.4456               266.1460
 Red. masses --      1.2900                 2.5075                 1.2775
 Frc consts  --      0.0450                 0.1010                 0.0533
 IR Inten    --      0.6753                 0.5529                 0.2385

                     16                     17                     18
                      A                      A                      A
 Frequencies --    296.5021               305.4185               322.2178
 Red. masses --      3.9415                 2.5752                 3.1450
 Frc consts  --      0.2042                 0.1415                 0.1924
 IR Inten    --      6.0088                 0.0164                 2.8068

                     19                     20                     21
                      A                      A                      A
 Frequencies --    332.8590               365.1984               369.6823
 Red. masses --      3.2437                 3.0496                 2.5374
 Frc consts  --      0.2117                 0.2396                 0.2043
 IR Inten    --      4.0557                 1.6751                 1.0955

                     22                     23                     24
                      A                      A                      A
 Frequencies --    393.6616               404.6213               414.0267
 Red. masses --      2.2106                 5.9368                 2.5913
 Frc consts  --      0.2018                 0.5727                 0.2617
 IR Inten    --      0.8519                 9.5404                 2.6556

                     25                     26                     27
                      A                      A                      A
 Frequencies --    452.0744               487.4752               503.2952
 Red. masses --      2.9001                 4.1282                 3.8081
 Frc consts  --      0.3492                 0.5780                 0.5683
 IR Inten    --      5.1031                 1.8833                 4.7523

                     28                     29                     30
                      A                      A                      A
 Frequencies --    544.7034               578.7460               605.2585
 Red. masses --      2.9744                 3.0883                 3.7914
 Frc consts  --      0.5200                 0.6095                 0.8183
 IR Inten    --      8.6806                46.4946                 8.7658

                     31                     32                     33
                      A                      A                      A
 Frequencies --    632.3276               658.5196               679.0813
 Red. masses --      2.6371                 2.5704                 3.7516
 Frc consts  --      0.6212                 0.6567                 1.0193
 IR Inten    --     56.4999                37.5950                 3.0599

                     34                     35                     36
                      A                      A                      A
 Frequencies --    703.7957               726.5110               745.4538
 Red. masses --      4.0595                 2.2133                 3.7855
 Frc consts  --      1.1847                 0.6883                 1.2394
 IR Inten    --      5.0110                 2.1992                22.2092

                     37                     38                     39
                      A                      A                      A
 Frequencies --    760.6293               789.4404               811.8892
 Red. masses --      3.2986                 5.2003                 2.8781
 Frc consts  --      1.1244                 1.9095                 1.1178
 IR Inten    --      5.7327                18.8714                 2.0078

                     40                     41                     42
                      A                      A                      A
 Frequencies --    848.1766               852.6283               867.4990
 Red. masses --      2.1421                 3.2672                 3.0767
 Frc consts  --      0.9080                 1.3994                 1.3642
 IR Inten    --      0.5917                21.7713                 7.1101

                     43                     44                     45
                      A                      A                      A
 Frequencies --    887.0415               936.2162               962.4399
 Red. masses --      2.0212                 1.9793                 2.0469
 Frc consts  --      0.9370                 1.0221                 1.1171
 IR Inten    --     13.3386                 4.3067                 1.4407

                     46                     47                     48
                      A                      A                      A
 Frequencies --    979.5596               995.7786              1003.5737
 Red. masses --      1.7199                 1.5967                 1.9796
 Frc consts  --      0.9723                 0.9328                 1.1747
 IR Inten    --     12.4650                 0.4590                 4.7241

                     49                     50                     51
                      A                      A                      A
 Frequencies --   1011.7277              1014.1096              1031.2167
 Red. masses --      2.1443                 1.6829                 1.8525
 Frc consts  --      1.2932                 1.0197                 1.1607
 IR Inten    --      5.0821                 3.7014                32.2851

                     52                     53                     54
                      A                      A                      A
 Frequencies --   1065.6710              1074.1820              1089.5817
 Red. masses --      1.6802                 1.6029                 1.7686
 Frc consts  --      1.1242                 1.0897                 1.2371
 IR Inten    --      7.3704                31.6068                 5.8460

                     55                     56                     57
                      A                      A                      A
 Frequencies --   1114.3829              1120.3388              1142.4862
 Red. masses --      2.2154                 1.8550                 1.9726
 Frc consts  --      1.6210                 1.3718                 1.5170
 IR Inten    --      1.6867                 9.7683                 1.3918

                     58                     59                     60
                      A                      A                      A
 Frequencies --   1154.9491              1161.9709              1184.1319
 Red. masses --      1.5895                 1.5254                 1.9773
 Frc consts  --      1.2492                 1.2135                 1.6335
 IR Inten    --     64.6350                33.1634                 6.3392

                     61                     62                     63
                      A                      A                      A
 Frequencies --   1187.7334              1202.7023              1222.2620
 Red. masses --      2.6007                 2.1346                 1.6991
 Frc consts  --      2.1616                 1.8193                 1.4955
 IR Inten    --     11.4750               105.3380                26.4799

                     64                     65                     66
                      A                      A                      A
 Frequencies --   1240.3769              1262.5660              1280.3141
 Red. masses --      1.5328                 1.5755                 1.5582
 Frc consts  --      1.3894                 1.4798                 1.5049
 IR Inten    --     79.1148                15.6979                15.4057

                     67                     68                     69
                      A                      A                      A
 Frequencies --   1289.6012              1315.8940              1324.6560
 Red. masses --      1.8440                 1.1923                 1.5269
 Frc consts  --      1.8068                 1.2164                 1.5786
 IR Inten    --     44.5800                 5.3893                24.5867

                     70                     71                     72
                      A                      A                      A
 Frequencies --   1339.5555              1353.3563              1373.3180
 Red. masses --      1.4744                 1.3111                 1.7076
 Frc consts  --      1.5588                 1.4148                 1.8975
 IR Inten    --     50.5509                26.7663               155.4358

                     73                     74                     75
                      A                      A                      A
 Frequencies --   1380.8771              1382.0633              1388.1615
 Red. masses --      1.4583                 1.6186                 1.6782
 Frc consts  --      1.6384                 1.8216                 1.9053
 IR Inten    --     41.7777                26.3864                19.0525

                     76                     77                     78
                      A                      A                      A
 Frequencies --   1397.4495              1399.1881              1408.2920
 Red. masses --      2.2059                 1.5880                 1.6471
 Frc consts  --      2.5381                 1.8317                 1.9246
 IR Inten    --    189.8749                81.0682               118.1698

                     79                     80                     81
                      A                      A                      A
 Frequencies --   1414.9578              1426.9097              1434.6821
 Red. masses --      1.3554                 1.2491                 1.4908
 Frc consts  --      1.5988                 1.4984                 1.8079
 IR Inten    --     22.0904                23.5235                21.4075

                     82                     83                     84
                      A                      A                      A
 Frequencies --   1442.7657              1446.7204              1502.3849
 Red. masses --      1.2607                 1.2805                 1.0911
 Frc consts  --      1.5461                 1.5791                 1.4510
 IR Inten    --     20.1464                 4.1978                 3.1856

                     85                     86                     87
                      A                      A                      A
 Frequencies --   1504.7989              1509.1359              1512.1931
 Red. masses --      1.0692                 1.0720                 1.0841
 Frc consts  --      1.4265                 1.4385                 1.4606
 IR Inten    --      6.1108                10.0594                 2.2621

                     88                     89                     90
                      A                      A                      A
 Frequencies --   1519.6995              1523.0308              1529.0624
 Red. masses --      1.0555                 1.0559                 1.0690
 Frc consts  --      1.4362                 1.4431                 1.4726
 IR Inten    --      3.5217                 1.2175                 1.1552

                     91                     92                     93
                      A                      A                      A
 Frequencies --   1540.9634              1543.2928              1545.5225
 Red. masses --      1.0466                 1.0528                 1.0701
 Frc consts  --      1.4642                 1.4774                 1.5060
 IR Inten    --      9.0286                 8.3002                 9.3697

                     94                     95                     96
                      A                      A                      A
 Frequencies --   1738.4769              1840.0301              3023.3901
 Red. masses --     11.5169                10.0945                 1.0794
 Frc consts  --     20.5081                20.1365                 5.8133
 IR Inten    --    277.2760               234.8800                13.5706

                     97                     98                     99
                      A                      A                      A
 Frequencies --   3037.9334              3040.3538              3047.0236
 Red. masses --      1.0661                 1.0674                 1.0578
 Frc consts  --      5.7968                 5.8135                 5.7861
 IR Inten    --     35.9952                 5.4553                57.8435

                    100                    101                    102
                      A                      A                      A
 Frequencies --   3053.4680              3064.0749              3068.1893
 Red. masses --      1.0462                 1.0422                 1.0383
 Frc consts  --      5.7469                 5.7651                 5.7588
 IR Inten    --     34.1120                14.1468                16.1755

                    103                    104                    105
                      A                      A                      A
 Frequencies --   3080.7977              3085.1686              3094.9708
 Red. masses --      1.1007                 1.1027                 1.0687
 Frc consts  --      6.1550                 6.1840                 6.0314
 IR Inten    --     26.3274                58.3698                11.0021

                    106                    107                    108
                      A                      A                      A
 Frequencies --   3103.8631              3109.9916              3110.9690
 Red. masses --      1.0790                 1.1022                 1.0868
 Frc consts  --      6.1245                 6.2812                 6.1972
 IR Inten    --      9.7195                35.1911                 1.8737

                    109                    110                    111
                      A                      A                      A
 Frequencies --   3128.1320              3133.7210              3137.6525
 Red. masses --      1.1002                 1.0995                 1.1010
 Frc consts  --      6.3432                 6.3616                 6.3862
 IR Inten    --     12.6641                51.3656                27.7983

                    112                    113                    114
                      A                      A                      A
 Frequencies --   3138.7800              3149.8381              3167.8075
 Red. masses --      1.0926                 1.0873                 1.0917
 Frc consts  --      6.3420                 6.3562                 6.4544
 IR Inten    --     16.7225                 5.7369                54.1411

                    115                    116                    117
                      A                      A                      A
 Frequencies --   3178.2148              3179.6950              3683.8850
 Red. masses --      1.1034                 1.1001                 1.0640
 Frc consts  --      6.5670                 6.5530                 8.5078
 IR Inten    --      1.0079                 3.0674                63.1084

 - Thermochemistry -
 -------------------
 Temperature   298.150 Kelvin.  Pressure   1.00000 Atm.
 Atom     1 has atomic number  6 and mass  12.00000

 Molecular mass:   286.13511 amu.
 Principal axes and moments of inertia in atomic units:
                           1         2         3
     Eigenvalues --  2888.149657555.598538952.70011
           X            0.99989   0.01431   0.00418
           Y           -0.01439   0.99971   0.01952
           Z           -0.00390  -0.01957   0.99980
 This molecule is an asymmetric top.
 Rotational symmetry number  1.
 Warning -- assumption of classical behavior for rotation
           may cause significant error
 Rotational temperatures (Kelvin)      0.02999     0.01146     0.00967
 Rotational constants (GHZ):           0.62488     0.23886     0.20159
 Zero-point vibrational energy     927591.4 (Joules/Mol)
                                  221.69966 (Kcal/Mol)
 Warning -- explicit consideration of  30 degrees of freedom as
           vibrations may cause significant error
 Vibrational temperatures:     53.69    63.85    84.32    96.91   109.57
          (Kelvin)            161.06   192.17   202.89   218.63   247.06
                              255.21   312.11   350.06   376.16   382.92
                              426.60   439.43   463.60   478.91   525.44
                              531.89   566.39   582.16   595.69   650.43
                              701.37   724.13   783.71   832.69   870.83
                              909.78   947.46   977.05  1012.61  1045.29
                             1072.54  1094.38  1135.83  1168.13  1220.34
                             1226.74  1248.14  1276.25  1347.01  1384.74
                             1409.37  1432.70  1443.92  1455.65  1459.08
                             1483.69  1533.26  1545.51  1567.67  1603.35
                             1611.92  1643.78  1661.71  1671.82  1703.70
                             1708.88  1730.42  1758.56  1784.63  1816.55
                             1842.09  1855.45  1893.28  1905.88  1927.32
                             1947.18  1975.90  1986.77  1988.48  1997.25
                             2010.62  2013.12  2026.22  2035.81  2053.00
                             2064.19  2075.82  2081.51  2161.60  2165.07
                             2171.31  2175.71  2186.51  2191.30  2199.98
                             2217.10  2220.45  2223.66  2501.28  2647.39
                             4349.98  4370.91  4374.39  4383.99  4393.26
                             4408.52  4414.44  4432.58  4438.87  4452.97
                             4465.77  4474.58  4475.99  4500.68  4508.73
                             4514.38  4516.00  4531.91  4557.77  4572.74
                             4574.87  5300.29

 Zero-point correction=                           0.353301 (Hartree/Particle)
 Thermal correction to Energy=                    0.372530
 Thermal correction to Enthalpy=                  0.373475
 Thermal correction to Gibbs Free Energy=         0.305899
 Sum of electronic and zero-point Energies=          -1241.755643
 Sum of electronic and thermal Energies=             -1241.736414
 Sum of electronic and thermal Enthalpies=           -1241.735469
 Sum of electronic and thermal Free Energies=        -1241.803045

                     E (Thermal)             CV                S
                      KCal/Mol        Cal/Mol-Kelvin    Cal/Mol-Kelvin
 Total                  233.766             74.051            142.226
 Electronic               0.000              0.000              0.000
 Translational            0.889              2.981             42.852
 Rotational               0.889              2.981             33.635
 Vibrational            231.989             68.089             65.739
 Vibration     1          0.594              1.982              5.397
 Vibration     2          0.595              1.980              5.054
 Vibration     3          0.596              1.974              4.504
 Vibration     4          0.598              1.970              4.229
 Vibration     5          0.599              1.965              3.988
 Vibration     6          0.607              1.940              3.235
 Vibration     7          0.613              1.920              2.894
 Vibration     8          0.615              1.912              2.790
 Vibration     9          0.619              1.900              2.648
 Vibration    10          0.626              1.877              2.417
 Vibration    11          0.628              1.870              2.356
 Vibration    12          0.646              1.815              1.985
 Vibration    13          0.659              1.774              1.779
 Vibration    14          0.669              1.743              1.652
 Vibration    15          0.672              1.735              1.621
 Vibration    16          0.690              1.680              1.437
 Vibration    17          0.696              1.663              1.387
 Vibration    18          0.707              1.631              1.299
 Vibration    19          0.715              1.610              1.246
 Vibration    20          0.738              1.544              1.100
 Vibration    21          0.742              1.535              1.081
 Vibration    22          0.761              1.484              0.986
 Vibration    23          0.770              1.460              0.946
 Vibration    24          0.778              1.440              0.912
 Vibration    25          0.811              1.356              0.790
 Vibration    26          0.843              1.278              0.690
 Vibration    27          0.859              1.243              0.650
 Vibration    28          0.900              1.151              0.555
 Vibration    29          0.935              1.077              0.488
 Vibration    30          0.964              1.021              0.441

                           ! Non-Optimized Parameters !
 Normal termination of Gaussian 16 at Mon Dec 14 14:13:37 2020.

 ----------------------------------------------------------------------
 # B3LYP/6-311++G(d,p) empiricaldispersion=gd3bj scf=xqc pop=npa geom=c
 heck
 ----------------------------------------------------------------------

 --------------------------------------
 CID_55236304_JID_9578_Energie_neutraal
 --------------------------------------
 Structure from the checkpoint file:  "JID_9578.chk"
 Charge =  0 Multiplicity = 1

 SCF Done:  E(RB3LYP) =  -1242.38025745     A.U. after   15 cycles
 Normal termination of Gaussian 16 at Mon Dec 14 14:26:32 2020.

 ----------------------------------------------------------------------
 # B3LYP/6-311++G(d,p) empiricaldispersion=gd3bj scf=xqc pop=npa geom=c
 heck
 ----------------------------------------------------------------------

 ------------------------------------
 CID_55236304_JID_9578_Energie_kation
 ------------------------------------
 Structure from the checkpoint file:  "JID_9578.chk"
 Charge =  1 Multiplicity = 2

 SCF Done:  E(UB3LYP) =  -1242.08209325     A.U. after   27 cycles
 Normal termination of Gaussian 16 at Mon Dec 14 14:58:44 2020.
 Gaussian 16:  ES64L-G16RevA.03 25-Dec-2016

 ----------------------------------------------------------------------
 # B3LYP/6-311++G(d,p) empiricaldispersion=gd3bj scf=xqc pop=npa geom=c
 heck
 ----------------------------------------------------------------------

 -----------------------------------
 CID_55236304_JID_9578_Energie_anion
 -----------------------------------
 Structure from the checkpoint file:  "JID_9578.chk"
 Charge = -1 Multiplicity = 2

                         Standard orientation:
 ---------------------------------------------------------------------
 Center     Atomic      Atomic             Coordinates (Angstroms)
 Number     Number       Type             X           Y           Z
 ---------------------------------------------------------------------
      1          6           0        4.888083    0.131739    0.343165
      2          6           0        3.910050    0.260262   -0.833327
      3          6           0        3.313149   -1.093356   -1.252125
      4          6           0        2.241778   -1.576742   -0.277876
      5          7           0        1.148652   -0.587624   -0.197277
      6          6           0        1.600684    0.740390    0.292232
      7          6           0        2.753588    1.247303   -0.593930
      8          6           0        1.870872    0.749858    1.804257
      9          6           0       -0.020611   -1.150770    0.367218
     10          8           0        0.006561   -2.193933    1.014161
     11          7           0       -1.222120   -0.536445    0.068995
     12          6           0       -2.474318   -1.195311    0.507023
     13         16           0       -3.827886   -0.071991   -0.073143
     14          6           0       -2.751060    0.498216   -1.441996
     15          6           0       -1.388794    0.643600   -0.756370
     16          6           0       -1.402640    1.971711    0.015308
     17          8           0       -1.494360    3.047294   -0.533211
     18          8           0       -1.326897    1.825943    1.354518
     19          6           0       -2.658647   -2.596225   -0.077301
     20          1           0        5.239102    1.116902    0.671419
     21          1           0        5.765048   -0.454501    0.044853
     22          1           0        4.444233   -0.365510    1.209737
     23          1           0        4.488286    0.652249   -1.681065
     24          1           0        2.858172   -0.997976   -2.246351
     25          1           0        4.100675   -1.853741   -1.325685
     26          1           0        2.669503   -1.784327    0.712005
     27          1           0        1.808721   -2.516205   -0.623875
     28          1           0        0.790361    1.447296    0.125699
     29          1           0        3.130423    2.186089   -0.169912
     30          1           0        2.318188    1.494072   -1.571044
     31          1           0        2.268835    1.723422    2.111671
     32          1           0        0.937352    0.576369    2.348004
     33          1           0        2.584920   -0.017357    2.109752
     34          1           0       -2.507245   -1.222571    1.598749
     35          1           0       -3.111126    1.449381   -1.833969
     36          1           0       -2.704845   -0.242127   -2.244982
     37          1           0       -0.581374    0.694803   -1.492916
     38          1           0       -1.379367    2.726812    1.726351
     39          1           0       -1.849521   -3.248865    0.251313
     40          1           0       -3.615467   -3.006415    0.258654
     41          1           0       -2.669655   -2.555943   -1.171550
 ---------------------------------------------------------------------

 SCF Done:  E(UB3LYP) =  -1242.37260814     A.U. after   33 cycles
 SCF Done:  E(UB3LYP) =  -1242.37260814     a.u. after    1 cycles

 The electronic state is 2-A.
 Alpha  occ. eigenvalues --  -88.75699 -19.08104 -19.02418 -18.99411 -14.25784
 Alpha  occ. eigenvalues --  -14.23014 -10.21262 -10.20309 -10.15586 -10.14521
 Alpha  occ. eigenvalues --  -10.12187 -10.11574 -10.09835 -10.07978 -10.07370
 Alpha  occ. eigenvalues --  -10.07054 -10.07005 -10.06526 -10.06255  -7.84362
 Alpha  occ. eigenvalues --   -5.80740  -5.80432  -5.79695  -1.02252  -0.96164
 Alpha  occ. eigenvalues --   -0.93247  -0.86584  -0.83503  -0.72614  -0.71262
 Alpha  occ. eigenvalues --   -0.70070  -0.68195  -0.62440  -0.61295  -0.59805
 Alpha  occ. eigenvalues --   -0.57315  -0.55211  -0.52455  -0.51813  -0.50717
 Alpha  occ. eigenvalues --   -0.47806  -0.45093  -0.42696  -0.41850  -0.40643
 Alpha  occ. eigenvalues --   -0.39609  -0.38372  -0.37315  -0.36351  -0.35624
 Alpha  occ. eigenvalues --   -0.34969  -0.34481  -0.33891  -0.33236  -0.32474
 Alpha  occ. eigenvalues --   -0.32119  -0.31442  -0.31142  -0.30741  -0.29796
 Alpha  occ. eigenvalues --   -0.29354  -0.28599  -0.28355  -0.27407  -0.27121
 Alpha  occ. eigenvalues --   -0.26311  -0.25199  -0.24101  -0.23569  -0.22884
 Alpha  occ. eigenvalues --   -0.22044  -0.21462  -0.20590  -0.18447  -0.15977
 Alpha  occ. eigenvalues --   -0.14585  -0.14071   0.03901
 Alpha virt. eigenvalues --    0.06024   0.06184   0.07204   0.07751   0.08023
 Alpha virt. eigenvalues --    0.08300   0.08836   0.09411   0.09657   0.10231
 Alpha virt. eigenvalues --    0.10547   0.10800   0.11063   0.11328   0.11412

  Beta  occ. eigenvalues --  -88.75695 -19.08059 -19.02373 -18.99410 -14.25784
  Beta  occ. eigenvalues --  -14.23008 -10.21182 -10.20307 -10.15581 -10.14512
  Beta  occ. eigenvalues --  -10.12138 -10.11575 -10.09829 -10.07969 -10.07360
  Beta  occ. eigenvalues --  -10.07032 -10.06988 -10.06502 -10.06230  -7.84358
  Beta  occ. eigenvalues --   -5.80731  -5.80428  -5.79692  -1.02140  -0.96159
  Beta  occ. eigenvalues --   -0.93157  -0.86570  -0.83493  -0.72582  -0.71222
  Beta  occ. eigenvalues --   -0.70031  -0.68174  -0.62398  -0.61241  -0.59761
  Beta  occ. eigenvalues --   -0.57237  -0.55148  -0.52410  -0.51759  -0.50671
  Beta  occ. eigenvalues --   -0.47757  -0.45048  -0.42631  -0.41799  -0.40582
  Beta  occ. eigenvalues --   -0.39553  -0.38334  -0.37225  -0.36254  -0.35607
  Beta  occ. eigenvalues --   -0.34944  -0.34423  -0.33857  -0.33196  -0.32440
  Beta  occ. eigenvalues --   -0.32057  -0.31405  -0.31123  -0.30671  -0.29764
  Beta  occ. eigenvalues --   -0.29322  -0.28572  -0.28328  -0.27380  -0.27096
  Beta  occ. eigenvalues --   -0.26270  -0.25172  -0.24038  -0.23413  -0.22848
  Beta  occ. eigenvalues --   -0.22014  -0.21431  -0.20549  -0.18439  -0.15947
  Beta  occ. eigenvalues --   -0.14559  -0.14053
  Beta virt. eigenvalues --    0.06108   0.06829   0.07054   0.07347   0.08089
  Beta virt. eigenvalues --    0.08331   0.08677   0.09272   0.09666   0.09954
  Beta virt. eigenvalues --    0.10442   0.10708   0.10975   0.11211   0.11450

 Mulliken charges and spin densities:
               1          2
     1  C    0.432246  -1.104270
     2  C   -0.967422   1.440098
     3  C    0.633128  -1.388086
     4  C   -0.122954   0.193189
     5  N    0.172553   0.101993
     6  C   -0.994678   0.756644
     7  C    0.326778  -0.966167
     8  C    0.280958  -0.870552
     9  C    0.097820  -0.458536
    10  O   -0.238420   0.004052
    11  N    0.429348  -0.128769
    12  C   -0.194255   0.122374
    13  S   -0.182688   0.239462
    14  C    0.810600  -1.835074
    15  C   -1.225589   1.764812
    16  C    0.509834  -1.132476
    17  O   -0.207879   0.054465
    18  O   -0.087583   0.017639
    19  C   -0.204124  -0.372186
    20  H    0.013381   0.128424
    21  H   -0.197153   0.336253
    22  H   -0.008481   0.127497
    23  H   -0.379394   0.599743
    24  H   -0.136974   0.291258
    25  H    0.000279   0.167631
    26  H    0.130789   0.060114
    27  H    0.118610   0.067800
    28  H    0.403225  -0.065809
    29  H   -0.199228   0.376787
    30  H    0.019483   0.126363
    31  H   -0.312186   0.492775
    32  H    0.069397   0.121162
    33  H    0.248341  -0.113794
    34  H    0.254331   0.015061
    35  H    0.177815   0.055064
    36  H   -0.240786   0.449237
    37  H   -0.375900   0.710688
    38  H   -0.140896   0.439687
    39  H    0.147094   0.034909
    40  H    0.099675   0.025192
    41  H    0.040905   0.115346
 Sum of Mulliken charges =  -1.00000   1.00000

 Dipole moment (field-independent basis, Debye):
    X=             -3.5952    Y=             -2.9454    Z=              2.0085  Tot=              5.0631
 Quadrupole moment (field-independent basis, Debye-Ang):
   XX=           -195.1886   YY=           -172.9384   ZZ=           -164.3053
   XY=             -0.8151   XZ=              0.7229   YZ=             -1.6194

 Summary of Natural Population Analysis:

                                       Natural Population
                Natural  -----------------------------------------------
    Atom  No    Charge         Core      Valence    Rydberg      Total
 -----------------------------------------------------------------------
      C    1   -0.28559      0.99964     2.27976    0.00619     3.28559
      C    2   -0.11205      0.99959     2.10205    0.01040     3.11205
      C    3   -0.19186      0.99960     2.18280    0.00945     3.19186
      C    4   -0.08530      0.99960     2.07425    0.01145     3.08530
      N    5   -0.28902      0.99967     2.77769    0.01167     3.78902
      C    6   -0.00524      0.99955     1.99215    0.01354     3.00524
      C    7   -0.18793      0.99959     2.17789    0.01046     3.18793
      C    8   -0.29388      0.99963     2.28835    0.00590     3.29388
      C    9    0.42981      0.99963     1.54619    0.02436     2.57019
      O   10   -0.33426      0.99988     3.33005    0.00432     4.33426
      N   11   -0.27275      0.99961     2.75911    0.01403     3.77275
      C   12   -0.04860      0.99960     2.03539    0.01362     3.04860
      S   13    0.09017      4.99962     2.89434    0.01587     7.90983
      C   14   -0.24223      0.99959     2.23088    0.01176     3.24223
      C   15   -0.05818      0.99951     2.04299    0.01568     3.05818
      C   16    0.40880      0.99969     1.56350    0.02801     2.59120
      O   17   -0.30447      0.99987     3.29833    0.00627     4.30447
      O   18   -0.33950      0.99987     3.33232    0.00731     4.33950
      C   19   -0.29894      0.99962     2.29210    0.00722     3.29894
      H   20    0.09996      0.00000     0.39915    0.00089     0.40004
      H   21    0.09825      0.00000     0.40088    0.00087     0.40175
      H   22    0.09524      0.00000     0.40374    0.00102     0.40476
      H   23    0.09780      0.00000     0.40039    0.00180     0.40220
      H   24    0.10213      0.00000     0.39634    0.00153     0.39787
      H   25    0.09926      0.00000     0.39987    0.00087     0.40074
      H   26    0.08950      0.00000     0.40930    0.00120     0.41050
      H   27    0.10609      0.00000     0.39299    0.00092     0.39391
      H   28    0.09617      0.00000     0.40013    0.00369     0.40383
      H   29    0.10274      0.00000     0.39606    0.00120     0.39726
      H   30    0.10396      0.00000     0.39427    0.00177     0.39604
      H   31    0.10322      0.00000     0.39574    0.00104     0.39678
      H   32    0.10602      0.00000     0.39288    0.00110     0.39398
      H   33    0.09738      0.00000     0.40168    0.00094     0.40262
      H   34    0.10580      0.00000     0.39328    0.00092     0.39420
      H   35    0.11895      0.00000     0.38011    0.00094     0.38105
      H   36    0.10778      0.00000     0.39016    0.00206     0.39222
      H   37    0.13141      0.00000     0.36549    0.00310     0.36859
      H   38    0.24323      0.00000     0.25086    0.00591     0.25677
      H   39    0.11745      0.00000     0.38144    0.00112     0.38255
      H   40    0.09879      0.00000     0.40032    0.00089     0.40121
      H   41    0.09988      0.00000     0.39888    0.00123     0.40012
 =======================================================================
   * Total *   -0.00000     22.99337    53.74409    0.26254    77.00000

 Normal termination of Gaussian 16 at Mon Dec 14 15:36:15 2020.
