 Gaussian 16, Revision A.03,

 ----------------------------------------------------------------------
 # opt=(cartesian,calcfc) freq B3LYP/6-31G(d) empiricaldispersion=gd3bj
  scf=xqc
 ----------------------------------------------------------------------

 -------------------------------
 CID_131144214_JID_3669_neutraal
 -------------------------------
 Symbolic Z-matrix:
 Charge =  0 Multiplicity = 1

 SCF Done:  E(RB3LYP) =  -630.025914194     A.U. after   15 cycles
 SCF Done:  E(RB3LYP) =  -630.028283156     A.U. after   12 cycles
 SCF Done:  E(RB3LYP) =  -630.029989682     A.U. after   13 cycles
 SCF Done:  E(RB3LYP) =  -630.030272843     A.U. after   13 cycles
 SCF Done:  E(RB3LYP) =  -630.030375774     A.U. after   13 cycles
 SCF Done:  E(RB3LYP) =  -630.030590634     A.U. after   12 cycles
 SCF Done:  E(RB3LYP) =  -630.030098382     A.U. after   13 cycles
 SCF Done:  E(RB3LYP) =  -630.030524714     A.U. after   12 cycles
 SCF Done:  E(RB3LYP) =  -630.030676872     A.U. after    8 cycles
 SCF Done:  E(RB3LYP) =  -630.030778912     A.U. after   12 cycles
 SCF Done:  E(RB3LYP) =  -630.031229398     A.U. after   10 cycles
 SCF Done:  E(RB3LYP) =  -630.031230320     A.U. after    8 cycles
 SCF Done:  E(RB3LYP) =  -630.031228616     A.U. after   10 cycles
 SCF Done:  E(RB3LYP) =  -630.031230365     A.U. after    7 cycles
 SCF Done:  E(RB3LYP) =  -630.031229647     A.U. after    8 cycles
 SCF Done:  E(RB3LYP) =  -630.031230386     A.U. after    7 cycles
 Optimization completed.
    -- Stationary point found.
 Normal termination of Gaussian 16 at Thu Dec 17 20:29:25 2020.

 --------------------------------------------------------------------
 #N Geom=AllCheck Guess=TCheck SCRF=Check GenChk RB3LYP/6-31G(d) Freq
 --------------------------------------------------------------------

 Structure from the checkpoint file:  "JID_3669.chk"
 -------------------------------
 CID_131144214_JID_3669_neutraal
 -------------------------------
 Charge =  0 Multiplicity = 1

 SCF Done:  E(RB3LYP) =  -630.031230386     A.U. after    1 cycles

  Exact polarizability: 131.025   4.892  98.316   3.168   9.759  83.182
 Approx polarizability: 198.288  10.210 151.506   6.883  30.791 136.146

                      1                      2                      3
                      A                      A                      A
 Frequencies --     26.6935                34.7484                54.4481
 Red. masses --      5.8778                10.9925                 3.9327
 Frc consts  --      0.0025                 0.0078                 0.0069
 IR Inten    --      1.1377                 0.9924                 0.4020

                      4                      5                      6
                      A                      A                      A
 Frequencies --     69.7785               118.9154               142.8998
 Red. masses --      4.0737                 2.8083                 5.3273
 Frc consts  --      0.0117                 0.0234                 0.0641
 IR Inten    --      0.3452                 0.3629                 2.4382

                      7                      8                      9
                      A                      A                      A
 Frequencies --    165.8675               254.8243               301.3891
 Red. masses --      2.6611                 1.3542                 3.2304
 Frc consts  --      0.0431                 0.0518                 0.1729
 IR Inten    --      0.3489                 0.2622                 0.2687

                     10                     11                     12
                      A                      A                      A
 Frequencies --    316.9427               338.7023               380.2757
 Red. masses --      4.4732                 3.0074                 4.0556
 Frc consts  --      0.2647                 0.2033                 0.3455
 IR Inten    --      0.3707                 0.4383                 2.2359

                     13                     14                     15
                      A                      A                      A
 Frequencies --    405.8979               444.2258               520.2258
 Red. masses --      3.1183                 3.2518                 4.2624
 Frc consts  --      0.3027                 0.3781                 0.6796
 IR Inten    --      1.1578                 3.7151                11.1674

                     16                     17                     18
                      A                      A                      A
 Frequencies --    560.2657               584.2366               594.2094
 Red. masses --      3.1566                 2.1928                 4.2971
 Frc consts  --      0.5838                 0.4410                 0.8939
 IR Inten    --     12.2222                26.0019                40.9812

                     19                     20                     21
                      A                      A                      A
 Frequencies --    636.8774               715.9885               744.7266
 Red. masses --      2.0217                 3.8776                 4.8603
 Frc consts  --      0.4831                 1.1712                 1.5882
 IR Inten    --     59.8720                25.0383                 2.7033

                     22                     23                     24
                      A                      A                      A
 Frequencies --    764.1488               822.0473               843.5815
 Red. masses --      2.2264                 2.2336                 3.4683
 Frc consts  --      0.7660                 0.8893                 1.4542
 IR Inten    --      3.0637                 3.7977                22.8339

                     25                     26                     27
                      A                      A                      A
 Frequencies --    859.5133               885.9715               910.6523
 Red. masses --      2.2809                 2.3089                 1.5350
 Frc consts  --      0.9928                 1.0678                 0.7500
 IR Inten    --      7.4102                 6.0737                 1.6877

                     28                     29                     30
                      A                      A                      A
 Frequencies --    925.1003               986.6778              1003.8046
 Red. masses --      2.6168                 2.5934                 1.7787
 Frc consts  --      1.3194                 1.4876                 1.0559
 IR Inten    --     22.3091                15.1158                 4.1475

                     31                     32                     33
                      A                      A                      A
 Frequencies --   1044.4449              1054.0223              1108.0728
 Red. masses --      1.9682                 1.9618                 1.9334
 Frc consts  --      1.2650                 1.2841                 1.3986
 IR Inten    --      5.3227                13.1225                 2.2238

                     34                     35                     36
                      A                      A                      A
 Frequencies --   1123.8268              1148.2257              1173.8358
 Red. masses --      1.7176                 3.4705                 3.2624
 Frc consts  --      1.2781                 2.6959                 2.6485
 IR Inten    --     23.6429               132.7887               132.7738

                     37                     38                     39
                      A                      A                      A
 Frequencies --   1217.2878              1254.4259              1272.3032
 Red. masses --      2.0741                 1.3001                 1.4013
 Frc consts  --      1.8108                 1.2054                 1.3365
 IR Inten    --     24.9579                 1.4693                32.7928

                     40                     41                     42
                      A                      A                      A
 Frequencies --   1303.7905              1316.3429              1360.2913
 Red. masses --      1.2460                 1.6478                 1.9744
 Frc consts  --      1.2479                 1.6822                 2.1525
 IR Inten    --      1.8336                 1.4382                40.4279

                     43                     44                     45
                      A                      A                      A
 Frequencies --   1370.7111              1384.8437              1399.3689
 Red. masses --      1.6070                 1.3555                 1.4175
 Frc consts  --      1.7789                 1.5317                 1.6354
 IR Inten    --      2.4887                 3.2154                 8.4579

                     46                     47                     48
                      A                      A                      A
 Frequencies --   1444.3273              1448.4486              1514.1309
 Red. masses --      1.5209                 1.2578                 1.0900
 Frc consts  --      1.8693                 1.5547                 1.4724
 IR Inten    --     30.1635                 6.4256                 5.3064

                     49                     50                     51
                      A                      A                      A
 Frequencies --   1520.7799              1532.6008              1541.6507
 Red. masses --      1.0746                 1.0482                 1.0578
 Frc consts  --      1.4643                 1.4506                 1.4812
 IR Inten    --      1.9725                 5.5905                 5.0044

                     52                     53                     54
                      A                      A                      A
 Frequencies --   1625.8212              1740.3059              1807.9103
 Red. masses --      9.6276                 7.0060                12.4485
 Frc consts  --     14.9939                12.5018                23.9729
 IR Inten    --    164.7057                47.1293               213.5936

                     55                     56                     57
                      A                      A                      A
 Frequencies --   1861.7740              3038.5075              3042.3825
 Red. masses --     10.3679                 1.0619                 1.0632
 Frc consts  --     21.1736                 5.7765                 5.7983
 IR Inten    --    399.0375                16.9446                26.3878

                     58                     59                     60
                      A                      A                      A
 Frequencies --   3048.3649              3075.6439              3088.2419
 Red. masses --      1.0384                 1.0994                 1.1017
 Frc consts  --      5.6851                 6.1274                 6.1908
 IR Inten    --     19.5482                27.9624                23.2392

                     61                     62                     63
                      A                      A                      A
 Frequencies --   3112.6519              3113.6622              3117.1540
 Red. masses --      1.0844                 1.0990                 1.0903
 Frc consts  --      6.1900                 6.2777                 6.2418
 IR Inten    --      1.2887                26.8851                48.1676

                     64                     65                     66
                      A                      A                      A
 Frequencies --   3129.4176              3180.3051              3688.1284
 Red. masses --      1.1024                 1.0914                 1.0642
 Frc consts  --      6.3610                 6.5037                 8.5284
 IR Inten    --     32.4126                 9.4577                67.0069

 - Thermochemistry -
 -------------------
 Temperature   298.150 Kelvin.  Pressure   1.00000 Atm.
 Atom     1 has atomic number  6 and mass  12.00000

 Molecular mass:   181.07389 amu.
 Principal axes and moments of inertia in atomic units:
                           1         2         3
     Eigenvalues --  1507.068692954.235173769.38390
           X            0.99993  -0.01062   0.00536
           Y            0.01071   0.99978  -0.01798
           Z           -0.00517   0.01804   0.99982
 This molecule is an asymmetric top.
 Rotational symmetry number  1.
 Warning -- assumption of classical behavior for rotation
           may cause significant error
 Rotational temperatures (Kelvin)      0.05747     0.02932     0.02298
 Rotational constants (GHZ):           1.19752     0.61090     0.47879
 Zero-point vibrational energy     506125.9 (Joules/Mol)
                                  120.96699 (Kcal/Mol)
 Warning -- explicit consideration of  18 degrees of freedom as
           vibrations may cause significant error
 Vibrational temperatures:     38.41    50.00    78.34   100.40   171.09
          (Kelvin)            205.60   238.65   366.64   433.63   456.01
                              487.32   547.13   584.00   639.14   748.49
                              806.10   840.59   854.93   916.32  1030.15
                             1071.50  1099.44  1182.74  1213.73  1236.65
                             1274.72  1310.23  1331.01  1419.61  1444.25
                             1502.72  1516.50  1594.27  1616.94  1652.04
                             1688.89  1751.41  1804.84  1830.56  1875.86
                             1893.92  1957.16  1972.15  1992.48  2013.38
                             2078.06  2083.99  2178.50  2188.06  2205.07
                             2218.09  2339.19  2503.91  2601.18  2678.68
                             4371.73  4377.31  4385.92  4425.17  4443.29
                             4478.41  4479.87  4484.89  4502.53  4575.75
                             5306.39

 Zero-point correction=                           0.192773 (Hartree/Particle)
 Thermal correction to Energy=                    0.205393
 Thermal correction to Enthalpy=                  0.206337
 Thermal correction to Gibbs Free Energy=         0.151716
 Sum of electronic and zero-point Energies=           -629.838457
 Sum of electronic and thermal Energies=              -629.825837
 Sum of electronic and thermal Enthalpies=            -629.824893
 Sum of electronic and thermal Free Energies=         -629.879514

                     E (Thermal)             CV                S
                      KCal/Mol        Cal/Mol-Kelvin    Cal/Mol-Kelvin
 Total                  128.886             45.742            114.959
 Electronic               0.000              0.000              0.000
 Translational            0.889              2.981             41.488
 Rotational               0.889              2.981             31.196
 Vibrational            127.109             39.781             42.275
 Vibration     1          0.593              1.984              6.061
 Vibration     2          0.594              1.983              5.538
 Vibration     3          0.596              1.976              4.649
 Vibration     4          0.598              1.969              4.160
 Vibration     5          0.609              1.934              3.118
 Vibration     6          0.616              1.910              2.765
 Vibration     7          0.624              1.884              2.482
 Vibration     8          0.665              1.755              1.697
 Vibration     9          0.693              1.671              1.409
 Vibration    10          0.704              1.641              1.326
 Vibration    11          0.719              1.598              1.218
 Vibration    12          0.750              1.512              1.038
 Vibration    13          0.771              1.457              0.941
 Vibration    14          0.804              1.374              0.813
 Vibration    15          0.875              1.205              0.609
 Vibration    16          0.916              1.117              0.523
 Vibration    17          0.941              1.065              0.478
 Vibration    18          0.952              1.044              0.460

 Normal termination of Gaussian 16 at Thu Dec 17 20:35:04 2020.

 ----------------------------------------------------------------------
 # B3LYP/6-311++G(d,p) empiricaldispersion=gd3bj scf=xqc pop=npa geom=c
 heck
 ----------------------------------------------------------------------

 ---------------------------------------
 CID_131144214_JID_3669_Energie_neutraal
 ---------------------------------------
 Structure from the checkpoint file:  "JID_3669.chk"
 Charge =  0 Multiplicity = 1

 SCF Done:  E(RB3LYP) =  -630.218547631     A.U. after   16 cycles
 Normal termination of Gaussian 16 at Thu Dec 17 20:37:11 2020.

 ----------------------------------------------------------------------
 # B3LYP/6-311++G(d,p) empiricaldispersion=gd3bj scf=xqc pop=npa geom=c
 heck
 ----------------------------------------------------------------------

 -------------------------------------
 CID_131144214_JID_3669_Energie_kation
 -------------------------------------
 Structure from the checkpoint file:  "JID_3669.chk"
 Charge =  1 Multiplicity = 2

 SCF Done:  E(UB3LYP) =  -629.882301432     A.U. after   26 cycles
 Normal termination of Gaussian 16 at Thu Dec 17 20:41:49 2020.
 Gaussian 16:  ES64L-G16RevA.03 25-Dec-2016

 ----------------------------------------------------------------------
 # B3LYP/6-311++G(d,p) empiricaldispersion=gd3bj scf=xqc pop=npa geom=c
 heck
 ----------------------------------------------------------------------

 ------------------------------------
 CID_131144214_JID_3669_Energie_anion
 ------------------------------------
 Structure from the checkpoint file:  "JID_3669.chk"
 Charge = -1 Multiplicity = 2

                         Standard orientation:
 ---------------------------------------------------------------------
 Center     Atomic      Atomic             Coordinates (Angstroms)
 Number     Number       Type             X           Y           Z
 ---------------------------------------------------------------------
      1          6           0        2.857082   -1.513869    0.560993
      2          6           0        3.296750   -0.068010    0.321035
      3          6           0        2.538454    0.615463   -0.837423
      4          6           0        1.056955    0.701586   -0.580907
      5          6           0        0.143599   -0.078089   -1.179715
      6          6           0       -1.303670   -0.012494   -0.785250
      7          6           0       -1.662562    1.199255    0.102036
      8          8           0       -2.821084    1.533605    0.222109
      9          7           0       -0.635869    1.890886    0.782262
     10          6           0        0.583334    1.641371    0.444527
     11          6           0       -1.681766   -1.304207   -0.051998
     12          8           0       -2.406438   -2.165662   -0.482988
     13          8           0       -1.073620   -1.371554    1.156591
     14          1           0        1.801011   -1.568054    0.845360
     15          1           0        3.446715   -1.973720    1.361088
     16          1           0        2.991013   -2.120282   -0.343498
     17          1           0        3.160323    0.515427    1.241497
     18          1           0        4.369526   -0.035035    0.094224
     19          1           0        2.947529    1.622982   -0.990468
     20          1           0        2.714008    0.056970   -1.764636
     21          1           0        0.429816   -0.812274   -1.929821
     22          1           0       -1.954975    0.020019   -1.662355
     23          1           0        1.352563    2.206805    0.978472
     24          1           0       -1.366347   -2.206180    1.568816
 ---------------------------------------------------------------------

 SCF Done:  E(UB3LYP) =  -630.260239069     A.U. after   24 cycles

 The electronic state is 2-A.
 Alpha  occ. eigenvalues --  -19.05037 -18.99304 -18.92796 -14.12148 -10.17775
 Alpha  occ. eigenvalues --  -10.09745 -10.05884 -10.05135 -10.05129 -10.05021
 Alpha  occ. eigenvalues --  -10.03264 -10.02357 -10.01778  -0.98966  -0.90199
 Alpha  occ. eigenvalues --   -0.87710  -0.75217  -0.68733  -0.65747  -0.61280
 Alpha  occ. eigenvalues --   -0.55415  -0.50929  -0.48167  -0.47075  -0.43387
 Alpha  occ. eigenvalues --   -0.37171  -0.36665  -0.35532  -0.34329  -0.33252
 Alpha  occ. eigenvalues --   -0.32066  -0.30802  -0.30199  -0.28535  -0.27608
 Alpha  occ. eigenvalues --   -0.26229  -0.24562  -0.24388  -0.24115  -0.23106
 Alpha  occ. eigenvalues --   -0.22364  -0.21049  -0.20759  -0.17779  -0.16310
 Alpha  occ. eigenvalues --   -0.11211  -0.10211  -0.07762   0.02481
 Alpha virt. eigenvalues --    0.07569   0.08837   0.09813   0.10211   0.11448
 Alpha virt. eigenvalues --    0.11822   0.12168   0.12624   0.13184   0.14323
 Alpha virt. eigenvalues --    0.15483   0.16173   0.16254   0.17064   0.18072

  Beta  occ. eigenvalues --  -19.05029 -18.99273 -18.92494 -14.11936 -10.17649
  Beta  occ. eigenvalues --  -10.09598 -10.05873 -10.05135 -10.05126 -10.05075
  Beta  occ. eigenvalues --  -10.02788 -10.02395 -10.01331  -0.98908  -0.90143
  Beta  occ. eigenvalues --   -0.87164  -0.74530  -0.68598  -0.65346  -0.61075
  Beta  occ. eigenvalues --   -0.55159  -0.50357  -0.47722  -0.46721  -0.42941
  Beta  occ. eigenvalues --   -0.37022  -0.36529  -0.35290  -0.34198  -0.33145
  Beta  occ. eigenvalues --   -0.31736  -0.30641  -0.29818  -0.28194  -0.27486
  Beta  occ. eigenvalues --   -0.25998  -0.24321  -0.24123  -0.23901  -0.22354
  Beta  occ. eigenvalues --   -0.21802  -0.20894  -0.20643  -0.16217  -0.15507
  Beta  occ. eigenvalues --   -0.10738  -0.08472  -0.07481
  Beta virt. eigenvalues --    0.07468   0.08807   0.09505   0.09758   0.10177
  Beta virt. eigenvalues --    0.11447   0.12132   0.12376   0.12588   0.13282
  Beta virt. eigenvalues --    0.14311   0.15467   0.16155   0.16465   0.17469

 Mulliken charges and spin densities:
               1          2
     1  C   -0.625032  -0.036734
     2  C   -0.107326   0.014402
     3  C   -0.595793   0.023203
     4  C    0.878508   0.005082
     5  C   -0.368109   0.321280
     6  C    0.130438  -0.037295
     7  C   -0.260865   0.108122
     8  O   -0.357312   0.108484
     9  N   -0.146884   0.099444
    10  C   -0.559282   0.320908
    11  C   -0.157806   0.023282
    12  O   -0.283036   0.009710
    13  O   -0.168627   0.002660
    14  H    0.166089   0.004463
    15  H    0.104202   0.002813
    16  H    0.117078  -0.000629
    17  H    0.123716   0.006596
    18  H    0.069524   0.040587
    19  H    0.140058  -0.002258
    20  H    0.125896   0.012452
    21  H    0.135284  -0.027727
    22  H    0.243081   0.031407
    23  H    0.128085  -0.030549
    24  H    0.268112   0.000297
 Sum of Mulliken charges =  -1.00000   1.00000

 Dipole moment (field-independent basis, Debye):
    X=              6.4864    Y=             -4.6147    Z=             -0.3894  Tot=              7.9700
 Quadrupole moment (field-independent basis, Debye-Ang):
   XX=           -112.2280   YY=           -100.3900   ZZ=            -84.5560
   XY=              6.2193   XZ=             -0.1364   YZ=             -8.7898

 Summary of Natural Population Analysis:

                                       Natural Population
                Natural  -----------------------------------------------
    Atom  No    Charge         Core      Valence    Rydberg      Total
 -----------------------------------------------------------------------
      C    1   -0.29036      0.99967     2.28608    0.00461     3.29036
      C    2   -0.18420      0.99964     2.17847    0.00609     3.18420
      C    3   -0.18942      0.99960     2.18117    0.00865     3.18942
      C    4   -0.06897      0.99945     2.05957    0.00994     3.06897
      C    5    0.02000      0.99946     1.97248    0.00805     2.98000
      C    6   -0.21892      0.99950     2.20387    0.01554     3.21892
      C    7    0.36067      0.99967     1.61360    0.02606     2.63933
      O    8   -0.27339      0.99987     3.26629    0.00723     4.27339
      N    9   -0.25056      0.99967     2.73572    0.01517     3.75056
      C   10    0.16035      0.99959     1.82523    0.01483     2.83965
      C   11    0.43619      0.99970     1.53722    0.02689     2.56381
      O   12   -0.31482      0.99986     3.30791    0.00705     4.31482
      O   13   -0.34264      0.99987     3.33528    0.00748     4.34264
      H   14    0.11094      0.00000     0.38805    0.00101     0.38906
      H   15    0.09006      0.00000     0.40903    0.00091     0.40994
      H   16    0.09032      0.00000     0.40865    0.00103     0.40968
      H   17    0.09528      0.00000     0.40341    0.00131     0.40472
      H   18    0.08430      0.00000     0.41353    0.00216     0.41570
      H   19    0.09527      0.00000     0.40346    0.00127     0.40473
      H   20    0.09072      0.00000     0.40749    0.00179     0.40928
      H   21    0.08145      0.00000     0.41682    0.00173     0.41855
      H   22    0.12335      0.00000     0.37532    0.00133     0.37665
      H   23    0.06388      0.00000     0.43403    0.00209     0.43612
      H   24    0.23051      0.00000     0.26526    0.00424     0.26949
 =======================================================================
   * Total *   -0.00000     12.99557    34.82795    0.17648    48.00000

 Normal termination of Gaussian 16 at Thu Dec 17 20:46:10 2020.
