 Gaussian 16, Revision A.03,

 -----------------------------------------------------------
 # opt freq B3LYP/6-31G(d) empiricaldispersion=gd3bj scf=xqc
 -----------------------------------------------------------

 ------------------------------
 CID_66135508_JID_6983_neutraal
 ------------------------------
 Symbolic Z-matrix:
 Charge =  0 Multiplicity = 1

 SCF Done:  E(RB3LYP) =  -746.526582045     A.U. after   14 cycles
 SCF Done:  E(RB3LYP) =  -746.533497675     A.U. after   12 cycles
 SCF Done:  E(RB3LYP) =  -746.535120531     A.U. after   12 cycles
 SCF Done:  E(RB3LYP) =  -746.536095665     A.U. after   12 cycles
 SCF Done:  E(RB3LYP) =  -746.536525994     A.U. after   12 cycles
 SCF Done:  E(RB3LYP) =  -746.536857340     A.U. after   11 cycles
 SCF Done:  E(RB3LYP) =  -746.537020124     A.U. after   10 cycles
 SCF Done:  E(RB3LYP) =  -746.537116232     A.U. after   11 cycles
 SCF Done:  E(RB3LYP) =  -746.537148851     A.U. after   10 cycles
 SCF Done:  E(RB3LYP) =  -746.537167551     A.U. after   10 cycles
 SCF Done:  E(RB3LYP) =  -746.537174653     A.U. after    9 cycles
 SCF Done:  E(RB3LYP) =  -746.537174933     A.U. after    8 cycles
 SCF Done:  E(RB3LYP) =  -746.537175070     A.U. after    8 cycles
 SCF Done:  E(RB3LYP) =  -746.537175130     A.U. after    7 cycles
 SCF Done:  E(RB3LYP) =  -746.537175151     A.U. after    6 cycles
 Optimization completed.
    -- Stationary point found.
 Normal termination of Gaussian 16 at Fri Dec 11 01:25:45 2020.

 --------------------------------------------------------------------
 #N Geom=AllCheck Guess=TCheck SCRF=Check GenChk RB3LYP/6-31G(d) Freq
 --------------------------------------------------------------------

 Structure from the checkpoint file:  "JID_6983.chk"
 ------------------------------
 CID_66135508_JID_6983_neutraal
 ------------------------------
 Charge =  0 Multiplicity = 1

 SCF Done:  E(RB3LYP) =  -746.537175151     A.U. after    1 cycles

  Exact polarizability: 166.629   3.457 148.211  10.676   1.015 103.998
 Approx polarizability: 209.334   5.518 214.065  19.048   3.510 162.721

                      1                      2                      3
                      A                      A                      A
 Frequencies --     18.7550                30.4705                42.8616
 Red. masses --      3.4692                 3.6916                 2.8869
 Frc consts  --      0.0007                 0.0020                 0.0031
 IR Inten    --      0.6909                 3.2065                 3.2264

                      4                      5                      6
                      A                      A                      A
 Frequencies --     47.8396                69.5269                91.9587
 Red. masses --      3.9599                 3.4097                 2.5647
 Frc consts  --      0.0053                 0.0097                 0.0128
 IR Inten    --      0.0877                 0.2451                 0.9717

                      7                      8                      9
                      A                      A                      A
 Frequencies --     95.1939               117.8310               129.9524
 Red. masses --      3.5709                 2.0026                 3.1911
 Frc consts  --      0.0191                 0.0164                 0.0318
 IR Inten    --      0.1327                 2.2591                 0.3248

                     10                     11                     12
                      A                      A                      A
 Frequencies --    166.9987               179.5070               203.7982
 Red. masses --      1.4816                 1.1805                 2.3639
 Frc consts  --      0.0243                 0.0224                 0.0578
 IR Inten    --      0.3199                 0.7606                 2.2245

                     13                     14                     15
                      A                      A                      A
 Frequencies --    212.8123               222.0296               235.6071
 Red. masses --      1.5258                 1.2235                 1.7107
 Frc consts  --      0.0407                 0.0355                 0.0560
 IR Inten    --      0.9815                 1.1870                 1.2733

                     16                     17                     18
                      A                      A                      A
 Frequencies --    274.1392               294.4102               304.4164
 Red. masses --      3.4640                 1.9369                 3.4101
 Frc consts  --      0.1534                 0.0989                 0.1862
 IR Inten    --      3.7771                 1.8480                 0.7068

                     19                     20                     21
                      A                      A                      A
 Frequencies --    353.8206               370.6967               399.9695
 Red. masses --      3.3551                 3.4783                 3.0569
 Frc consts  --      0.2475                 0.2816                 0.2881
 IR Inten    --      0.7468                10.3794                 1.2985

                     22                     23                     24
                      A                      A                      A
 Frequencies --    416.0516               478.3349               485.3226
 Red. masses --      2.9504                 3.5211                 3.1939
 Frc consts  --      0.3009                 0.4747                 0.4432
 IR Inten    --      0.7779                 1.9463                 6.5642

                     25                     26                     27
                      A                      A                      A
 Frequencies --    518.1872               631.1352               641.7238
 Red. masses --      3.8038                 4.2753                 3.7489
 Frc consts  --      0.6018                 1.0034                 0.9096
 IR Inten    --     17.3732                 4.1697                 3.6796

                     28                     29                     30
                      A                      A                      A
 Frequencies --    676.8701               681.9880               756.8862
 Red. masses --      3.6964                 3.1714                 1.7289
 Frc consts  --      0.9978                 0.8691                 0.5835
 IR Inten    --     12.5120                 4.2245                55.4549

                     31                     32                     33
                      A                      A                      A
 Frequencies --    780.4148               790.3906               806.7150
 Red. masses --      1.8750                 1.5736                 1.2423
 Frc consts  --      0.6728                 0.5792                 0.4763
 IR Inten    --     18.4336                11.1543                 1.5046

                     34                     35                     36
                      A                      A                      A
 Frequencies --    847.2454               899.3741               935.5252
 Red. masses --      1.4355                 1.6385                 3.1306
 Frc consts  --      0.6071                 0.7809                 1.6143
 IR Inten    --      9.0023                12.4543                12.7942

                     37                     38                     39
                      A                      A                      A
 Frequencies --    945.3719               971.9847               977.0301
 Red. masses --      2.6210                 3.2761                 2.0210
 Frc consts  --      1.3801                 1.8236                 1.1367
 IR Inten    --     14.7592                34.2874                 1.7667

                     40                     41                     42
                      A                      A                      A
 Frequencies --    997.3764              1007.2732              1086.1982
 Red. masses --      1.8374                 3.9194                 3.4755
 Frc consts  --      1.0769                 2.3430                 2.4159
 IR Inten    --      3.2177                40.0816                18.1776

                     43                     44                     45
                      A                      A                      A
 Frequencies --   1104.2465              1125.0157              1126.0259
 Red. masses --      2.0587                 2.4740                 2.0408
 Frc consts  --      1.4790                 1.8449                 1.5246
 IR Inten    --      9.3155                47.4679                25.5970

                     46                     47                     48
                      A                      A                      A
 Frequencies --   1135.9422              1152.2426              1156.7087
 Red. masses --      3.7995                 3.7475                 2.0306
 Frc consts  --      2.8886                 2.9315                 1.6008
 IR Inten    --    227.3967               163.0135                 6.5922

                     49                     50                     51
                      A                      A                      A
 Frequencies --   1167.7795              1182.8563              1187.3091
 Red. masses --      2.1652                 1.5745                 1.4419
 Frc consts  --      1.7397                 1.2980                 1.1976
 IR Inten    --     62.6874                 6.6592                 3.0264

                     52                     53                     54
                      A                      A                      A
 Frequencies --   1193.6253              1210.8665              1232.8612
 Red. masses --      1.5748                 2.4642                 1.6225
 Frc consts  --      1.3219                 2.1287                 1.4530
 IR Inten    --     34.1158                19.9489                36.9690

                     55                     56                     57
                      A                      A                      A
 Frequencies --   1239.1240              1253.4740              1270.6927
 Red. masses --      1.5768                 1.4954                 1.4515
 Frc consts  --      1.4265                 1.3844                 1.3809
 IR Inten    --      8.7313                16.2362                 6.9879

                     58                     59                     60
                      A                      A                      A
 Frequencies --   1300.3341              1316.8022              1331.0835
 Red. masses --      1.8937                 1.8827                 1.4106
 Frc consts  --      1.8866                 1.9235                 1.4725
 IR Inten    --      8.5661                18.4379                14.4648

                     61                     62                     63
                      A                      A                      A
 Frequencies --   1351.3902              1401.4349              1403.7045
 Red. masses --      1.3104                 1.4701                 1.4579
 Frc consts  --      1.4100                 1.7012                 1.6925
 IR Inten    --      7.6029                 6.0333                 9.6643

                     64                     65                     66
                      A                      A                      A
 Frequencies --   1411.8837              1416.4064              1426.1402
 Red. masses --      1.1762                 2.2979                 1.5178
 Frc consts  --      1.3814                 2.7161                 1.8189
 IR Inten    --     13.2742                23.5323                 7.1856

                     67                     68                     69
                      A                      A                      A
 Frequencies --   1438.8897              1440.9682              1450.8763
 Red. masses --      1.2796                 1.2776                 2.4875
 Frc consts  --      1.5610                 1.5630                 3.0851
 IR Inten    --     15.1462                10.8170                 9.0465

                     70                     71                     72
                      A                      A                      A
 Frequencies --   1490.0419              1502.7635              1505.0519
 Red. masses --      1.1428                 1.1865                 1.2164
 Frc consts  --      1.4950                 1.5787                 1.6235
 IR Inten    --      0.7437                19.3720                 9.0208

                     73                     74                     75
                      A                      A                      A
 Frequencies --   1508.8400              1515.1929              1518.2497
 Red. masses --      1.5218                 1.0524                 1.0531
 Frc consts  --      2.0413                 1.4236                 1.4302
 IR Inten    --     38.0513                 1.1191                 9.8685

                     76                     77                     78
                      A                      A                      A
 Frequencies --   1522.2597              1524.0266              1527.6088
 Red. masses --      1.0744                 1.0632                 1.1938
 Frc consts  --      1.4669                 1.4550                 1.6414
 IR Inten    --      2.9502                 2.8665                11.6653

                     79                     80                     81
                      A                      A                      A
 Frequencies --   1529.7130              1540.2010              1544.5252
 Red. masses --      1.3323                 1.1607                 1.0537
 Frc consts  --      1.8368                 1.6222                 1.4811
 IR Inten    --     25.3830                13.8130                 8.1021

                     82                     83                     84
                      A                      A                      A
 Frequencies --   1545.3132              1547.2614              1606.4738
 Red. masses --      1.0544                 1.0819                 5.6307
 Frc consts  --      1.4835                 1.5261                 8.5616
 IR Inten    --      1.8397                 3.4667                 8.6218

                     85                     86                     87
                      A                      A                      A
 Frequencies --   2955.1728              3010.8719              3019.4680
 Red. masses --      1.0730                 1.0439                 1.0472
 Frc consts  --      5.5210                 5.5759                 5.6253
 IR Inten    --     62.0277                46.8989                66.9282

                     88                     89                     90
                      A                      A                      A
 Frequencies --   3032.1402              3044.0315              3063.3659
 Red. masses --      1.0802                 1.0407                 1.0366
 Frc consts  --      5.8513                 5.6817                 5.7316
 IR Inten    --     26.2391                21.0956                17.0958

                     91                     92                     93
                      A                      A                      A
 Frequencies --   3064.6506              3069.5036              3073.1467
 Red. masses --      1.0850                 1.0837                 1.0614
 Frc consts  --      6.0040                 6.0156                 5.9059
 IR Inten    --      0.3009                52.0098                26.7994

                     94                     95                     96
                      A                      A                      A
 Frequencies --   3087.4527              3103.5347              3105.8070
 Red. masses --      1.0961                 1.0881                 1.1003
 Frc consts  --      6.1558                 6.1750                 6.2533
 IR Inten    --     36.1479                42.5026                43.0776

                     97                     98                     99
                      A                      A                      A
 Frequencies --   3112.4289              3133.9068              3136.8876
 Red. masses --      1.1040                 1.1022                 1.1024
 Frc consts  --      6.3013                 6.3782                 6.3912
 IR Inten    --      5.8847                26.7888                29.5059

                    100                    101                    102
                      A                      A                      A
 Frequencies --   3138.0032              3147.1611              3148.6299
 Red. masses --      1.0991                 1.1033                 1.1051
 Frc consts  --      6.3768                 6.4384                 6.4551
 IR Inten    --     45.1744                24.6900                25.3108

                    103                    104                    105
                      A                      A                      A
 Frequencies --   3252.5836              3257.8315              3484.5750
 Red. masses --      1.0944                 1.0983                 1.0739
 Frc consts  --      6.8218                 6.8681                 7.6825
 IR Inten    --      7.4024                 4.0838                 0.3890

 - Thermochemistry -
 -------------------
 Temperature   298.150 Kelvin.  Pressure   1.00000 Atm.
 Atom     1 has atomic number  6 and mass  12.00000

 Molecular mass:   227.16338 amu.
 Principal axes and moments of inertia in atomic units:
                           1         2         3
     Eigenvalues --  1916.103746984.235658311.17610
           X            0.99985  -0.01639   0.00634
           Y            0.01635   0.99985   0.00608
           Z           -0.00643  -0.00598   0.99996
 This molecule is an asymmetric top.
 Rotational symmetry number  1.
 Warning -- assumption of classical behavior for rotation
           may cause significant error
 Rotational temperatures (Kelvin)      0.04520     0.01240     0.01042
 Rotational constants (GHZ):           0.94188     0.25840     0.21715
 Zero-point vibrational energy     855278.2 (Joules/Mol)
                                  204.41640 (Kcal/Mol)
 Warning -- explicit consideration of  25 degrees of freedom as
           vibrations may cause significant error
 Vibrational temperatures:     26.98    43.84    61.67    68.83   100.03
          (Kelvin)            132.31   136.96   169.53   186.97   240.27
                              258.27   293.22   306.19   319.45   338.99
                              394.43   423.59   437.99   509.07   533.35
                              575.47   598.61   688.22   698.27   745.56
                              908.06   923.30   973.87   981.23  1088.99
                             1122.84  1137.20  1160.68  1219.00  1294.00
                             1346.01  1360.18  1398.47  1405.73  1435.00
                             1449.24  1562.80  1588.76  1618.65  1620.10
                             1634.37  1657.82  1664.25  1680.17  1701.87
                             1708.27  1717.36  1742.17  1773.81  1782.82
                             1803.47  1828.24  1870.89  1894.58  1915.13
                             1944.35  2016.35  2019.62  2031.39  2037.89
                             2051.90  2070.24  2073.23  2087.49  2143.84
                             2162.14  2165.43  2170.88  2180.02  2184.42
                             2190.19  2192.73  2197.89  2200.92  2216.01
                             2222.23  2223.36  2226.16  2311.36  4251.83
                             4331.97  4344.34  4362.57  4379.68  4407.50
                             4409.35  4416.33  4421.57  4442.16  4465.29
                             4468.56  4478.09  4508.99  4513.28  4514.89
                             4528.06  4530.18  4679.74  4687.29  5013.53

 Zero-point correction=                           0.325758 (Hartree/Particle)
 Thermal correction to Energy=                    0.344033
 Thermal correction to Enthalpy=                  0.344977
 Thermal correction to Gibbs Free Energy=         0.277091
 Sum of electronic and zero-point Energies=           -746.211417
 Sum of electronic and thermal Energies=              -746.193142
 Sum of electronic and thermal Enthalpies=            -746.192198
 Sum of electronic and thermal Free Energies=         -746.260084

                     E (Thermal)             CV                S
                      KCal/Mol        Cal/Mol-Kelvin    Cal/Mol-Kelvin
 Total                  215.884             65.312            142.878
 Electronic               0.000              0.000              0.000
 Translational            0.889              2.981             42.164
 Rotational               0.889              2.981             33.075
 Vibrational            214.106             59.350             67.640
 Vibration     1          0.593              1.986              6.762
 Vibration     2          0.594              1.984              5.799
 Vibration     3          0.595              1.980              5.122
 Vibration     4          0.595              1.978              4.905
 Vibration     5          0.598              1.969              4.167
 Vibration     6          0.602              1.955              3.618
 Vibration     7          0.603              1.953              3.550
 Vibration     8          0.608              1.935              3.136
 Vibration     9          0.612              1.923              2.947
 Vibration    10          0.624              1.883              2.469
 Vibration    11          0.629              1.867              2.334
 Vibration    12          0.639              1.834              2.099
 Vibration    13          0.644              1.821              2.019
 Vibration    14          0.648              1.808              1.942
 Vibration    15          0.655              1.786              1.836
 Vibration    16          0.676              1.721              1.570
 Vibration    17          0.689              1.684              1.448
 Vibration    18          0.695              1.665              1.393
 Vibration    19          0.730              1.567              1.149
 Vibration    20          0.743              1.532              1.077
 Vibration    21          0.766              1.470              0.963
 Vibration    22          0.779              1.435              0.905
 Vibration    23          0.835              1.298              0.715
 Vibration    24          0.841              1.283              0.696
 Vibration    25          0.873              1.210              0.614

                           ! Non-Optimized Parameters !
 Normal termination of Gaussian 16 at Fri Dec 11 01:38:09 2020.

 ----------------------------------------------------------------------
 # B3LYP/6-311++G(d,p) empiricaldispersion=gd3bj scf=xqc pop=npa geom=c
 heck
 ----------------------------------------------------------------------

 --------------------------------------
 CID_66135508_JID_6983_Energie_neutraal
 --------------------------------------
 Structure from the checkpoint file:  "JID_6983.chk"
 Charge =  0 Multiplicity = 1

 SCF Done:  E(RB3LYP) =  -746.752256682     A.U. after   14 cycles
 Normal termination of Gaussian 16 at Fri Dec 11 01:43:29 2020.

 ----------------------------------------------------------------------
 # B3LYP/6-311++G(d,p) empiricaldispersion=gd3bj scf=xqc pop=npa geom=c
 heck
 ----------------------------------------------------------------------

 ------------------------------------
 CID_66135508_JID_6983_Energie_kation
 ------------------------------------
 Structure from the checkpoint file:  "JID_6983.chk"
 Charge =  1 Multiplicity = 2

 SCF Done:  E(UB3LYP) =  -746.459861482     A.U. after   28 cycles
 Normal termination of Gaussian 16 at Fri Dec 11 01:57:30 2020.
 Gaussian 16:  ES64L-G16RevA.03 25-Dec-2016

 ----------------------------------------------------------------------
 # B3LYP/6-311++G(d,p) empiricaldispersion=gd3bj scf=xqc pop=npa geom=c
 heck
 ----------------------------------------------------------------------

 -----------------------------------
 CID_66135508_JID_6983_Energie_anion
 -----------------------------------
 Structure from the checkpoint file:  "JID_6983.chk"
 Charge = -1 Multiplicity = 2

                         Standard orientation:
 ---------------------------------------------------------------------
 Center     Atomic      Atomic             Coordinates (Angstroms)
 Number     Number       Type             X           Y           Z
 ---------------------------------------------------------------------
      1          6           0        2.534606   -2.263992    1.018273
      2          6           0        3.283922   -1.627026   -0.152652
      3          7           0        3.151321   -0.176705   -0.190920
      4          6           0        4.106943    0.720308    0.204335
      5          7           0        3.696209    1.967723    0.107827
      6          6           0        2.409544    1.879651   -0.370425
      7          6           0        2.038266    0.568656   -0.569386
      8          6           0        0.746027   -0.027146   -1.026594
      9          7           0       -0.286876    0.087966    0.008244
     10          6           0       -1.540040   -0.614110   -0.291277
     11          6           0       -1.495056   -2.116514    0.010945
     12          6           0       -2.655611    0.105962    0.490675
     13          8           0       -2.823321    1.399708   -0.038784
     14          6           0       -2.406716    2.458537    0.805696
     15          8           0       -3.880079   -0.591058    0.496066
     16          6           0       -4.554500   -0.634879   -0.754456
     17          1           0        2.883150   -1.847317    1.968601
     18          1           0        2.700325   -3.346588    1.031223
     19          1           0        1.457576   -2.089065    0.940967
     20          1           0        4.353752   -1.845478   -0.083506
     21          1           0        2.934919   -2.039458   -1.105076
     22          1           0        5.083516    0.396028    0.540406
     23          1           0        1.810867    2.762213   -0.552974
     24          1           0        0.384262    0.519790   -1.905259
     25          1           0        0.913577   -1.066790   -1.361319
     26          1           0        0.088411   -0.233001    0.899550
     27          1           0       -1.738843   -0.455483   -1.357775
     28          1           0       -1.362236   -2.286576    1.087181
     29          1           0       -2.418987   -2.619704   -0.286434
     30          1           0       -0.660077   -2.593948   -0.514517
     31          1           0       -2.370729    0.156839    1.551002
     32          1           0       -2.921019    2.425346    1.777937
     33          1           0       -1.322043    2.428862    0.962618
     34          1           0       -2.674985    3.388990    0.298108
     35          1           0       -4.723018    0.371872   -1.149198
     36          1           0       -4.005289   -1.225547   -1.502246
     37          1           0       -5.514827   -1.119764   -0.564414
 ---------------------------------------------------------------------

 SCF Done:  E(UB3LYP) =  -746.742409265     A.U. after   33 cycles
 SCF Done:  E(UB3LYP) =  -746.742409265     a.u. after    1 cycles

 The electronic state is 2-A.
 Alpha  occ. eigenvalues --  -19.04386 -19.04367 -14.27583 -14.21306 -14.19906
 Alpha  occ. eigenvalues --  -10.18225 -10.13193 -10.12513 -10.12465 -10.12161
 Alpha  occ. eigenvalues --  -10.11677 -10.11248 -10.10773 -10.08696 -10.07284
 Alpha  occ. eigenvalues --  -10.06774  -0.98814  -0.92821  -0.92401  -0.82588
 Alpha  occ. eigenvalues --   -0.79429  -0.69807  -0.67121  -0.65156  -0.63153
 Alpha  occ. eigenvalues --   -0.60817  -0.58330  -0.55827  -0.54484  -0.50646
 Alpha  occ. eigenvalues --   -0.50122  -0.46371  -0.43507  -0.43132  -0.42457
 Alpha  occ. eigenvalues --   -0.40332  -0.39003  -0.37293  -0.36945  -0.35662
 Alpha  occ. eigenvalues --   -0.35052  -0.34794  -0.34281  -0.33740  -0.31725
 Alpha  occ. eigenvalues --   -0.31386  -0.31348  -0.31069  -0.29594  -0.29187
 Alpha  occ. eigenvalues --   -0.28311  -0.28127  -0.26922  -0.26499  -0.26291
 Alpha  occ. eigenvalues --   -0.23466  -0.18863  -0.18464  -0.17977  -0.17859
 Alpha  occ. eigenvalues --   -0.14329  -0.13348   0.04091
 Alpha virt. eigenvalues --    0.05839   0.06598   0.07226   0.07519   0.08435
 Alpha virt. eigenvalues --    0.08866   0.09514   0.09603   0.10191   0.10350
 Alpha virt. eigenvalues --    0.10630   0.10951   0.11443   0.12424   0.12460

  Beta  occ. eigenvalues --  -19.04382 -19.04363 -14.27586 -14.21301 -14.19903
  Beta  occ. eigenvalues --  -10.18224 -10.13189 -10.12498 -10.12442 -10.12113
  Beta  occ. eigenvalues --  -10.11657 -10.11242 -10.10770 -10.08694 -10.07237
  Beta  occ. eigenvalues --  -10.06739  -0.98808  -0.92814  -0.92392  -0.82574
  Beta  occ. eigenvalues --   -0.79412  -0.69784  -0.67076  -0.65129  -0.63120
  Beta  occ. eigenvalues --   -0.60794  -0.58289  -0.55728  -0.54447  -0.50632
  Beta  occ. eigenvalues --   -0.50093  -0.46323  -0.43463  -0.43109  -0.42441
  Beta  occ. eigenvalues --   -0.40315  -0.38962  -0.37262  -0.36927  -0.35631
  Beta  occ. eigenvalues --   -0.35019  -0.34766  -0.34254  -0.33714  -0.31706
  Beta  occ. eigenvalues --   -0.31361  -0.31317  -0.31035  -0.29564  -0.29126
  Beta  occ. eigenvalues --   -0.28268  -0.28079  -0.26886  -0.26463  -0.26268
  Beta  occ. eigenvalues --   -0.23448  -0.18853  -0.18457  -0.17967  -0.17842
  Beta  occ. eigenvalues --   -0.14316  -0.13329
  Beta virt. eigenvalues --    0.06027   0.06809   0.07092   0.07494   0.08332
  Beta virt. eigenvalues --    0.08751   0.09249   0.09674   0.09827   0.10298
  Beta virt. eigenvalues --    0.10509   0.11193   0.11347   0.11698   0.12442

 Mulliken charges and spin densities:
               1          2
     1  C    1.028217  -1.420773
     2  C   -0.212324  -0.106276
     3  N    0.088302   0.076795
     4  C    0.284052  -0.196054
     5  N   -0.154177   0.035400
     6  C   -0.008599  -0.386713
     7  C   -0.546503   1.183691
     8  C    0.097776  -1.342364
     9  N    0.140701  -0.014950
    10  C   -0.964942   0.617801
    11  C    0.811409  -1.275738
    12  C   -0.501486  -0.099030
    13  O   -0.060633   0.005360
    14  C   -0.194827  -0.102435
    15  O   -0.042817   0.028607
    16  C    0.405574  -0.617610
    17  H   -0.193891   0.342748
    18  H   -0.677002   0.830819
    19  H    0.785101  -0.603808
    20  H   -0.568706   0.750944
    21  H   -0.553561   0.728542
    22  H   -0.219343   0.379636
    23  H    0.144987  -0.020459
    24  H    0.002178   0.168837
    25  H    0.190611  -0.045442
    26  H    0.177497   0.038545
    27  H    0.219321   0.008128
    28  H   -0.083295   0.251769
    29  H   -0.237620   0.393858
    30  H   -0.346371   0.500712
    31  H    0.097537   0.103210
    32  H    0.079648   0.044252
    33  H    0.170163   0.015738
    34  H    0.064240   0.061536
    35  H    0.070078   0.081150
    36  H   -0.222756   0.355435
    37  H   -0.068539   0.228139
 Sum of Mulliken charges =  -1.00000   1.00000

 Dipole moment (field-independent basis, Debye):
    X=             -5.7454    Y=              6.8077    Z=              0.8735  Tot=              8.9509
 Quadrupole moment (field-independent basis, Debye-Ang):
   XX=           -196.3346   YY=           -163.6886   ZZ=           -127.4935
   XY=              3.3168   XZ=             -4.3057   YZ=             -2.0908

 Summary of Natural Population Analysis:

                                       Natural Population
                Natural  -----------------------------------------------
    Atom  No    Charge         Core      Valence    Rydberg      Total
 -----------------------------------------------------------------------
      C    1   -0.28817      0.99965     2.28272    0.00580     3.28817
      C    2   -0.08465      0.99962     2.07315    0.01188     3.08465
      N    3   -0.20560      0.99962     2.69471    0.01127     3.70560
      C    4    0.10512      0.99963     1.87750    0.01775     2.89488
      N    5   -0.25881      0.99973     2.74863    0.01045     3.75881
      C    6   -0.02824      0.99951     2.01601    0.01272     3.02824
      C    7    0.05282      0.99951     1.93517    0.01249     2.94718
      C    8   -0.10295      0.99959     2.09282    0.01054     3.10295
      N    9   -0.33915      0.99974     2.82893    0.01049     3.83915
      C   10   -0.03146      0.99957     2.01968    0.01220     3.03146
      C   11   -0.29718      0.99964     2.29062    0.00691     3.29718
      C   12    0.22894      0.99952     1.75113    0.02041     2.77106
      O   13   -0.30554      0.99987     3.29675    0.00893     4.30554
      C   14   -0.09696      0.99961     2.08938    0.00797     3.09696
      O   15   -0.30085      0.99988     3.29143    0.00954     4.30085
      C   16   -0.10685      0.99959     2.09741    0.00985     3.10685
      H   17    0.09908      0.00000     0.39969    0.00123     0.40092
      H   18    0.10939      0.00000     0.38781    0.00281     0.39061
      H   19    0.09617      0.00000     0.40198    0.00186     0.40383
      H   20    0.10481      0.00000     0.39201    0.00318     0.39519
      H   21    0.10264      0.00000     0.39486    0.00250     0.39736
      H   22    0.09347      0.00000     0.40502    0.00151     0.40653
      H   23    0.09573      0.00000     0.40317    0.00110     0.40427
      H   24    0.10067      0.00000     0.39811    0.00122     0.39933
      H   25    0.09185      0.00000     0.40628    0.00187     0.40815
      H   26    0.17142      0.00000     0.32537    0.00321     0.32858
      H   27    0.09614      0.00000     0.40149    0.00237     0.40386
      H   28    0.09686      0.00000     0.40187    0.00127     0.40314
      H   29    0.10635      0.00000     0.39244    0.00121     0.39365
      H   30    0.10441      0.00000     0.39407    0.00152     0.39559
      H   31    0.07743      0.00000     0.42083    0.00173     0.42257
      H   32    0.07633      0.00000     0.42236    0.00131     0.42367
      H   33    0.09095      0.00000     0.40758    0.00147     0.40905
      H   34    0.08711      0.00000     0.41198    0.00091     0.41289
      H   35    0.08865      0.00000     0.40998    0.00138     0.41135
      H   36    0.08060      0.00000     0.41811    0.00129     0.41940
      H   37    0.08949      0.00000     0.40950    0.00101     0.41051
 =======================================================================
   * Total *   -0.00000     15.99430    45.79054    0.21516    62.00000

 Normal termination of Gaussian 16 at Fri Dec 11 02:13:33 2020.
