 Gaussian 16, Revision A.03,

 -----------------------------------------------------------
 # opt freq B3LYP/6-31G(d) empiricaldispersion=gd3bj scf=xqc
 -----------------------------------------------------------

 -------------------------------
 CID_114126817_JID_8838_neutraal
 -------------------------------
 Symbolic Z-matrix:
 Charge =  0 Multiplicity = 1

 SCF Done:  E(RB3LYP) =  -1114.88458465     A.U. after   14 cycles
 SCF Done:  E(RB3LYP) =  -1114.50751549     A.U. after   16 cycles
 SCF Done:  E(RB3LYP) =  -1114.88892241     A.U. after   13 cycles
 SCF Done:  E(RB3LYP) =  -1114.89058993     A.U. after   12 cycles
 SCF Done:  E(RB3LYP) =  -1114.89175219     A.U. after   12 cycles
 SCF Done:  E(RB3LYP) =  -1114.89282668     A.U. after   12 cycles
 SCF Done:  E(RB3LYP) =  -1114.89362112     A.U. after   11 cycles
 SCF Done:  E(RB3LYP) =  -1114.89398978     A.U. after   11 cycles
 SCF Done:  E(RB3LYP) =  -1114.89413219     A.U. after   11 cycles
 SCF Done:  E(RB3LYP) =  -1114.89423373     A.U. after   11 cycles
 SCF Done:  E(RB3LYP) =  -1114.89448886     A.U. after    9 cycles
 SCF Done:  E(RB3LYP) =  -1114.89449024     A.U. after    8 cycles
 SCF Done:  E(RB3LYP) =  -1114.89449027     A.U. after    7 cycles
 SCF Done:  E(RB3LYP) =  -1114.89449029     A.U. after    7 cycles
 SCF Done:  E(RB3LYP) =  -1114.89449035     A.U. after    7 cycles
 Optimization completed.
    -- Stationary point found.
 Normal termination of Gaussian 16 at Fri Dec 11 22:30:28 2020.

 --------------------------------------------------------------------
 #N Geom=AllCheck Guess=TCheck SCRF=Check GenChk RB3LYP/6-31G(d) Freq
 --------------------------------------------------------------------

 Structure from the checkpoint file:  "JID_8838.chk"
 -------------------------------
 CID_114126817_JID_8838_neutraal
 -------------------------------
 Charge =  0 Multiplicity = 1

 SCF Done:  E(RB3LYP) =  -1114.89449035     A.U. after    1 cycles

  Exact polarizability: 184.774 -23.667 189.523   0.770   4.823 156.701
 Approx polarizability: 241.668 -49.319 277.475   6.202   8.026 281.710

                      1                      2                      3
                      A                      A                      A
 Frequencies --     17.0486                35.9029                39.0924
 Red. masses --      4.5492                 3.3815                 5.2417
 Frc consts  --      0.0008                 0.0026                 0.0047
 IR Inten    --      0.0840                 0.3393                 0.0958

                      4                      5                      6
                      A                      A                      A
 Frequencies --     45.3118                66.3459                75.2284
 Red. masses --      4.3613                 3.6066                 4.2487
 Frc consts  --      0.0053                 0.0094                 0.0142
 IR Inten    --      2.3154                 0.2311                 1.3632

                      7                      8                      9
                      A                      A                      A
 Frequencies --    103.2791               112.1207               138.6474
 Red. masses --      2.8889                 3.2041                 2.9897
 Frc consts  --      0.0182                 0.0237                 0.0339
 IR Inten    --      0.4582                 0.2726                 0.6925

                     10                     11                     12
                      A                      A                      A
 Frequencies --    155.3109               167.3652               179.2864
 Red. masses --      2.4081                 2.1915                 3.1768
 Frc consts  --      0.0342                 0.0362                 0.0602
 IR Inten    --      0.0846                 0.7251                 0.3894

                     13                     14                     15
                      A                      A                      A
 Frequencies --    196.8191               207.6395               227.4746
 Red. masses --      1.6720                 2.2022                 2.0745
 Frc consts  --      0.0382                 0.0559                 0.0632
 IR Inten    --      2.9113                 1.0248                 0.9266

                     16                     17                     18
                      A                      A                      A
 Frequencies --    236.0380               262.9253               274.3739
 Red. masses --      2.0652                 1.7876                 2.3577
 Frc consts  --      0.0678                 0.0728                 0.1046
 IR Inten    --      1.3969                 1.5134                 0.6577

                     19                     20                     21
                      A                      A                      A
 Frequencies --    337.1502               354.4531               363.0743
 Red. masses --      2.0497                 2.3055                 1.3152
 Frc consts  --      0.1373                 0.1707                 0.1021
 IR Inten    --      1.3695                21.5873               121.6498

                     22                     23                     24
                      A                      A                      A
 Frequencies --    380.1808               415.4699               420.5451
 Red. masses --      3.1326                 3.3602                 3.0472
 Frc consts  --      0.2668                 0.3417                 0.3175
 IR Inten    --      5.8561                 2.2778                 0.7012

                     25                     26                     27
                      A                      A                      A
 Frequencies --    433.5711               453.6170               491.6976
 Red. masses --      4.2091                 2.9702                 2.6821
 Frc consts  --      0.4662                 0.3601                 0.3821
 IR Inten    --      4.3469                 4.5332                 0.9165

                     28                     29                     30
                      A                      A                      A
 Frequencies --    527.2195               558.7741               572.6201
 Red. masses --      2.1162                 3.1318                 2.1371
 Frc consts  --      0.3466                 0.5761                 0.4129
 IR Inten    --      7.3853                 3.8665                12.0132

                     31                     32                     33
                      A                      A                      A
 Frequencies --    657.3976               672.3577               680.4616
 Red. masses --      6.7676                 2.6256                 2.3684
 Frc consts  --      1.7232                 0.6993                 0.6461
 IR Inten    --      2.1764                24.1311                83.0021

                     34                     35                     36
                      A                      A                      A
 Frequencies --    725.1231               728.4945               753.9272
 Red. masses --      2.3641                 5.5716                 2.4313
 Frc consts  --      0.7324                 1.7421                 0.8142
 IR Inten    --      5.0887                 0.6820                13.6726

                     37                     38                     39
                      A                      A                      A
 Frequencies --    774.9875               811.6665               831.7932
 Red. masses --      1.5969                 1.3613                 1.7364
 Frc consts  --      0.5651                 0.5284                 0.7078
 IR Inten    --     28.0585                15.9654                 2.2884

                     40                     41                     42
                      A                      A                      A
 Frequencies --    837.9383               846.6203               848.1698
 Red. masses --      1.5910                 1.7750                 2.1703
 Frc consts  --      0.6582                 0.7496                 0.9199
 IR Inten    --     26.6858                14.7701                 0.3877

                     43                     44                     45
                      A                      A                      A
 Frequencies --    868.0230               894.6777               920.7166
 Red. masses --      2.7608                 2.0766                 1.4970
 Frc consts  --      1.2256                 0.9794                 0.7477
 IR Inten    --     21.0115                21.0333                 3.0573

                     46                     47                     48
                      A                      A                      A
 Frequencies --    930.6299               952.8501               956.9790
 Red. masses --      1.5118                 1.5892                 1.4801
 Frc consts  --      0.7714                 0.8501                 0.7986
 IR Inten    --      0.9939                 2.7393                 0.7063

                     49                     50                     51
                      A                      A                      A
 Frequencies --    976.5985               997.4722              1013.1061
 Red. masses --      1.4743                 1.2296                 1.4304
 Frc consts  --      0.8285                 0.7208                 0.8650
 IR Inten    --      2.8217                 9.2502                 7.3272

                     52                     53                     54
                      A                      A                      A
 Frequencies --   1035.0518              1042.8548              1065.5208
 Red. masses --      2.7783                 2.3725                 1.8413
 Frc consts  --      1.7537                 1.5202                 1.2317
 IR Inten    --      0.1663                 0.3670                 5.4926

                     55                     56                     57
                      A                      A                      A
 Frequencies --   1087.6802              1099.0677              1105.7485
 Red. masses --      2.0092                 1.8004                 2.1609
 Frc consts  --      1.4005                 1.2813                 1.5567
 IR Inten    --      1.2310                 1.2181                 6.7999

                     58                     59                     60
                      A                      A                      A
 Frequencies --   1118.6930              1133.3853              1149.5339
 Red. masses --      2.1738                 1.5838                 1.5387
 Frc consts  --      1.6029                 1.1987                 1.1980
 IR Inten    --     13.2582                 7.7993                17.4336

                     61                     62                     63
                      A                      A                      A
 Frequencies --   1161.6454              1191.5634              1207.0326
 Red. masses --      1.8424                 1.5945                 1.1787
 Frc consts  --      1.4648                 1.3339                 1.0118
 IR Inten    --     28.0944                11.9108                54.5336

                     64                     65                     66
                      A                      A                      A
 Frequencies --   1210.0362              1215.9669              1229.8388
 Red. masses --      1.4127                 1.5757                 2.3761
 Frc consts  --      1.2187                 1.3727                 2.1174
 IR Inten    --    131.9161                 9.2098                 5.6959

                     67                     68                     69
                      A                      A                      A
 Frequencies --   1271.7728              1280.7316              1303.1944
 Red. masses --      1.2988                 1.3743                 3.1565
 Frc consts  --      1.2377                 1.3281                 3.1585
 IR Inten    --      1.9693                 2.7373                84.1300

                     70                     71                     72
                      A                      A                      A
 Frequencies --   1304.0358              1325.3204              1336.3207
 Red. masses --      1.2987                 1.3136                 1.3868
 Frc consts  --      1.3011                 1.3594                 1.4591
 IR Inten    --      1.1786                 4.8358                 9.8274

                     73                     74                     75
                      A                      A                      A
 Frequencies --   1337.3368              1356.1769              1368.7504
 Red. masses --      1.2140                 1.3010                 1.2594
 Frc consts  --      1.2792                 1.4098                 1.3902
 IR Inten    --     25.0825                 6.5168                 2.1788

                     76                     77                     78
                      A                      A                      A
 Frequencies --   1386.0185              1389.2303              1393.4829
 Red. masses --      2.2983                 1.4341                 1.1783
 Frc consts  --      2.6013                 1.6307                 1.3480
 IR Inten    --     25.9760                 3.0956                 2.3747

                     79                     80                     81
                      A                      A                      A
 Frequencies --   1404.8821              1406.8467              1416.2019
 Red. masses --      1.3936                 1.3684                 1.3235
 Frc consts  --      1.6205                 1.5957                 1.5639
 IR Inten    --      4.2255                10.8434                14.4894

                     82                     83                     84
                      A                      A                      A
 Frequencies --   1429.1403              1440.5607              1490.3500
 Red. masses --      1.3932                 1.2517                 2.5005
 Frc consts  --      1.6765                 1.5304                 3.2723
 IR Inten    --      4.8776                 3.5056                18.5707

                     85                     86                     87
                      A                      A                      A
 Frequencies --   1499.5549              1505.2000              1508.9516
 Red. masses --      1.0591                 1.0802                 1.1087
 Frc consts  --      1.4032                 1.4419                 1.4873
 IR Inten    --     24.1882                 1.0665                14.6220

                     88                     89                     90
                      A                      A                      A
 Frequencies --   1512.3928              1516.8276              1517.9952
 Red. masses --      1.0703                 1.1014                 1.0824
 Frc consts  --      1.4424                 1.4930                 1.4696
 IR Inten    --      3.3024                 2.5476                 2.1838

                     91                     92                     93
                      A                      A                      A
 Frequencies --   1519.0325              1524.7727              1526.5122
 Red. masses --      1.0894                 1.1253                 1.1187
 Frc consts  --      1.4811                 1.5415                 1.5359
 IR Inten    --      3.1065                21.4338                16.3791

                     94                     95                     96
                      A                      A                      A
 Frequencies --   1529.4269              1537.9437              1565.0704
 Red. masses --      1.0641                 1.0640                 2.6017
 Frc consts  --      1.4665                 1.4827                 3.7546
 IR Inten    --      5.6617                 3.5264                54.6445

                     97                     98                     99
                      A                      A                      A
 Frequencies --   1654.0539              1677.6506              3010.5423
 Red. masses --      5.7863                 5.9601                 1.0679
 Frc consts  --      9.3273                 9.8833                 5.7028
 IR Inten    --     14.9078                34.5067                13.3671

                    100                    101                    102
                      A                      A                      A
 Frequencies --   3020.6391              3022.2640              3027.5106
 Red. masses --      1.0698                 1.0653                 1.0768
 Frc consts  --      5.7510                 5.7333                 5.8149
 IR Inten    --     39.0498                49.7593                13.1361

                    103                    104                    105
                      A                      A                      A
 Frequencies --   3032.2735              3038.9392              3046.8544
 Red. masses --      1.0633                 1.0726                 1.0391
 Frc consts  --      5.7600                 5.8360                 5.6836
 IR Inten    --     51.4265                23.7549                35.6697

                    106                    107                    108
                      A                      A                      A
 Frequencies --   3051.6391              3053.2215              3065.8300
 Red. masses --      1.0342                 1.0581                 1.0982
 Frc consts  --      5.6742                 5.8117                 6.0817
 IR Inten    --     33.0078                24.6276                39.9774

                    109                    110                    111
                      A                      A                      A
 Frequencies --   3067.6570              3086.3065              3089.9883
 Red. masses --      1.0968                 1.0925                 1.0953
 Frc consts  --      6.0814                 6.1313                 6.1616
 IR Inten    --     21.3184                22.3567                19.4929

                    112                    113                    114
                      A                      A                      A
 Frequencies --   3098.6697              3104.8701              3109.6906
 Red. masses --      1.1057                 1.0964                 1.1011
 Frc consts  --      6.2551                 6.2272                 6.2732
 IR Inten    --     32.2274                59.0236                39.9613

                    115                    116                    117
                      A                      A                      A
 Frequencies --   3125.4380              3127.9767              3160.2513
 Red. masses --      1.1073                 1.1016                 1.0875
 Frc consts  --      6.3731                 6.3506                 6.3993
 IR Inten    --     24.5731                47.1288                21.5984

                    118                    119                    120
                      A                      A                      A
 Frequencies --   3167.7701              3175.2895              3182.8977
 Red. masses --      1.1016                 1.0882                 1.0930
 Frc consts  --      6.5132                 6.4644                 6.5240
 IR Inten    --      3.0878                11.8981                15.4509

                    121                    122                    123
                      A                      A                      A
 Frequencies --   3221.5754              3505.4565              3750.4938
 Red. masses --      1.0929                 1.0732                 1.0659
 Frc consts  --      6.6831                 7.7698                 8.8336
 IR Inten    --      5.3943                 0.5284                40.8711

 - Thermochemistry -
 -------------------
 Temperature   298.150 Kelvin.  Pressure   1.00000 Atm.
 Atom     1 has atomic number  6 and mass  12.00000

 Molecular mass:   267.16569 amu.
 Principal axes and moments of inertia in atomic units:
                           1         2         3
     Eigenvalues --  3981.022505975.082118856.31382
           X            0.99982   0.01619  -0.00992
           Y           -0.01614   0.99986   0.00514
           Z            0.01001  -0.00497   0.99994
 This molecule is an asymmetric top.
 Rotational symmetry number  1.
 Warning -- assumption of classical behavior for rotation
           may cause significant error
 Rotational temperatures (Kelvin)      0.02176     0.01450     0.00978
 Rotational constants (GHZ):           0.45334     0.30204     0.20378
 Zero-point vibrational energy     999850.7 (Joules/Mol)
                                  238.97004 (Kcal/Mol)
 Warning -- explicit consideration of  30 degrees of freedom as
           vibrations may cause significant error
 Vibrational temperatures:     24.53    51.66    56.25    65.19    95.46
          (Kelvin)            108.24   148.60   161.32   199.48   223.46
                              240.80   257.95   283.18   298.75   327.29
                              339.61   378.29   394.76   485.08   509.98
                              522.38   547.00   597.77   605.07   623.81
                              652.65   707.44   758.55   803.95   823.87
                              945.85   967.37   979.03  1043.29  1048.14
                             1084.73  1115.03  1167.81  1196.76  1205.61
                             1218.10  1220.33  1248.89  1287.24  1324.71
                             1338.97  1370.94  1376.88  1405.11  1435.14
                             1457.63  1489.21  1500.44  1533.05  1564.93
                             1581.31  1590.93  1609.55  1630.69  1653.92
                             1671.35  1714.39  1736.65  1740.97  1749.51
                             1769.46  1829.80  1842.69  1875.01  1876.22
                             1906.84  1922.67  1924.13  1951.24  1969.33
                             1994.17  1998.79  2004.91  2021.31  2024.14
                             2037.60  2056.21  2072.65  2144.28  2157.53
                             2165.65  2171.04  2176.00  2182.38  2184.06
                             2185.55  2193.81  2196.31  2200.50  2212.76
                             2251.79  2379.81  2413.77  4331.50  4346.03
                             4348.36  4355.91  4362.77  4372.36  4383.74
                             4390.63  4392.90  4411.05  4413.67  4440.51
                             4445.80  4458.29  4467.22  4474.15  4496.81
                             4500.46  4546.90  4557.71  4568.53  4579.48
                             4635.13  5043.57  5396.12

 Zero-point correction=                           0.380823 (Hartree/Particle)
 Thermal correction to Energy=                    0.401112
 Thermal correction to Enthalpy=                  0.402057
 Thermal correction to Gibbs Free Energy=         0.330305
 Sum of electronic and zero-point Energies=          -1114.513667
 Sum of electronic and thermal Energies=             -1114.493378
 Sum of electronic and thermal Enthalpies=           -1114.492434
 Sum of electronic and thermal Free Energies=        -1114.564186

                     E (Thermal)             CV                S
                      KCal/Mol        Cal/Mol-Kelvin    Cal/Mol-Kelvin
 Total                  251.702             75.991            151.014
 Electronic               0.000              0.000              0.000
 Translational            0.889              2.981             42.647
 Rotational               0.889              2.981             33.710
 Vibrational            249.924             70.029             74.658
 Vibration     1          0.593              1.986              6.951
 Vibration     2          0.594              1.982              5.473
 Vibration     3          0.594              1.981              5.305
 Vibration     4          0.595              1.979              5.012
 Vibration     5          0.598              1.970              4.259
 Vibration     6          0.599              1.966              4.012
 Vibration     7          0.605              1.947              3.391
 Vibration     8          0.607              1.939              3.232
 Vibration     9          0.614              1.915              2.822
 Vibration    10          0.620              1.897              2.606
 Vibration    11          0.624              1.883              2.465
 Vibration    12          0.629              1.868              2.336
 Vibration    13          0.636              1.844              2.163
 Vibration    14          0.641              1.829              2.064
 Vibration    15          0.651              1.799              1.899
 Vibration    16          0.655              1.786              1.833
 Vibration    17          0.670              1.741              1.642
 Vibration    18          0.677              1.721              1.568
 Vibration    19          0.718              1.601              1.226
 Vibration    20          0.730              1.566              1.146
 Vibration    21          0.737              1.548              1.109
 Vibration    22          0.750              1.512              1.038
 Vibration    23          0.779              1.437              0.907
 Vibration    24          0.783              1.426              0.890
 Vibration    25          0.794              1.397              0.847
 Vibration    26          0.812              1.353              0.785
 Vibration    27          0.847              1.268              0.679
 Vibration    28          0.882              1.190              0.593
 Vibration    29          0.914              1.121              0.526
 Vibration    30          0.929              1.090              0.499

                           ! Non-Optimized Parameters !
 Normal termination of Gaussian 16 at Fri Dec 11 22:53:15 2020.

 ----------------------------------------------------------------------
 # B3LYP/6-311++G(d,p) empiricaldispersion=gd3bj scf=xqc pop=npa geom=c
 heck
 ----------------------------------------------------------------------

 ---------------------------------------
 CID_114126817_JID_8838_Energie_neutraal
 ---------------------------------------
 Structure from the checkpoint file:  "JID_8838.chk"
 Charge =  0 Multiplicity = 1

 SCF Done:  E(RB3LYP) =  -1115.12757991     A.U. after   15 cycles
 Normal termination of Gaussian 16 at Fri Dec 11 23:04:52 2020.

 ----------------------------------------------------------------------
 # B3LYP/6-311++G(d,p) empiricaldispersion=gd3bj scf=xqc pop=npa geom=c
 heck
 ----------------------------------------------------------------------

 -------------------------------------
 CID_114126817_JID_8838_Energie_kation
 -------------------------------------
 Structure from the checkpoint file:  "JID_8838.chk"
 Charge =  1 Multiplicity = 2

 SCF Done:  E(UB3LYP) =  -1114.85892145     A.U. after   30 cycles
 Normal termination of Gaussian 16 at Fri Dec 11 23:37:20 2020.
 Gaussian 16:  ES64L-G16RevA.03 25-Dec-2016

 ----------------------------------------------------------------------
 # B3LYP/6-311++G(d,p) empiricaldispersion=gd3bj scf=xqc pop=npa geom=c
 heck
 ----------------------------------------------------------------------

 ------------------------------------
 CID_114126817_JID_8838_Energie_anion
 ------------------------------------
 Structure from the checkpoint file:  "JID_8838.chk"
 Charge = -1 Multiplicity = 2

                         Standard orientation:
 ---------------------------------------------------------------------
 Center     Atomic      Atomic             Coordinates (Angstroms)
 Number     Number       Type             X           Y           Z
 ---------------------------------------------------------------------
      1          6           0        4.512092    1.069095   -0.099934
      2          6           0        3.888261   -0.248511   -0.562704
      3          6           0        2.617930   -0.644328    0.215631
      4          6           0        1.562315    0.453316    0.137262
      5          6           0        1.160736    1.156488    1.274157
      6          6           0        0.234794    2.199393    1.196524
      7          6           0       -0.298991    2.558155   -0.041321
      8          6           0        0.082126    1.861768   -1.191727
      9          6           0        1.002384    0.826620   -1.093645
     10          8           0       -1.204218    3.578162   -0.191107
     11          7           0        2.201980   -1.978076   -0.228638
     12          6           0        1.341309   -2.745190    0.667091
     13          6           0       -0.144142   -2.356267    0.782024
     14          6           0       -0.905453   -2.467563   -0.545474
     15          6           0       -2.425870   -2.599031   -0.372011
     16          6           0       -3.094480   -1.437579    0.368886
     17         16           0       -3.036207    0.098275   -0.633081
     18          6           0       -3.457728    1.308743    0.661902
     19          1           0        3.827855    1.910293   -0.250040
     20          1           0        5.434929    1.279841   -0.651194
     21          1           0        4.762637    1.031937    0.967694
     22          1           0        3.643392   -0.184759   -1.632473
     23          1           0        4.602867   -1.072136   -0.457869
     24          1           0        2.900348   -0.754047    1.271660
     25          1           0        1.582488    0.892824    2.241300
     26          1           0       -0.060889    2.737924    2.095405
     27          1           0       -0.355061    2.141821   -2.143967
     28          1           0        1.294724    0.300737   -1.999644
     29          1           0       -1.355123    3.987123    0.675088
     30          1           0        1.803389   -1.934677   -1.164022
     31          1           0        1.392156   -3.794488    0.342135
     32          1           0        1.803857   -2.709322    1.661881
     33          1           0       -0.601448   -3.034424    1.518925
     34          1           0       -0.237914   -1.341750    1.183548
     35          1           0       -0.679439   -1.597661   -1.173070
     36          1           0       -0.551927   -3.354273   -1.091878
     37          1           0       -2.902102   -2.722714   -1.353419
     38          1           0       -2.639097   -3.518080    0.191718
     39          1           0       -4.138804   -1.682409    0.592527
     40          1           0       -2.584290   -1.246334    1.319396
     41          1           0       -4.465502    1.144038    1.055522
     42          1           0       -2.728510    1.261571    1.477544
     43          1           0       -3.401022    2.297126    0.201880
 ---------------------------------------------------------------------

 SCF Done:  E(UB3LYP) =  -1115.11686460     A.U. after   33 cycles
 SCF Done:  E(UB3LYP) =  -1115.11686460     a.u. after    1 cycles

 The electronic state is 2-A.
 Alpha  occ. eigenvalues --  -88.73505 -19.05099 -14.20699 -10.13644 -10.11175
 Alpha  occ. eigenvalues --  -10.10218 -10.10138 -10.08717 -10.08605 -10.08200
 Alpha  occ. eigenvalues --  -10.07902 -10.07837 -10.07752 -10.07746 -10.07637
 Alpha  occ. eigenvalues --  -10.07376 -10.07194 -10.07001  -7.82135  -5.78539
 Alpha  occ. eigenvalues --   -5.78180  -5.77479  -0.96077  -0.82105  -0.75850
 Alpha  occ. eigenvalues --   -0.72811  -0.70054  -0.67963  -0.65568  -0.64792
 Alpha  occ. eigenvalues --   -0.63921  -0.59461  -0.57014  -0.53764  -0.53007
 Alpha  occ. eigenvalues --   -0.51150  -0.50223  -0.48891  -0.46510  -0.44917
 Alpha  occ. eigenvalues --   -0.41341  -0.39134  -0.38546  -0.37527  -0.36788
 Alpha  occ. eigenvalues --   -0.36002  -0.35207  -0.34173  -0.33502  -0.32954
 Alpha  occ. eigenvalues --   -0.32886  -0.32516  -0.31461  -0.31145  -0.30373
 Alpha  occ. eigenvalues --   -0.30056  -0.28945  -0.28465  -0.27994  -0.26870
 Alpha  occ. eigenvalues --   -0.25708  -0.25544  -0.25296  -0.24851  -0.23974
 Alpha  occ. eigenvalues --   -0.23831  -0.23577  -0.22572  -0.21022  -0.16260
 Alpha  occ. eigenvalues --   -0.14129  -0.12445  -0.11835   0.04242
 Alpha virt. eigenvalues --    0.05953   0.06378   0.06834   0.07506   0.07727
 Alpha virt. eigenvalues --    0.08201   0.08372   0.08712   0.08972   0.09410
 Alpha virt. eigenvalues --    0.09708   0.10623   0.10908   0.11077   0.11430

  Beta  occ. eigenvalues --  -88.73501 -19.05045 -14.20699 -10.13646 -10.11169
  Beta  occ. eigenvalues --  -10.10208 -10.10127 -10.08712 -10.08567 -10.08199
  Beta  occ. eigenvalues --  -10.07900 -10.07827 -10.07752 -10.07745 -10.07629
  Beta  occ. eigenvalues --  -10.07337 -10.07184 -10.06991  -7.82132  -5.78534
  Beta  occ. eigenvalues --   -5.78172  -5.77477  -0.95975  -0.82099  -0.75827
  Beta  occ. eigenvalues --   -0.72795  -0.70037  -0.67944  -0.65535  -0.64765
  Beta  occ. eigenvalues --   -0.63893  -0.59433  -0.56985  -0.53718  -0.52969
  Beta  occ. eigenvalues --   -0.51121  -0.50187  -0.48845  -0.46480  -0.44838
  Beta  occ. eigenvalues --   -0.41312  -0.39114  -0.38523  -0.37513  -0.36772
  Beta  occ. eigenvalues --   -0.35967  -0.35179  -0.34151  -0.33473  -0.32927
  Beta  occ. eigenvalues --   -0.32845  -0.32482  -0.31437  -0.31115  -0.30344
  Beta  occ. eigenvalues --   -0.30035  -0.28923  -0.28428  -0.27970  -0.26856
  Beta  occ. eigenvalues --   -0.25686  -0.25522  -0.25280  -0.24825  -0.23951
  Beta  occ. eigenvalues --   -0.23810  -0.23561  -0.22555  -0.20991  -0.16241
  Beta  occ. eigenvalues --   -0.14114  -0.12431  -0.11820
  Beta virt. eigenvalues --    0.06028   0.06507   0.06954   0.07400   0.07770
  Beta virt. eigenvalues --    0.07915   0.08492   0.08755   0.08793   0.09204
  Beta virt. eigenvalues --    0.09705   0.10025   0.10763   0.10984   0.11397

 Mulliken charges and spin densities:
               1          2
     1  C   -0.341599  -0.368932
     2  C   -0.153283   0.300340
     3  C   -0.414966  -0.976350
     4  C    1.134045   0.190093
     5  C   -1.580633   1.300698
     6  C    0.707032  -0.997282
     7  C    1.852696  -2.381465
     8  C   -0.252938   0.153985
     9  C   -0.580605   0.311168
    10  O   -0.193266   0.021488
    11  N    0.097239   0.037821
    12  C    0.254230  -0.727663
    13  C   -0.443081   0.239647
    14  C   -0.025038   0.099298
    15  C   -0.434952  -0.138958
    16  C   -0.277384  -0.201456
    17  S    0.275279   0.118382
    18  C   -0.205102  -0.702700
    19  H    0.149931   0.008673
    20  H    0.058409   0.069159
    21  H   -0.034130   0.169278
    22  H    0.091771   0.011327
    23  H    0.131905   0.030720
    24  H    0.119236   0.071393
    25  H   -0.363330   0.544434
    26  H   -1.438845   1.648145
    27  H    0.119590   0.061766
    28  H    0.160625   0.006199
    29  H   -0.244076   0.526678
    30  H    0.209144   0.028391
    31  H    0.122238   0.041821
    32  H   -0.210024   0.343301
    33  H   -0.150976   0.338671
    34  H    0.630122  -0.468863
    35  H    0.107409  -0.014982
    36  H    0.139032   0.021214
    37  H    0.145703   0.018069
    38  H   -0.001930   0.126726
    39  H    0.115872   0.111311
    40  H   -0.116657   0.281997
    41  H   -0.253452   0.437506
    42  H   -0.050347   0.248149
    43  H    0.145106   0.060805
 Sum of Mulliken charges =  -1.00000   1.00000

 Dipole moment (field-independent basis, Debye):
    X=              2.6906    Y=             -6.6760    Z=             -7.1695  Tot=             10.1592
 Quadrupole moment (field-independent basis, Debye-Ang):
   XX=           -182.6760   YY=           -188.6321   ZZ=           -162.5372
   XY=             12.2981   XZ=              1.1869   YZ=            -11.5471

 Summary of Natural Population Analysis:

                                       Natural Population
                Natural  -----------------------------------------------
    Atom  No    Charge         Core      Valence    Rydberg      Total
 -----------------------------------------------------------------------
      C    1   -0.28788      0.99966     2.28411    0.00411     3.28788
      C    2   -0.18647      0.99962     2.17734    0.00952     3.18647
      C    3   -0.01487      0.99954     2.00043    0.01490     3.01487
      C    4   -0.04200      0.99948     2.03005    0.01247     3.04200
      C    5   -0.09163      0.99950     2.08104    0.01109     3.09163
      C    6   -0.13265      0.99950     2.12075    0.01240     3.13265
      C    7    0.15539      0.99937     1.82970    0.01553     2.84461
      C    8   -0.11464      0.99951     2.10511    0.01003     3.11464
      C    9   -0.09880      0.99950     2.09043    0.00887     3.09880
      O   10   -0.34394      0.99988     3.33653    0.00753     4.34394
      N   11   -0.34076      0.99974     2.83007    0.01094     3.84076
      C   12   -0.08085      0.99962     2.06909    0.01214     3.08085
      C   13   -0.20524      0.99962     2.19734    0.00828     3.20524
      C   14   -0.19697      0.99962     2.18875    0.00860     3.19697
      C   15   -0.19026      0.99962     2.18163    0.00900     3.19026
      C   16   -0.24926      0.99960     2.23985    0.00981     3.24926
      S   17    0.08106      4.99962     2.90072    0.01859     7.91894
      C   18   -0.34978      0.99963     2.34303    0.00713     3.34978
      H   19    0.10379      0.00000     0.39526    0.00095     0.39621
      H   20    0.09557      0.00000     0.40368    0.00075     0.40443
      H   21    0.09697      0.00000     0.40203    0.00100     0.40303
      H   22    0.09062      0.00000     0.40834    0.00104     0.40938
      H   23    0.09965      0.00000     0.39916    0.00120     0.40035
      H   24    0.09417      0.00000     0.40383    0.00200     0.40583
      H   25    0.10239      0.00000     0.39594    0.00166     0.39761
      H   26    0.10933      0.00000     0.38500    0.00567     0.39067
      H   27    0.10417      0.00000     0.39467    0.00116     0.39583
      H   28    0.09456      0.00000     0.40408    0.00137     0.40544
      H   29    0.24281      0.00000     0.24688    0.01031     0.25719
      H   30    0.17096      0.00000     0.32710    0.00195     0.32904
      H   31    0.08700      0.00000     0.41201    0.00099     0.41300
      H   32    0.09350      0.00000     0.40545    0.00106     0.40650
      H   33    0.09411      0.00000     0.40458    0.00132     0.40589
      H   34    0.10444      0.00000     0.39312    0.00244     0.39556
      H   35    0.10415      0.00000     0.39451    0.00134     0.39585
      H   36    0.09043      0.00000     0.40860    0.00096     0.40957
      H   37    0.09631      0.00000     0.40269    0.00101     0.40369
      H   38    0.09680      0.00000     0.40216    0.00104     0.40320
      H   39    0.09793      0.00000     0.40053    0.00154     0.40207
      H   40    0.10213      0.00000     0.39630    0.00157     0.39787
      H   41    0.09845      0.00000     0.39992    0.00162     0.40155
      H   42    0.10488      0.00000     0.39313    0.00199     0.39512
      H   43    0.11443      0.00000     0.38401    0.00156     0.38557
 =======================================================================
   * Total *    0.00000     21.99265    50.76892    0.23843    73.00000

 Normal termination of Gaussian 16 at Sat Dec 12 00:13:03 2020.
