 Gaussian 16, Revision A.03,

 -----------------------------------------------------------
 # opt freq B3LYP/6-31G(d) empiricaldispersion=gd3bj scf=xqc
 -----------------------------------------------------------

 ------------------------------
 CID_57230143_JID_8237_neutraal
 ------------------------------
 Symbolic Z-matrix:
 Charge =  0 Multiplicity = 1

 SCF Done:  E(RB3LYP) =  -783.206326422     A.U. after   16 cycles
 SCF Done:  E(RB3LYP) =  -783.238752411     A.U. after   14 cycles
 SCF Done:  E(RB3LYP) =  -783.245335454     A.U. after   14 cycles
 SCF Done:  E(RB3LYP) =  -783.246314782     A.U. after   14 cycles
 SCF Done:  E(RB3LYP) =  -783.249237724     A.U. after   13 cycles
 SCF Done:  E(RB3LYP) =  -783.249779231     A.U. after   13 cycles
 SCF Done:  E(RB3LYP) =  -783.250504902     A.U. after   14 cycles
 SCF Done:  E(RB3LYP) =  -783.251258150     A.U. after   13 cycles
 SCF Done:  E(RB3LYP) =  -783.253710002     A.U. after   16 cycles
 SCF Done:  E(RB3LYP) =  -783.255162670     A.U. after   15 cycles
 SCF Done:  E(RB3LYP) =  -783.285637819     A.U. after    9 cycles
 SCF Done:  E(RB3LYP) =  -783.285638669     A.U. after    9 cycles
 SCF Done:  E(RB3LYP) =  -783.285639304     A.U. after    8 cycles
 SCF Done:  E(RB3LYP) =  -783.285639537     A.U. after    8 cycles
 SCF Done:  E(RB3LYP) =  -783.285639598     A.U. after    7 cycles
 Optimization completed.
    -- Stationary point found.
 Normal termination of Gaussian 16 at Fri Dec 11 19:59:22 2020.

 --------------------------------------------------------------------
 #N Geom=AllCheck Guess=TCheck SCRF=Check GenChk RB3LYP/6-31G(d) Freq
 --------------------------------------------------------------------

 Structure from the checkpoint file:  "JID_8237.chk"
 ------------------------------
 CID_57230143_JID_8237_neutraal
 ------------------------------
 Charge =  0 Multiplicity = 1

 SCF Done:  E(RB3LYP) =  -783.285639598     A.U. after    1 cycles

  Exact polarizability: 219.585   3.904 153.033   1.664  11.882 117.763
 Approx polarizability: 289.803  13.210 246.938  -2.275  23.439 193.464

                      1                      2                      3
                      A                      A                      A
 Frequencies --     29.9725                37.2506                57.1653
 Red. masses --      4.9581                 5.4455                 4.5986
 Frc consts  --      0.0026                 0.0045                 0.0089
 IR Inten    --      2.6615                 3.0281                 1.9539

                      4                      5                      6
                      A                      A                      A
 Frequencies --     67.9394               115.6559               142.6749
 Red. masses --      4.0279                 4.6325                 3.0408
 Frc consts  --      0.0110                 0.0365                 0.0365
 IR Inten    --      1.3571                 2.4628                12.1251

                      7                      8                      9
                      A                      A                      A
 Frequencies --    157.0845               164.6360               185.9692
 Red. masses --      2.6271                 1.3686                 1.1419
 Frc consts  --      0.0382                 0.0219                 0.0233
 IR Inten    --      2.7618                 0.6039                 0.2425

                     10                     11                     12
                      A                      A                      A
 Frequencies --    202.7296               212.8518               247.7909
 Red. masses --      2.8937                 3.4431                 3.7481
 Frc consts  --      0.0701                 0.0919                 0.1356
 IR Inten    --      4.6756                 2.3682                 0.8640

                     13                     14                     15
                      A                      A                      A
 Frequencies --    260.3209               289.0306               294.6549
 Red. masses --      3.5182                 2.0385                 3.8077
 Frc consts  --      0.1405                 0.1003                 0.1948
 IR Inten    --      1.9897                 4.1761                 1.0074

                     16                     17                     18
                      A                      A                      A
 Frequencies --    318.8128               335.2277               361.7728
 Red. masses --      1.3922                 2.3993                 2.9001
 Frc consts  --      0.0834                 0.1589                 0.2236
 IR Inten    --     18.2114                 2.9944                 0.7006

                     19                     20                     21
                      A                      A                      A
 Frequencies --    389.8940               406.2090               457.4883
 Red. masses --      3.8007                 7.6238                 4.2887
 Frc consts  --      0.3404                 0.7412                 0.5288
 IR Inten    --      8.9960                 4.8496                 5.6087

                     22                     23                     24
                      A                      A                      A
 Frequencies --    469.1371               478.6862               513.3252
 Red. masses --      3.3253                 3.0770                 5.6252
 Frc consts  --      0.4312                 0.4154                 0.8733
 IR Inten    --      1.9587                 2.8493                 9.9027

                     25                     26                     27
                      A                      A                      A
 Frequencies --    553.0927               579.0587               583.1481
 Red. masses --      4.0027                 3.6629                 2.8712
 Frc consts  --      0.7214                 0.7236                 0.5753
 IR Inten    --      2.4084                 1.8248                 0.5058

                     28                     29                     30
                      A                      A                      A
 Frequencies --    603.2619               641.3865               666.5246
 Red. masses --      4.0304                 1.8608                 4.0900
 Frc consts  --      0.8642                 0.4510                 1.0705
 IR Inten    --     19.3684               195.9293                66.6121

                     31                     32                     33
                      A                      A                      A
 Frequencies --    706.6060               724.5828               733.8153
 Red. masses --      3.2790                 3.1505                 3.4869
 Frc consts  --      0.9646                 0.9746                 1.1063
 IR Inten    --     46.7171                 9.9375                35.4794

                     34                     35                     36
                      A                      A                      A
 Frequencies --    763.5576               779.0860               821.1675
 Red. masses --      3.5567                 3.2454                 3.4885
 Frc consts  --      1.2217                 1.1606                 1.3860
 IR Inten    --      7.1798                 8.2658                 1.4688

                     37                     38                     39
                      A                      A                      A
 Frequencies --    853.6557               857.2596               893.9331
 Red. masses --      2.1448                 2.1324                 1.2876
 Frc consts  --      0.9209                 0.9233                 0.6062
 IR Inten    --      8.9581                 7.4413                 6.8794

                     40                     41                     42
                      A                      A                      A
 Frequencies --    942.3537               966.3899               982.4762
 Red. masses --      2.4022                 2.0399                 2.2202
 Frc consts  --      1.2568                 1.1225                 1.2627
 IR Inten    --      7.7383                 3.4320                10.0964

                     43                     44                     45
                      A                      A                      A
 Frequencies --   1014.6822              1043.4757              1048.8717
 Red. masses --      1.4525                 2.0389                 1.9577
 Frc consts  --      0.8811                 1.3080                 1.2690
 IR Inten    --      0.1552                 8.6987                 9.9372

                     46                     47                     48
                      A                      A                      A
 Frequencies --   1073.4048              1076.0394              1077.4551
 Red. masses --      1.4771                 2.1753                 1.5327
 Frc consts  --      1.0027                 1.4840                 1.0484
 IR Inten    --      1.8489                14.7793                 1.6551

                     49                     50                     51
                      A                      A                      A
 Frequencies --   1105.1589              1125.5380              1140.2116
 Red. masses --      4.3232                 1.7651                 2.3245
 Frc consts  --      3.1110                 1.3174                 1.7805
 IR Inten    --      5.5500                 2.6774                 6.5342

                     52                     53                     54
                      A                      A                      A
 Frequencies --   1177.8822              1195.7190              1225.8138
 Red. masses --      1.4047                 2.0333                 1.2780
 Frc consts  --      1.1482                 1.7128                 1.1315
 IR Inten    --     51.8110                16.2759                21.1302

                     55                     56                     57
                      A                      A                      A
 Frequencies --   1242.3281              1256.2451              1294.5178
 Red. masses --      2.4278                 2.3550                 1.5848
 Frc consts  --      2.2077                 2.1897                 1.5648
 IR Inten    --     34.5533                23.2026                 4.8916

                     58                     59                     60
                      A                      A                      A
 Frequencies --   1305.8242              1320.7845              1340.7182
 Red. masses --      1.6099                 1.3760                 1.6072
 Frc consts  --      1.6174                 1.4143                 1.7021
 IR Inten    --     54.2918                 0.9132                 7.1209

                     61                     62                     63
                      A                      A                      A
 Frequencies --   1345.8698              1364.5371              1371.1199
 Red. masses --      1.8393                 1.9086                 3.2773
 Frc consts  --      1.9629                 2.0938                 3.6300
 IR Inten    --      6.8241                 7.8754                10.0629

                     64                     65                     66
                      A                      A                      A
 Frequencies --   1383.3738              1403.6076              1438.7255
 Red. masses --      1.3750                 1.7293                 1.4168
 Frc consts  --      1.5503                 2.0073                 1.7279
 IR Inten    --      2.6642                54.0466                19.3672

                     67                     68                     69
                      A                      A                      A
 Frequencies --   1441.0161              1444.8297              1471.1102
 Red. masses --      1.4304                 1.6559                 3.1209
 Frc consts  --      1.7500                 2.0367                 3.9795
 IR Inten    --     45.7319                74.3194                25.8318

                     70                     71                     72
                      A                      A                      A
 Frequencies --   1503.0111              1512.1867              1514.2332
 Red. masses --      1.0859                 1.0511                 1.0444
 Frc consts  --      1.4453                 1.4162                 1.4109
 IR Inten    --      9.6449                 3.4380                 7.2540

                     73                     74                     75
                      A                      A                      A
 Frequencies --   1526.8546              1528.7855              1535.7252
 Red. masses --      1.0876                 1.0847                 1.1960
 Frc consts  --      1.4939                 1.4937                 1.6619
 IR Inten    --      6.6244                10.6864                23.5548

                     76                     77                     78
                      A                      A                      A
 Frequencies --   1545.1410              1565.5988              1633.1192
 Red. masses --      1.0860                 3.0607                 6.7685
 Frc consts  --      1.5277                 4.4200                10.6360
 IR Inten    --     10.0230               104.9656                19.1773

                     79                     80                     81
                      A                      A                      A
 Frequencies --   1678.1876              1701.7283              1797.3157
 Red. masses --      3.0269                 1.4151                11.4467
 Frc consts  --      5.0227                 2.4145                21.7861
 IR Inten    --     12.9458               106.6661               286.6840

                     82                     83                     84
                      A                      A                      A
 Frequencies --   2365.4053              3018.9021              3027.2461
 Red. masses --     12.6487                 1.0466                 1.0474
 Frc consts  --     41.6972                 5.6200                 5.6555
 IR Inten    --     12.8451                48.8636                47.5310

                     85                     86                     87
                      A                      A                      A
 Frequencies --   3037.5733              3047.3587              3072.0466
 Red. masses --      1.0735                 1.0707                 1.0926
 Frc consts  --      5.8361                 5.8584                 6.0754
 IR Inten    --     20.3496                15.4376                22.0635

                     88                     89                     90
                      A                      A                      A
 Frequencies --   3077.7920              3087.1787              3088.6110
 Red. masses --      1.0715                 1.0871                 1.0753
 Frc consts  --      5.9803                 6.1042                 6.0440
 IR Inten    --      8.5022                10.0793                26.2487

                     91                     92                     93
                      A                      A                      A
 Frequencies --   3127.9916              3128.4543              3131.0516
 Red. masses --      1.1024                 1.1031                 1.0982
 Frc consts  --      6.3550                 6.3610                 6.3430
 IR Inten    --     37.0131                 2.1015                12.6170

                     94                     95                     96
                      A                      A                      A
 Frequencies --   3145.2808              3156.3731              3171.9373
 Red. masses --      1.0944                 1.0932                 1.0897
 Frc consts  --      6.3789                 6.4169                 6.4597
 IR Inten    --      9.8442                 8.1309                23.7433

                     97                     98                     99
                      A                      A                      A
 Frequencies --   3206.0172              3547.4435              3644.3246
 Red. masses --      1.0910                 1.0481                 1.0975
 Frc consts  --      6.6071                 7.7708                 8.5881
 IR Inten    --      6.5589                10.1948                 8.5535

 - Thermochemistry -
 -------------------
 Temperature   298.150 Kelvin.  Pressure   1.00000 Atm.
 Atom     1 has atomic number  6 and mass  12.00000

 Molecular mass:   243.13716 amu.
 Principal axes and moments of inertia in atomic units:
                           1         2         3
     Eigenvalues --  2184.177277578.264348440.11533
           X            0.99988  -0.01279   0.00894
           Y            0.01215   0.99762   0.06784
           Z           -0.00979  -0.06773   0.99766
 This molecule is an asymmetric top.
 Rotational symmetry number  1.
 Warning -- assumption of classical behavior for rotation
           may cause significant error
 Rotational temperatures (Kelvin)      0.03966     0.01143     0.01026
 Rotational constants (GHZ):           0.82628     0.23815     0.21383
 Zero-point vibrational energy     769793.2 (Joules/Mol)
                                  183.98499 (Kcal/Mol)
 Warning -- explicit consideration of  28 degrees of freedom as
           vibrations may cause significant error
 Vibrational temperatures:     43.12    53.60    82.25    97.75   166.40
          (Kelvin)            205.28   226.01   236.87   267.57   291.68
                              306.25   356.52   374.54   415.85   423.94
                              458.70   482.32   520.51   560.97   584.44
                              658.22   674.98   688.72   738.56   795.78
                              833.14   839.02   867.96   922.81   958.98
                             1016.65  1042.51  1055.80  1098.59  1120.93
                             1181.48  1228.22  1233.41  1286.17  1355.84
                             1390.42  1413.56  1459.90  1501.33  1509.09
                             1544.39  1548.18  1550.22  1590.08  1619.40
                             1640.51  1694.71  1720.37  1763.67  1787.43
                             1807.46  1862.52  1878.79  1900.31  1928.99
                             1936.41  1963.26  1972.74  1990.37  2019.48
                             2070.01  2073.30  2078.79  2116.60  2162.50
                             2175.70  2178.64  2196.80  2199.58  2209.57
                             2223.11  2252.55  2349.69  2414.54  2448.41
                             2585.94  3403.29  4343.53  4355.53  4370.39
                             4384.47  4419.99  4428.26  4441.76  4443.82
                             4500.48  4501.15  4504.88  4525.36  4541.32
                             4563.71  4612.74  5103.98  5243.37

 Zero-point correction=                           0.293199 (Hartree/Particle)
 Thermal correction to Energy=                    0.310508
 Thermal correction to Enthalpy=                  0.311452
 Thermal correction to Gibbs Free Energy=         0.247770
 Sum of electronic and zero-point Energies=           -782.992441
 Sum of electronic and thermal Energies=              -782.975132
 Sum of electronic and thermal Enthalpies=            -782.974187
 Sum of electronic and thermal Free Energies=         -783.037870

                     E (Thermal)             CV                S
                      KCal/Mol        Cal/Mol-Kelvin    Cal/Mol-Kelvin
 Total                  194.847             66.112            134.031
 Electronic               0.000              0.000              0.000
 Translational            0.889              2.981             42.366
 Rotational               0.889              2.981             33.301
 Vibrational            193.069             60.151             58.363
 Vibration     1          0.594              1.984              5.831
 Vibration     2          0.594              1.982              5.400
 Vibration     3          0.596              1.975              4.553
 Vibration     4          0.598              1.969              4.212
 Vibration     5          0.608              1.936              3.172
 Vibration     6          0.616              1.911              2.768
 Vibration     7          0.621              1.895              2.585
 Vibration     8          0.623              1.886              2.496
 Vibration     9          0.632              1.859              2.268
 Vibration    10          0.639              1.836              2.108
 Vibration    11          0.644              1.821              2.019
 Vibration    12          0.661              1.766              1.746
 Vibration    13          0.668              1.745              1.660
 Vibration    14          0.686              1.694              1.480
 Vibration    15          0.689              1.684              1.447
 Vibration    16          0.705              1.638              1.316
 Vibration    17          0.716              1.605              1.235
 Vibration    18          0.736              1.551              1.114
 Vibration    19          0.758              1.492              1.001
 Vibration    20          0.771              1.457              0.940
 Vibration    21          0.816              1.344              0.773
 Vibration    22          0.826              1.319              0.740
 Vibration    23          0.835              1.297              0.714
 Vibration    24          0.868              1.220              0.626
 Vibration    25          0.908              1.133              0.538
 Vibration    26          0.936              1.077              0.487
 Vibration    27          0.940              1.068              0.480
 Vibration    28          0.962              1.025              0.444

                           ! Non-Optimized Parameters !
 Normal termination of Gaussian 16 at Fri Dec 11 20:14:43 2020.

 ----------------------------------------------------------------------
 # B3LYP/6-311++G(d,p) empiricaldispersion=gd3bj scf=xqc pop=npa geom=c
 heck
 ----------------------------------------------------------------------

 --------------------------------------
 CID_57230143_JID_8237_Energie_neutraal
 --------------------------------------
 Structure from the checkpoint file:  "JID_8237.chk"
 Charge =  0 Multiplicity = 1

 SCF Done:  E(RB3LYP) =  -783.503078212     A.U. after   16 cycles
 Normal termination of Gaussian 16 at Fri Dec 11 20:21:05 2020.

 ----------------------------------------------------------------------
 # B3LYP/6-311++G(d,p) empiricaldispersion=gd3bj scf=xqc pop=npa geom=c
 heck
 ----------------------------------------------------------------------

 ------------------------------------
 CID_57230143_JID_8237_Energie_kation
 ------------------------------------
 Structure from the checkpoint file:  "JID_8237.chk"
 Charge =  1 Multiplicity = 2

 SCF Done:  E(UB3LYP) =  -783.224054259     A.U. after   25 cycles
 Normal termination of Gaussian 16 at Fri Dec 11 20:34:39 2020.
 Gaussian 16:  ES64L-G16RevA.03 25-Dec-2016

 ----------------------------------------------------------------------
 # B3LYP/6-311++G(d,p) empiricaldispersion=gd3bj scf=xqc pop=npa geom=c
 heck
 ----------------------------------------------------------------------

 -----------------------------------
 CID_57230143_JID_8237_Energie_anion
 -----------------------------------
 Structure from the checkpoint file:  "JID_8237.chk"
 Charge = -1 Multiplicity = 2

                         Standard orientation:
 ---------------------------------------------------------------------
 Center     Atomic      Atomic             Coordinates (Angstroms)
 Number     Number       Type             X           Y           Z
 ---------------------------------------------------------------------
      1          6           0       -4.839292    0.985270   -0.079416
      2          6           0       -3.380235    0.614690   -0.028602
      3          6           0       -2.445606    1.433303    0.602797
      4          6           0       -1.081890    1.129621    0.670998
      5          6           0       -0.660616   -0.054948    0.049614
      6          6           0       -1.570203   -0.898007   -0.583792
      7          6           0       -2.932472   -0.585206   -0.621540
      8          7           0       -3.830555   -1.417083   -1.300741
      9          7           0        0.731467   -0.400554    0.051730
     10          6           0        1.647495    0.375999   -0.781371
     11          6           0        2.952982    0.704311   -0.011706
     12          6           0        3.435175   -0.526709    0.817998
     13          6           0        2.675354   -1.800038    0.419398
     14          6           0        1.171242   -1.606494    0.569184
     15          8           0        0.442337   -2.413326    1.123181
     16          6           0        3.971236    1.157438   -0.962968
     17          7           0        4.770363    1.497380   -1.733387
     18          6           0       -0.122532    2.033446    1.403190
     19          1           0       -5.012495    1.965179    0.373925
     20          1           0       -5.207573    1.018770   -1.112964
     21          1           0       -5.467054    0.261549    0.461789
     22          1           0       -2.797979    2.347863    1.075214
     23          1           0       -1.212797   -1.819976   -1.030858
     24          1           0       -3.499192   -2.366816   -1.420764
     25          1           0       -4.774235   -1.409822   -0.933761
     26          1           0        1.893797   -0.171933   -1.700570
     27          1           0        1.145032    1.294645   -1.083720
     28          1           0        2.746943    1.534922    0.671039
     29          1           0        4.512396   -0.669818    0.700167
     30          1           0        3.252657   -0.323328    1.877417
     31          1           0        2.909721   -2.069471   -0.619654
     32          1           0        2.958856   -2.645231    1.049362
     33          1           0       -0.663784    2.712892    2.068166
     34          1           0        0.581540    1.454385    2.011187
     35          1           0        0.472724    2.658551    0.722660
 ---------------------------------------------------------------------

 SCF Done:  E(UB3LYP) =  -783.495751879     A.U. after   33 cycles
 SCF Done:  E(UB3LYP) =  -783.495751879     a.u. after    1 cycles

 The electronic state is 2-A.
 Alpha  occ. eigenvalues --  -19.00362 -14.26441 -14.23331 -14.22756 -10.18789
 Alpha  occ. eigenvalues --  -10.14558 -10.14422 -10.13166 -10.12089 -10.12023
 Alpha  occ. eigenvalues --  -10.10975 -10.10223 -10.08742 -10.08705 -10.07995
 Alpha  occ. eigenvalues --  -10.07976 -10.07970 -10.07855  -0.95652  -0.87017
 Alpha  occ. eigenvalues --   -0.83225  -0.83005  -0.76472  -0.74055  -0.69014
 Alpha  occ. eigenvalues --   -0.68351  -0.66937  -0.61448  -0.59797  -0.58514
 Alpha  occ. eigenvalues --   -0.55715  -0.52741  -0.50018  -0.46732  -0.45849
 Alpha  occ. eigenvalues --   -0.42975  -0.42259  -0.40989  -0.39383  -0.37995
 Alpha  occ. eigenvalues --   -0.36950  -0.36462  -0.35879  -0.34666  -0.33586
 Alpha  occ. eigenvalues --   -0.33368  -0.32971  -0.32371  -0.31081  -0.30780
 Alpha  occ. eigenvalues --   -0.30553  -0.29590  -0.29226  -0.28206  -0.27708
 Alpha  occ. eigenvalues --   -0.27358  -0.26410  -0.26084  -0.24965  -0.24500
 Alpha  occ. eigenvalues --   -0.22041  -0.18170  -0.17227  -0.14753  -0.11664
 Alpha  occ. eigenvalues --    0.03649
 Alpha virt. eigenvalues --    0.05023   0.06172   0.06966   0.07130   0.07293
 Alpha virt. eigenvalues --    0.08008   0.08841   0.08996   0.09355   0.09565
 Alpha virt. eigenvalues --    0.09978   0.10120   0.10438   0.10542   0.10681

  Beta  occ. eigenvalues --  -19.00349 -14.26437 -14.23310 -14.22714 -10.18783
  Beta  occ. eigenvalues --  -10.14543 -10.14400 -10.13164 -10.12089 -10.12017
  Beta  occ. eigenvalues --  -10.10938 -10.10208 -10.08734 -10.08704 -10.07986
  Beta  occ. eigenvalues --  -10.07938 -10.07935 -10.07842  -0.95632  -0.87001
  Beta  occ. eigenvalues --   -0.83178  -0.82965  -0.76438  -0.74014  -0.68974
  Beta  occ. eigenvalues --   -0.68313  -0.66898  -0.61397  -0.59742  -0.58469
  Beta  occ. eigenvalues --   -0.55649  -0.52700  -0.49978  -0.46682  -0.45805
  Beta  occ. eigenvalues --   -0.42937  -0.42217  -0.40939  -0.39344  -0.37943
  Beta  occ. eigenvalues --   -0.36905  -0.36427  -0.35842  -0.34626  -0.33556
  Beta  occ. eigenvalues --   -0.33334  -0.32934  -0.32342  -0.31038  -0.30735
  Beta  occ. eigenvalues --   -0.30515  -0.29555  -0.29188  -0.28163  -0.27673
  Beta  occ. eigenvalues --   -0.27316  -0.26377  -0.26052  -0.24923  -0.24444
  Beta  occ. eigenvalues --   -0.22006  -0.18130  -0.17209  -0.14709  -0.11622
  Beta virt. eigenvalues --    0.05727   0.06181   0.06651   0.07092   0.07588
  Beta virt. eigenvalues --    0.07766   0.08238   0.09012   0.09286   0.09552
  Beta virt. eigenvalues --    0.09947   0.10244   0.10362   0.10565   0.10809

 Mulliken charges and spin densities:
               1          2
     1  C    1.929485  -2.211702
     2  C    0.125864   1.455517
     3  C    0.527652  -0.959924
     4  C   -0.487323   0.740397
     5  C   -1.349516   0.760616
     6  C    1.006025  -0.996214
     7  C   -1.974451   0.293082
     8  N   -0.283974   0.019739
     9  N    0.526389   0.017790
    10  C   -0.199265  -0.605443
    11  C   -0.430046   1.699103
    12  C    0.699023  -1.063764
    13  C   -0.239044  -0.199664
    14  C    0.175923  -0.061135
    15  O   -0.281968   0.006538
    16  C    1.071427  -1.997334
    17  N   -0.321622   0.067945
    18  C    0.011837  -0.720263
    19  H   -0.127836   0.272720
    20  H   -0.116073   0.289790
    21  H   -0.248984   0.420889
    22  H    0.011715   0.094853
    23  H    0.090025   0.089480
    24  H   -0.040581   0.273495
    25  H   -0.214066   0.474743
    26  H   -0.031754   0.248914
    27  H    0.277011  -0.060475
    28  H   -0.381171   0.594684
    29  H   -0.336009   0.581280
    30  H   -0.181736   0.363284
    31  H    0.058135   0.112142
    32  H    0.050587   0.168254
    33  H   -0.313391   0.482549
    34  H    0.038977   0.145340
    35  H   -0.041267   0.202771
 Sum of Mulliken charges =  -1.00000   1.00000

 Dipole moment (field-independent basis, Debye):
    X=              1.0784    Y=             -0.2341    Z=             -1.0988  Tot=              1.5573
 Quadrupole moment (field-independent basis, Debye-Ang):
   XX=           -220.4854   YY=           -150.3706   ZZ=           -146.5178
   XY=            -14.8509   XZ=              0.8892   YZ=              4.4257

 Summary of Natural Population Analysis:

                                       Natural Population
                Natural  -----------------------------------------------
    Atom  No    Charge         Core      Valence    Rydberg      Total
 -----------------------------------------------------------------------
      C    1   -0.29731      0.99964     2.29172    0.00595     3.29731
      C    2   -0.03187      0.99948     2.02247    0.00992     3.03187
      C    3   -0.08702      0.99948     2.07942    0.00812     3.08702
      C    4   -0.03495      0.99947     2.02598    0.00950     3.03495
      C    5    0.08462      0.99942     1.90452    0.01144     2.91538
      C    6   -0.10918      0.99947     2.10194    0.00777     3.10918
      C    7    0.08519      0.99945     1.90378    0.01159     2.91481
      N    8   -0.39710      0.99972     2.88732    0.01007     3.89710
      N    9   -0.26410      0.99961     2.75284    0.01166     3.76410
      C   10   -0.07280      0.99959     2.06311    0.01011     3.07280
      C   11   -0.16957      0.99951     2.15876    0.01130     3.16957
      C   12   -0.18000      0.99961     2.17106    0.00934     3.18000
      C   13   -0.23527      0.99959     2.22688    0.00881     3.23527
      C   14    0.35250      0.99964     1.62540    0.02247     2.64750
      O   15   -0.30927      0.99988     3.30393    0.00547     4.30927
      C   16    0.16452      0.99964     1.81829    0.01755     2.83548
      N   17   -0.18126      0.99979     2.67014    0.01134     3.68126
      C   18   -0.29362      0.99964     2.28806    0.00592     3.29362
      H   19    0.10370      0.00000     0.39536    0.00094     0.39630
      H   20    0.10553      0.00000     0.39325    0.00122     0.39447
      H   21    0.10393      0.00000     0.39418    0.00190     0.39607
      H   22    0.09710      0.00000     0.40198    0.00092     0.40290
      H   23    0.10388      0.00000     0.39489    0.00124     0.39612
      H   24    0.18509      0.00000     0.31316    0.00175     0.31491
      H   25    0.18949      0.00000     0.30758    0.00293     0.31051
      H   26    0.09650      0.00000     0.40218    0.00131     0.40350
      H   27    0.11257      0.00000     0.38633    0.00109     0.38743
      H   28    0.12732      0.00000     0.36945    0.00323     0.37268
      H   29    0.10920      0.00000     0.38917    0.00163     0.39080
      H   30    0.10712      0.00000     0.39105    0.00184     0.39288
      H   31    0.10741      0.00000     0.39138    0.00121     0.39259
      H   32    0.11698      0.00000     0.38208    0.00094     0.38302
      H   33    0.10470      0.00000     0.39441    0.00089     0.39530
      H   34    0.10584      0.00000     0.39267    0.00149     0.39416
      H   35    0.10015      0.00000     0.39855    0.00130     0.39985
 =======================================================================
   * Total *    0.00000     17.99262    46.79325    0.21413    65.00000

 Normal termination of Gaussian 16 at Fri Dec 11 20:53:01 2020.
