 Gaussian 16, Revision A.03,

 -----------------------------------------------------------
 # opt freq B3LYP/6-31G(d) empiricaldispersion=gd3bj scf=xqc
 -----------------------------------------------------------

 -------------------------------
 CID_137391315_JID_7672_neutraal
 -------------------------------
 Symbolic Z-matrix:
 Charge =  0 Multiplicity = 1

 SCF Done:  E(RB3LYP) =  -726.685919770     A.U. after   14 cycles
 SCF Done:  E(RB3LYP) =  -726.691662961     A.U. after   12 cycles
 SCF Done:  E(RB3LYP) =  -726.692983853     A.U. after   14 cycles
 SCF Done:  E(RB3LYP) =  -726.693810660     A.U. after   14 cycles
 SCF Done:  E(RB3LYP) =  -726.694065655     A.U. after   11 cycles
 SCF Done:  E(RB3LYP) =  -726.694518633     A.U. after   12 cycles
 SCF Done:  E(RB3LYP) =  -726.694689499     A.U. after   12 cycles
 SCF Done:  E(RB3LYP) =  -726.694969575     A.U. after   11 cycles
 SCF Done:  E(RB3LYP) =  -726.695276779     A.U. after   12 cycles
 SCF Done:  E(RB3LYP) =  -726.695301228     A.U. after   11 cycles
 SCF Done:  E(RB3LYP) =  -726.695337017     A.U. after    8 cycles
 SCF Done:  E(RB3LYP) =  -726.695341313     A.U. after   10 cycles
 SCF Done:  E(RB3LYP) =  -726.695341491     A.U. after    7 cycles
 SCF Done:  E(RB3LYP) =  -726.695341658     A.U. after    7 cycles
 SCF Done:  E(RB3LYP) =  -726.695341678     A.U. after    7 cycles
 Optimization completed.
    -- Stationary point found.
 Normal termination of Gaussian 16 at Fri Dec 11 13:09:22 2020.

 --------------------------------------------------------------------
 #N Geom=AllCheck Guess=TCheck SCRF=Check GenChk RB3LYP/6-31G(d) Freq
 --------------------------------------------------------------------

 Structure from the checkpoint file:  "JID_7672.chk"
 -------------------------------
 CID_137391315_JID_7672_neutraal
 -------------------------------
 Charge =  0 Multiplicity = 1

 SCF Done:  E(RB3LYP) =  -726.695341678     A.U. after    1 cycles

  Exact polarizability: 236.191  -3.407 170.334   2.650  16.033  80.726
 Approx polarizability: 344.546  -6.196 274.736   7.139  32.781 129.243

                      1                      2                      3
                      A                      A                      A
 Frequencies --     41.7568                50.4244                84.7262
 Red. masses --      3.8609                 3.2329                 3.7178
 Frc consts  --      0.0040                 0.0048                 0.0157
 IR Inten    --      0.1561                 0.8805                 1.8653

                      4                      5                      6
                      A                      A                      A
 Frequencies --     98.4644               113.4462               171.3586
 Red. masses --      3.3245                 4.3039                 2.6044
 Frc consts  --      0.0190                 0.0326                 0.0451
 IR Inten    --      0.3576                 1.3970                14.8871

                      7                      8                      9
                      A                      A                      A
 Frequencies --    190.1256               198.3004               246.6639
 Red. masses --      3.7398                 2.8848                 2.6676
 Frc consts  --      0.0796                 0.0668                 0.0956
 IR Inten    --      1.1374                 3.2805                11.7845

                     10                     11                     12
                      A                      A                      A
 Frequencies --    256.9661               298.1981               313.3490
 Red. masses --      2.3257                 2.5989                 4.6722
 Frc consts  --      0.0905                 0.1362                 0.2703
 IR Inten    --     12.1456                34.0832                 0.5979

                     13                     14                     15
                      A                      A                      A
 Frequencies --    329.3443               391.0488               417.8827
 Red. masses --      2.7824                 4.8088                 3.0274
 Frc consts  --      0.1778                 0.4333                 0.3115
 IR Inten    --      9.8384                 5.5566                 0.0186

                     16                     17                     18
                      A                      A                      A
 Frequencies --    467.1992               481.5685               542.7911
 Red. masses --      3.7324                 5.0303                 3.7097
 Frc consts  --      0.4800                 0.6873                 0.6440
 IR Inten    --      0.5217                 8.1330                 3.0143

                     19                     20                     21
                      A                      A                      A
 Frequencies --    567.6872               628.1274               633.3344
 Red. masses --      4.3601                 4.9327                 5.1509
 Frc consts  --      0.8279                 1.1466                 1.2173
 IR Inten    --      7.1836                 3.1122                 3.4543

                     22                     23                     24
                      A                      A                      A
 Frequencies --    645.6474               678.0730               711.0417
 Red. masses --      6.8198                 6.6000                 1.8171
 Frc consts  --      1.6750                 1.7879                 0.5413
 IR Inten    --      3.0126                 5.0123                24.5257

                     25                     26                     27
                      A                      A                      A
 Frequencies --    743.0678               752.0229               801.8793
 Red. masses --      4.8262                 2.8199                 2.8053
 Frc consts  --      1.5700                 0.9396                 1.0628
 IR Inten    --     13.7049                22.2263                 6.1829

                     28                     29                     30
                      A                      A                      A
 Frequencies --    821.8995               861.1930               878.3071
 Red. masses --      4.1797                 1.2485                 1.2807
 Frc consts  --      1.6635                 0.5456                 0.5821
 IR Inten    --     12.2458                 1.3240                96.4343

                     31                     32                     33
                      A                      A                      A
 Frequencies --    907.9366               910.0669               934.5620
 Red. masses --      4.9879                 1.3063                 1.5245
 Frc consts  --      2.4226                 0.6374                 0.7845
 IR Inten    --     10.4268                27.7348                 7.0039

                     34                     35                     36
                      A                      A                      A
 Frequencies --    948.8082               970.2898               975.0253
 Red. masses --      3.8419                 2.6967                 1.5273
 Frc consts  --      2.0377                 1.4958                 0.8555
 IR Inten    --     16.7952                 4.0594                 4.2790

                     37                     38                     39
                      A                      A                      A
 Frequencies --   1000.2733              1014.2804              1022.4555
 Red. masses --      1.2677                 1.8696                 5.8736
 Frc consts  --      0.7473                 1.1332                 3.6178
 IR Inten    --      0.8997                18.3547                 0.1821

                     40                     41                     42
                      A                      A                      A
 Frequencies --   1034.5402              1060.4960              1065.8830
 Red. masses --      1.6469                 2.2349                 1.8805
 Frc consts  --      1.0385                 1.4809                 1.2588
 IR Inten    --      2.5696                 5.4626                 1.1506

                     43                     44                     45
                      A                      A                      A
 Frequencies --   1082.3484              1102.4078              1117.9745
 Red. masses --      2.8388                 5.4092                 1.6655
 Frc consts  --      1.9594                 3.8732                 1.2265
 IR Inten    --     21.7211                64.4080                 9.7486

                     46                     47                     48
                      A                      A                      A
 Frequencies --   1137.3050              1180.4962              1191.4859
 Red. masses --      3.6749                 1.6129                 1.5246
 Frc consts  --      2.8006                 1.3243                 1.2752
 IR Inten    --      1.2549                 9.8321                 0.8336

                     49                     50                     51
                      A                      A                      A
 Frequencies --   1194.2717              1211.4729              1217.1094
 Red. masses --      1.1091                 1.2331                 1.1570
 Frc consts  --      0.9320                 1.0663                 1.0098
 IR Inten    --      0.2883                 2.1851                 3.8549

                     52                     53                     54
                      A                      A                      A
 Frequencies --   1228.6496              1244.2868              1301.6670
 Red. masses --      1.5459                 1.2578                 3.6509
 Frc consts  --      1.3750                 1.1474                 3.6446
 IR Inten    --      0.8732                 4.5903                 0.9673

                     55                     56                     57
                      A                      A                      A
 Frequencies --   1321.8231              1334.6192              1348.9194
 Red. masses --      1.6718                 1.5429                 2.1932
 Frc consts  --      1.7210                 1.6192                 2.3512
 IR Inten    --      3.8828                 3.9207                 2.1305

                     58                     59                     60
                      A                      A                      A
 Frequencies --   1367.8786              1379.5702              1406.2020
 Red. masses --      2.4659                 2.3509                 1.6816
 Frc consts  --      2.7185                 2.6361                 1.9592
 IR Inten    --      0.2180                 9.4004                32.6679

                     61                     62                     63
                      A                      A                      A
 Frequencies --   1425.4440              1447.7655              1473.0789
 Red. masses --      2.3993                 2.6554                 3.0900
 Frc consts  --      2.8723                 3.2792                 3.9505
 IR Inten    --      1.6863               112.0828                26.6783

                     64                     65                     66
                      A                      A                      A
 Frequencies --   1507.1072              1525.2790              1534.4381
 Red. masses --      2.7033                 1.0904                 1.0892
 Frc consts  --      3.6177                 1.4946                 1.5110
 IR Inten    --      2.6682                 2.2217                 3.5303

                     67                     68                     69
                      A                      A                      A
 Frequencies --   1547.8043              1549.5461              1625.5879
 Red. masses --      1.1592                 2.0628                 7.6761
 Frc consts  --      1.6362                 2.9181                11.9512
 IR Inten    --      1.3501                 2.8600                79.8603

                     70                     71                     72
                      A                      A                      A
 Frequencies --   1639.1360              1655.8783              1666.8594
 Red. masses --      5.8346                 7.2508                 5.6973
 Frc consts  --      9.2362                11.7137                 9.3265
 IR Inten    --     22.3671                33.2746                 3.1307

                     73                     74                     75
                      A                      A                      A
 Frequencies --   1696.6929              2976.7930              2985.2976
 Red. masses --      1.0962                 1.0718                 1.0730
 Frc consts  --      1.8593                 5.5958                 5.6342
 IR Inten    --     37.6354                70.6182                70.7791

                     76                     77                     78
                      A                      A                      A
 Frequencies --   3005.5587              3051.9227              3076.1836
 Red. masses --      1.0661                 1.0959                 1.0898
 Frc consts  --      5.6744                 6.0138                 6.0761
 IR Inten    --     39.7600                24.1176                30.9673

                     79                     80                     81
                      A                      A                      A
 Frequencies --   3080.5288              3183.6955              3193.8441
 Red. masses --      1.0919                 1.0853                 1.0899
 Frc consts  --      6.1048                 6.4813                 6.5504
 IR Inten    --     29.9112                 0.5525                18.2888

                     82                     83                     84
                      A                      A                      A
 Frequencies --   3207.5400              3229.5698              3231.8089
 Red. masses --      1.0953                 1.0915                 1.0906
 Frc consts  --      6.6395                 6.7078                 6.7113
 IR Inten    --     38.8026                 0.1453                13.6058

                     85                     86                     87
                      A                      A                      A
 Frequencies --   3232.9024              3472.3104              3560.1421
 Red. masses --      1.0924                 1.0504                 1.0922
 Frc consts  --      6.7269                 7.4621                 8.1564
 IR Inten    --      1.8067                 1.0400                 0.3750

 - Thermochemistry -
 -------------------
 Temperature   298.150 Kelvin.  Pressure   1.00000 Atm.
 Atom     1 has atomic number  6 and mass  12.00000

 Molecular mass:   226.11061 amu.
 Principal axes and moments of inertia in atomic units:
                           1         2         3
     Eigenvalues --  2708.377005265.365727783.03367
           X            0.99979   0.02031  -0.00139
           Y           -0.02030   0.99977   0.00727
           Z            0.00153  -0.00724   0.99997
 This molecule is an asymmetric top.
 Rotational symmetry number  1.
 Warning -- assumption of classical behavior for rotation
           may cause significant error
 Rotational temperatures (Kelvin)      0.03198     0.01645     0.01113
 Rotational constants (GHZ):           0.66636     0.34276     0.23188
 Zero-point vibrational energy     672371.4 (Joules/Mol)
                                  160.70061 (Kcal/Mol)
 Warning -- explicit consideration of  19 degrees of freedom as
           vibrations may cause significant error
 Vibrational temperatures:     60.08    72.55   121.90   141.67   163.22
          (Kelvin)            246.55   273.55   285.31   354.89   369.72
                              429.04   450.84   473.85   562.63   601.24
                              672.20   692.87   780.96   816.78   903.74
                              911.23   928.94   975.60  1023.03  1069.11
                             1081.99  1153.73  1182.53  1239.06  1263.69
                             1306.32  1309.38  1344.63  1365.12  1396.03
                             1402.84  1439.17  1459.32  1471.09  1488.47
                             1525.82  1533.57  1557.26  1586.12  1608.52
                             1636.33  1698.47  1714.28  1718.29  1743.04
                             1751.15  1767.75  1790.25  1872.81  1901.81
                             1920.22  1940.79  1968.07  1984.89  2023.21
                             2050.90  2083.01  2119.43  2168.39  2194.54
                             2207.71  2226.95  2229.45  2338.86  2358.35
                             2382.44  2398.24  2441.16  4282.94  4295.18
                             4324.33  4391.04  4425.94  4432.19  4580.63
                             4595.23  4614.93  4646.63  4649.85  4651.43
                             4995.88  5122.25

 Zero-point correction=                           0.256093 (Hartree/Particle)
 Thermal correction to Energy=                    0.270134
 Thermal correction to Enthalpy=                  0.271079
 Thermal correction to Gibbs Free Energy=         0.214356
 Sum of electronic and zero-point Energies=           -726.439249
 Sum of electronic and thermal Energies=              -726.425207
 Sum of electronic and thermal Enthalpies=            -726.424263
 Sum of electronic and thermal Free Energies=         -726.480986

                     E (Thermal)             CV                S
                      KCal/Mol        Cal/Mol-Kelvin    Cal/Mol-Kelvin
 Total                  169.512             54.897            119.384
 Electronic               0.000              0.000              0.000
 Translational            0.889              2.981             42.150
 Rotational               0.889              2.981             33.073
 Vibrational            167.734             48.935             44.161
 Vibration     1          0.594              1.980              5.174
 Vibration     2          0.595              1.977              4.801
 Vibration     3          0.601              1.960              3.778
 Vibration     4          0.604              1.950              3.484
 Vibration     5          0.607              1.938              3.209
 Vibration     6          0.626              1.878              2.421
 Vibration     7          0.633              1.853              2.227
 Vibration     8          0.637              1.842              2.149
 Vibration     9          0.661              1.768              1.754
 Vibration    10          0.667              1.751              1.682
 Vibration    11          0.691              1.677              1.427
 Vibration    12          0.701              1.648              1.345
 Vibration    13          0.712              1.617              1.263
 Vibration    14          0.759              1.489              0.996
 Vibration    15          0.781              1.431              0.899
 Vibration    16          0.824              1.323              0.745
 Vibration    17          0.838              1.291              0.706
 Vibration    18          0.898              1.155              0.559
 Vibration    19          0.924              1.101              0.509

 Optimization completed.
    -- Stationary point found.
 Normal termination of Gaussian 16 at Fri Dec 11 13:20:50 2020.

 ----------------------------------------------------------------------
 # B3LYP/6-311++G(d,p) empiricaldispersion=gd3bj scf=xqc pop=npa geom=c
 heck
 ----------------------------------------------------------------------

 ---------------------------------------
 CID_137391315_JID_7672_Energie_neutraal
 ---------------------------------------
 Structure from the checkpoint file:  "JID_7672.chk"
 Charge =  0 Multiplicity = 1

 SCF Done:  E(RB3LYP) =  -726.890739610     A.U. after   15 cycles
 Normal termination of Gaussian 16 at Fri Dec 11 13:25:56 2020.

 ----------------------------------------------------------------------
 # B3LYP/6-311++G(d,p) empiricaldispersion=gd3bj scf=xqc pop=npa geom=c
 heck
 ----------------------------------------------------------------------

 -------------------------------------
 CID_137391315_JID_7672_Energie_kation
 -------------------------------------
 Structure from the checkpoint file:  "JID_7672.chk"
 Charge =  1 Multiplicity = 2

 SCF Done:  E(UB3LYP) =  -726.598586696     A.U. after   24 cycles
 Normal termination of Gaussian 16 at Fri Dec 11 13:37:46 2020.
 Gaussian 16:  ES64L-G16RevA.03 25-Dec-2016

 ----------------------------------------------------------------------
 # B3LYP/6-311++G(d,p) empiricaldispersion=gd3bj scf=xqc pop=npa geom=c
 heck
 ----------------------------------------------------------------------

 ------------------------------------
 CID_137391315_JID_7672_Energie_anion
 ------------------------------------
 Structure from the checkpoint file:  "JID_7672.chk"
 Charge = -1 Multiplicity = 2

                         Standard orientation:
 ---------------------------------------------------------------------
 Center     Atomic      Atomic             Coordinates (Angstroms)
 Number     Number       Type             X           Y           Z
 ---------------------------------------------------------------------
      1          6           0       -2.220742    2.636583   -0.111483
      2          6           0       -1.812045    1.189327   -0.053062
      3          6           0       -2.577457    0.034500   -0.061355
      4          6           0       -1.881714   -1.181875   -0.041913
      5          7           0       -0.548328   -1.259163   -0.003085
      6          6           0        0.198629   -0.135679    0.024052
      7          6           0       -0.420458    1.121941   -0.001303
      8          6           0        0.112373    2.534721   -0.026535
      9          8           0       -1.011120    3.350341   -0.368439
     10          6           0        1.669002   -0.333122    0.040516
     11          6           0        2.204151   -1.534791   -0.452761
     12          6           0        3.578604   -1.747831   -0.468445
     13          6           0        4.449140   -0.769324    0.018139
     14          6           0        3.929596    0.420609    0.526257
     15          6           0        2.552235    0.637543    0.536528
     16          6           0       -2.615077   -2.507340   -0.102329
     17          7           0       -3.983109   -2.397261    0.411794
     18          1           0       -2.676612    2.962207    0.839017
     19          1           0       -2.931883    2.854724   -0.916648
     20          1           0       -3.660875    0.034344   -0.099311
     21          1           0        0.510754    2.841611    0.955207
     22          1           0        0.900325    2.694035   -0.771571
     23          1           0        1.518008   -2.290151   -0.817971
     24          1           0        3.974022   -2.680221   -0.862068
     25          1           0        5.522578   -0.936042    0.005657
     26          1           0        4.595453    1.181923    0.922919
     27          1           0        2.169947    1.554644    0.968788
     28          1           0       -2.682857   -2.816015   -1.154632
     29          1           0       -1.983518   -3.256407    0.399905
     30          1           0       -4.485430   -3.264525    0.235682
     31          1           0       -3.958312   -2.279472    1.423740
 ---------------------------------------------------------------------

 SCF Done:  E(UB3LYP) =  -726.891997097     A.U. after   33 cycles
 SCF Done:  E(UB3LYP) =  -726.892019402     a.u. after    6 cycles

 The electronic state is 2-A.
 Alpha  occ. eigenvalues --  -19.00867 -14.19292 -14.14840 -10.10544 -10.10275
 Alpha  occ. eigenvalues --  -10.07897 -10.06914 -10.05322 -10.04369 -10.03963
 Alpha  occ. eigenvalues --  -10.03855 -10.03795 -10.03290 -10.03066 -10.02955
 Alpha  occ. eigenvalues --  -10.02479 -10.02018  -0.92556  -0.80090  -0.77503
 Alpha  occ. eigenvalues --   -0.71740  -0.67515  -0.65243  -0.61864  -0.60883
 Alpha  occ. eigenvalues --   -0.59727  -0.55448  -0.51911  -0.48341  -0.47498
 Alpha  occ. eigenvalues --   -0.44693  -0.44512  -0.39752  -0.38194  -0.37985
 Alpha  occ. eigenvalues --   -0.36840  -0.34915  -0.34473  -0.32073  -0.31773
 Alpha  occ. eigenvalues --   -0.30443  -0.30161  -0.29375  -0.29307  -0.28604
 Alpha  occ. eigenvalues --   -0.27467  -0.26535  -0.24856  -0.23355  -0.22789
 Alpha  occ. eigenvalues --   -0.21308  -0.20771  -0.20002  -0.15848  -0.15076
 Alpha  occ. eigenvalues --   -0.14149  -0.12432  -0.12333  -0.11264  -0.09447
 Alpha  occ. eigenvalues --    0.04926
 Alpha virt. eigenvalues --    0.06680   0.08461   0.08931   0.09780   0.10005
 Alpha virt. eigenvalues --    0.10386   0.11082   0.11502   0.11624   0.11861
 Alpha virt. eigenvalues --    0.12232   0.12614   0.13187   0.13997   0.14471

  Beta  occ. eigenvalues --  -19.00863 -14.19284 -14.14616 -10.10553 -10.10279
  Beta  occ. eigenvalues --  -10.07889 -10.06987 -10.05037 -10.04275 -10.04001
  Beta  occ. eigenvalues --  -10.03845 -10.03840 -10.03177 -10.02960 -10.02693
  Beta  occ. eigenvalues --  -10.02349 -10.01744  -0.92535  -0.79770  -0.77379
  Beta  occ. eigenvalues --   -0.71472  -0.67168  -0.64913  -0.61733  -0.60673
  Beta  occ. eigenvalues --   -0.59442  -0.55235  -0.51499  -0.48036  -0.47418
  Beta  occ. eigenvalues --   -0.44442  -0.44428  -0.39677  -0.38106  -0.37879
  Beta  occ. eigenvalues --   -0.36712  -0.34746  -0.34352  -0.31906  -0.31644
  Beta  occ. eigenvalues --   -0.30340  -0.30007  -0.29297  -0.29186  -0.28543
  Beta  occ. eigenvalues --   -0.27249  -0.26352  -0.24112  -0.23222  -0.22149
  Beta  occ. eigenvalues --   -0.21168  -0.20677  -0.19813  -0.15331  -0.14525
  Beta  occ. eigenvalues --   -0.13454  -0.11822  -0.11634  -0.10921  -0.08211
  Beta virt. eigenvalues --    0.06807   0.08414   0.08862   0.09558   0.09841
  Beta virt. eigenvalues --    0.10027   0.10397   0.11370   0.11488   0.11622
  Beta virt. eigenvalues --    0.11851   0.12391   0.12648   0.13250   0.14009

 Mulliken charges and spin densities:
               1          2
     1  C   -0.214665  -0.032977
     2  C    1.194153   0.050543
     3  C   -0.448320   0.258259
     4  C    0.184285  -0.182796
     5  N    0.144233   0.119656
     6  C   -0.850470   0.155010
     7  C   -0.709411  -0.024672
     8  C   -0.367780   0.000879
     9  O   -0.152098   0.005542
    10  C    1.111021   0.052411
    11  C   -0.123388   0.107232
    12  C   -0.471913  -0.017554
    13  C   -0.327456   0.211316
    14  C   -0.225240  -0.024871
    15  C   -0.704293   0.102600
    16  C   -0.430544  -0.113399
    17  N   -0.371985   0.008516
    18  H    0.117596   0.020835
    19  H    0.124993   0.036556
    20  H    0.155529   0.010340
    21  H    0.165256   0.012485
    22  H    0.174975   0.000458
    23  H    0.157917  -0.012371
    24  H    0.122473   0.002722
    25  H    0.095005  -0.016414
    26  H    0.129545   0.001391
    27  H    0.056798  -0.010131
    28  H    0.106902   0.062943
    29  H    0.066351   0.084763
    30  H    0.108357   0.112927
    31  H    0.182172   0.017803
 Sum of Mulliken charges =  -1.00000   1.00000

 Dipole moment (field-independent basis, Debye):
    X=             -1.2097    Y=              0.4688    Z=              0.9973  Tot=              1.6364
 Quadrupole moment (field-independent basis, Debye-Ang):
   XX=           -145.3003   YY=           -125.2673   ZZ=           -110.2403
   XY=              3.8796   XZ=             -3.3884   YZ=              3.4461

 Summary of Natural Population Analysis:

                                       Natural Population
                Natural  -----------------------------------------------
    Atom  No    Charge         Core      Valence    Rydberg      Total
 -----------------------------------------------------------------------
      C    1   -0.01122      0.99955     1.99982    0.01184     3.01122
      C    2   -0.00085      0.99947     1.99260    0.00878     3.00085
      C    3   -0.08787      0.99946     2.07910    0.00932     3.08787
      C    4    0.09054      0.99955     1.89687    0.01305     2.90946
      N    5   -0.21838      0.99965     2.70755    0.01117     3.71838
      C    6    0.14775      0.99947     1.84098    0.01180     2.85225
      C    7   -0.04511      0.99942     2.03511    0.01058     3.04511
      C    8   -0.01048      0.99957     2.00110    0.00981     3.01048
      O    9   -0.30429      0.99990     3.29586    0.00853     4.30429
      C   10   -0.01499      0.99950     2.00522    0.01026     3.01499
      C   11   -0.06838      0.99956     2.05735    0.01147     3.06838
      C   12   -0.12889      0.99946     2.11260    0.01682     3.12889
      C   13   -0.02820      0.99962     2.02439    0.00419     3.02820
      C   14   -0.12783      0.99946     2.11151    0.01685     3.12783
      C   15   -0.08537      0.99955     2.07491    0.01091     3.08537
      C   16   -0.10199      0.99960     2.08939    0.01300     3.10199
      N   17   -0.42277      0.99978     2.91272    0.01027     3.92277
      H   18    0.07876      0.00000     0.42009    0.00115     0.42124
      H   19    0.08751      0.00000     0.41136    0.00113     0.41249
      H   20    0.10422      0.00000     0.39461    0.00117     0.39578
      H   21    0.07791      0.00000     0.42072    0.00136     0.42209
      H   22    0.09289      0.00000     0.40574    0.00137     0.40711
      H   23    0.10570      0.00000     0.39317    0.00113     0.39430
      H   24    0.08897      0.00000     0.40895    0.00208     0.41103
      H   25    0.08188      0.00000     0.41647    0.00165     0.41812
      H   26    0.08881      0.00000     0.40907    0.00212     0.41119
      H   27    0.09131      0.00000     0.40691    0.00178     0.40869
      H   28    0.09162      0.00000     0.40714    0.00124     0.40838
      H   29    0.08755      0.00000     0.41035    0.00210     0.41245
      H   30    0.17024      0.00000     0.32816    0.00161     0.32976
      H   31    0.17106      0.00000     0.32751    0.00142     0.32894
 =======================================================================
   * Total *    0.00010     16.99256    42.79738    0.20996    59.99990

 Normal termination of Gaussian 16 at Fri Dec 11 15:01:04 2020.
