 Gaussian 16, Revision A.03,

 -----------------------------------------------------------
 # opt freq B3LYP/6-31G(d) empiricaldispersion=gd3bj scf=xqc
 -----------------------------------------------------------

 -------------------------------
 CID_133724771_JID_5338_neutraal
 -------------------------------
 Symbolic Z-matrix:
 Charge =  0 Multiplicity = 1

 SCF Done:  E(RB3LYP) =  -1064.88822259     A.U. after   16 cycles
 SCF Done:  E(RB3LYP) =  -1064.88525491     A.U. after   15 cycles
 SCF Done:  E(RB3LYP) =  -1064.89559285     A.U. after   13 cycles
 SCF Done:  E(RB3LYP) =  -1064.89665218     A.U. after   13 cycles
 SCF Done:  E(RB3LYP) =  -1064.89693457     A.U. after   12 cycles
 SCF Done:  E(RB3LYP) =  -1064.89721345     A.U. after   11 cycles
 SCF Done:  E(RB3LYP) =  -1064.89734861     A.U. after   11 cycles
 SCF Done:  E(RB3LYP) =  -1064.89741406     A.U. after   11 cycles
 SCF Done:  E(RB3LYP) =  -1064.89743390     A.U. after   10 cycles
 SCF Done:  E(RB3LYP) =  -1064.89746097     A.U. after   11 cycles
 SCF Done:  E(RB3LYP) =  -1064.90305101     A.U. after    9 cycles
 SCF Done:  E(RB3LYP) =  -1064.90305260     A.U. after    9 cycles
 SCF Done:  E(RB3LYP) =  -1064.90305378     A.U. after    9 cycles
 SCF Done:  E(RB3LYP) =  -1064.90305385     A.U. after    8 cycles
 SCF Done:  E(RB3LYP) =  -1064.90305389     A.U. after    7 cycles
 Optimization completed.
    -- Stationary point found.
 Normal termination of Gaussian 16 at Thu Dec 10 15:58:35 2020.

 --------------------------------------------------------------------
 #N Geom=AllCheck Guess=TCheck SCRF=Check GenChk RB3LYP/6-31G(d) Freq
 --------------------------------------------------------------------

 Structure from the checkpoint file:  "JID_5338.chk"
 -------------------------------
 CID_133724771_JID_5338_neutraal
 -------------------------------
 Charge =  0 Multiplicity = 1

 SCF Done:  E(RB3LYP) =  -1064.90305389     A.U. after    1 cycles

  Exact polarizability: 145.363  10.938 128.296  15.557  -6.519 122.374
 Approx polarizability: 218.102  29.729 219.676  43.464 -17.819 208.002

                      1                      2                      3
                      A                      A                      A
 Frequencies --     30.7125                38.9174                74.2351
 Red. masses --      4.4686                 5.2536                 4.2205
 Frc consts  --      0.0025                 0.0047                 0.0137
 IR Inten    --      0.0689                 0.5334                 0.1613

                      4                      5                      6
                      A                      A                      A
 Frequencies --     79.4777                90.3525               102.5926
 Red. masses --      3.6102                 3.6116                 4.2555
 Frc consts  --      0.0134                 0.0174                 0.0264
 IR Inten    --      0.2872                 1.8184                 0.8223

                      7                      8                      9
                      A                      A                      A
 Frequencies --    134.4342               154.2311               172.1858
 Red. masses --      4.1353                 2.7396                 3.1771
 Frc consts  --      0.0440                 0.0384                 0.0555
 IR Inten    --      0.3269                13.4136                 3.0820

                     10                     11                     12
                      A                      A                      A
 Frequencies --    183.3593               210.1284               235.8101
 Red. masses --      4.2055                 1.7186                 1.3210
 Frc consts  --      0.0833                 0.0447                 0.0433
 IR Inten    --      2.6649                 1.4824                 0.6973

                     13                     14                     15
                      A                      A                      A
 Frequencies --    259.3245               267.0562               325.4635
 Red. masses --      2.0070                 2.1989                 4.6332
 Frc consts  --      0.0795                 0.0924                 0.2892
 IR Inten    --      4.4476                 1.0622                 2.6930

                     16                     17                     18
                      A                      A                      A
 Frequencies --    326.7064               372.0922               416.5215
 Red. masses --      2.4780                 2.8012                 4.5493
 Frc consts  --      0.1558                 0.2285                 0.4650
 IR Inten    --      1.2826                 0.3994                 1.0879

                     19                     20                     21
                      A                      A                      A
 Frequencies --    440.6169               487.8500               524.1567
 Red. masses --      2.5612                 8.7152                 9.0428
 Frc consts  --      0.2930                 1.2221                 1.4638
 IR Inten    --      1.4003                23.0355                11.1527

                     22                     23                     24
                      A                      A                      A
 Frequencies --    534.2722               555.4037               597.3336
 Red. masses --      2.6009                 3.3220                 5.1089
 Frc consts  --      0.4374                 0.6038                 1.0740
 IR Inten    --      0.7022                30.4553                 2.5952

                     25                     26                     27
                      A                      A                      A
 Frequencies --    638.3218               670.4902               725.1691
 Red. masses --      4.2535                 2.0207                 3.5120
 Frc consts  --      1.0211                 0.5352                 1.0881
 IR Inten    --     17.7622                40.5600                39.5012

                     28                     29                     30
                      A                      A                      A
 Frequencies --    773.5087               793.3044               808.4704
 Red. masses --      5.9809                 1.4158                 1.6545
 Frc consts  --      2.1084                 0.5250                 0.6372
 IR Inten    --     20.5023                 9.2837                 3.1429

                     31                     32                     33
                      A                      A                      A
 Frequencies --    831.9565               876.8722               931.1296
 Red. masses --      3.7545                 2.8628                 2.1230
 Frc consts  --      1.5311                 1.2969                 1.0845
 IR Inten    --     17.9010                 4.6005                20.3806

                     34                     35                     36
                      A                      A                      A
 Frequencies --    958.4057              1011.9610              1033.3211
 Red. masses --      3.0180                 2.6263                 3.4944
 Frc consts  --      1.6333                 1.5846                 2.1983
 IR Inten    --     18.8743                20.8279                11.7201

                     37                     38                     39
                      A                      A                      A
 Frequencies --   1063.9603              1079.9641              1097.3534
 Red. masses --      2.8125                 1.9194                 2.0196
 Frc consts  --      1.8759                 1.3190                 1.4329
 IR Inten    --      7.3058                 6.9802                 4.3482

                     40                     41                     42
                      A                      A                      A
 Frequencies --   1103.1069              1126.4886              1164.3366
 Red. masses --      1.8919                 2.2712                 2.5299
 Frc consts  --      1.3564                 1.6981                 2.0207
 IR Inten    --      5.9182                 4.2063                20.8468

                     43                     44                     45
                      A                      A                      A
 Frequencies --   1168.1530              1192.7840              1226.6257
 Red. masses --      4.7680                 1.2785                 1.6511
 Frc consts  --      3.8334                 1.0717                 1.4637
 IR Inten    --     87.1420                 3.6474                20.1633

                     46                     47                     48
                      A                      A                      A
 Frequencies --   1261.1432              1271.9631              1281.6462
 Red. masses --      1.2229                 1.8716                 1.5410
 Frc consts  --      1.1460                 1.7841                 1.4913
 IR Inten    --     12.0590                51.1145                 9.2655

                     49                     50                     51
                      A                      A                      A
 Frequencies --   1330.5000              1349.6483              1360.4490
 Red. masses --      1.1893                 1.7049                 1.8859
 Frc consts  --      1.2404                 1.8298                 2.0565
 IR Inten    --      8.6823                21.8802                58.6044

                     52                     53                     54
                      A                      A                      A
 Frequencies --   1382.7394              1392.1190              1405.9918
 Red. masses --      1.8306                 3.4730                 1.4756
 Frc consts  --      2.0621                 3.9656                 1.7186
 IR Inten    --     54.7947                32.5492                 0.3698

                     55                     56                     57
                      A                      A                      A
 Frequencies --   1422.5037              1429.3770              1444.8533
 Red. masses --      1.7729                 1.2668                 1.4141
 Frc consts  --      2.1137                 1.5250                 1.7393
 IR Inten    --     88.6735                11.5790                 2.2202

                     58                     59                     60
                      A                      A                      A
 Frequencies --   1491.0621              1502.1596              1504.7945
 Red. masses --      1.2683                 1.1341                 1.1485
 Frc consts  --      1.6613                 1.5078                 1.5323
 IR Inten    --     33.9623                 4.0698                 2.0021

                     61                     62                     63
                      A                      A                      A
 Frequencies --   1509.1209              1512.7578              1521.8133
 Red. masses --      1.3748                 1.0506                 1.1448
 Frc consts  --      1.8447                 1.4165                 1.5621
 IR Inten    --      8.2605                 9.2711                 3.8890

                     64                     65                     66
                      A                      A                      A
 Frequencies --   1526.1327              1531.0353              1538.9448
 Red. masses --      1.0509                 1.0617                 1.2117
 Frc consts  --      1.4421                 1.4663                 1.6908
 IR Inten    --      4.1341                 4.8879                32.6078

                     67                     68                     69
                      A                      A                      A
 Frequencies --   1554.8407              1558.9359              1749.9040
 Red. masses --      3.2794                 1.1054                 7.4439
 Frc consts  --      4.6711                 1.5828                13.4301
 IR Inten    --     57.9770                 8.3015               318.4501

                     70                     71                     72
                      A                      A                      A
 Frequencies --   2981.9927              3006.1576              3008.5282
 Red. masses --      1.0539                 1.0412                 1.1048
 Frc consts  --      5.5217                 5.5440                 5.8916
 IR Inten    --     28.3281                57.3290                73.6044

                     73                     74                     75
                      A                      A                      A
 Frequencies --   3051.4461              3058.0364              3060.0210
 Red. masses --      1.0622                 1.0996                 1.0363
 Frc consts  --      5.8273                 6.0583                 5.7172
 IR Inten    --     39.3040                70.5147                25.6544

                     76                     77                     78
                      A                      A                      A
 Frequencies --   3068.3902              3083.6626              3095.1700
 Red. masses --      1.0635                 1.0741                 1.1011
 Frc consts  --      5.8992                 6.0175                 6.2148
 IR Inten    --     16.2227                35.2699                36.8216

                     79                     80                     81
                      A                      A                      A
 Frequencies --   3118.9178              3131.9560              3154.8734
 Red. masses --      1.1019                 1.1009                 1.0980
 Frc consts  --      6.3151                 6.3626                 6.4388
 IR Inten    --      7.2796                28.1561                14.9476

                     82                     83                     84
                      A                      A                      A
 Frequencies --   3155.9890              3176.5254              3569.9280
 Red. masses --      1.1033                 1.0933                 1.0750
 Frc consts  --      6.4744                 6.4996                 8.0717
 IR Inten    --     13.7498                 5.4477                27.0681

 - Thermochemistry -
 -------------------
 Temperature   298.150 Kelvin.  Pressure   1.00000 Atm.
 Atom     1 has atomic number  6 and mass  12.00000

 Molecular mass:   229.08850 amu.
 Principal axes and moments of inertia in atomic units:
                           1         2         3
     Eigenvalues --  2744.169483833.404704289.98897
           X            0.99928  -0.02663   0.02686
           Y            0.02460   0.99702   0.07312
           Z           -0.02873  -0.07241   0.99696
 This molecule is an asymmetric top.
 Rotational symmetry number  1.
 Warning -- assumption of classical behavior for rotation
           may cause significant error
 Rotational temperatures (Kelvin)      0.03156     0.02259     0.02019
 Rotational constants (GHZ):           0.65766     0.47079     0.42069
 Zero-point vibrational energy     648644.8 (Joules/Mol)
                                  155.02984 (Kcal/Mol)
 Warning -- explicit consideration of  24 degrees of freedom as
           vibrations may cause significant error
 Vibrational temperatures:     44.19    55.99   106.81   114.35   130.00
          (Kelvin)            147.61   193.42   221.90   247.74   263.81
                              302.33   339.28   373.11   384.23   468.27
                              470.06   535.36   599.28   633.95   701.91
                              754.14   768.70   799.10   859.43   918.40
                              964.69  1043.36  1112.91  1141.39  1163.21
                             1197.00  1261.62  1339.69  1378.93  1455.99
                             1486.72  1530.80  1553.83  1578.85  1587.12
                             1620.77  1675.22  1680.71  1716.15  1764.84
                             1814.50  1830.07  1844.00  1914.29  1941.84
                             1957.38  1989.45  2002.95  2022.91  2046.67
                             2056.55  2078.82  2145.31  2161.27  2165.06
                             2171.29  2176.52  2189.55  2195.76  2202.82
                             2214.20  2237.07  2242.96  2517.72  4290.42
                             4325.19  4328.60  4390.35  4399.83  4402.69
                             4414.73  4436.70  4453.26  4487.43  4506.19
                             4539.16  4540.76  4570.31  5136.33

 Zero-point correction=                           0.247056 (Hartree/Particle)
 Thermal correction to Energy=                    0.263077
 Thermal correction to Enthalpy=                  0.264021
 Thermal correction to Gibbs Free Energy=         0.202581
 Sum of electronic and zero-point Energies=          -1064.655998
 Sum of electronic and thermal Energies=             -1064.639977
 Sum of electronic and thermal Enthalpies=           -1064.639033
 Sum of electronic and thermal Free Energies=        -1064.700473

                     E (Thermal)             CV                S
                      KCal/Mol        Cal/Mol-Kelvin    Cal/Mol-Kelvin
 Total                  165.083             57.702            129.313
 Electronic               0.000              0.000              0.000
 Translational            0.889              2.981             42.189
 Rotational               0.889              2.981             32.179
 Vibrational            163.306             51.740             54.945
 Vibration     1          0.594              1.984              5.783
 Vibration     2          0.594              1.981              5.313
 Vibration     3          0.599              1.966              4.038
 Vibration     4          0.600              1.963              3.904
 Vibration     5          0.602              1.956              3.652
 Vibration     6          0.605              1.947              3.404
 Vibration     7          0.613              1.919              2.882
 Vibration     8          0.620              1.898              2.619
 Vibration     9          0.626              1.877              2.411
 Vibration    10          0.631              1.862              2.294
 Vibration    11          0.642              1.825              2.043
 Vibration    12          0.655              1.786              1.834
 Vibration    13          0.668              1.747              1.666
 Vibration    14          0.672              1.734              1.615
 Vibration    15          0.710              1.625              1.283
 Vibration    16          0.710              1.622              1.276
 Vibration    17          0.744              1.529              1.071
 Vibration    18          0.780              1.434              0.904
 Vibration    19          0.801              1.382              0.825
 Vibration    20          0.844              1.277              0.689
 Vibration    21          0.879              1.197              0.600
 Vibration    22          0.889              1.174              0.578
 Vibration    23          0.911              1.128              0.533
 Vibration    24          0.955              1.037              0.454

 Optimization completed.
    -- Stationary point found.
 Normal termination of Gaussian 16 at Thu Dec 10 16:09:17 2020.

 ----------------------------------------------------------------------
 # B3LYP/6-311++G(d,p) empiricaldispersion=gd3bj scf=xqc pop=npa geom=c
 heck
 ----------------------------------------------------------------------

 ---------------------------------------
 CID_133724771_JID_5338_Energie_neutraal
 ---------------------------------------
 Structure from the checkpoint file:  "JID_5338.chk"
 Charge =  0 Multiplicity = 1

 SCF Done:  E(RB3LYP) =  -1065.11968399     A.U. after   16 cycles
 Normal termination of Gaussian 16 at Thu Dec 10 16:14:17 2020.

 ----------------------------------------------------------------------
 # B3LYP/6-311++G(d,p) empiricaldispersion=gd3bj scf=xqc pop=npa geom=c
 heck
 ----------------------------------------------------------------------

 -------------------------------------
 CID_133724771_JID_5338_Energie_kation
 -------------------------------------
 Structure from the checkpoint file:  "JID_5338.chk"
 Charge =  1 Multiplicity = 2

 SCF Done:  E(UB3LYP) =  -1064.78899704     A.U. after   33 cycles
 SCF Done:  E(UB3LYP) =  -1064.78899704     a.u. after    2 cycles
 Normal termination of Gaussian 16 at Thu Dec 10 16:44:37 2020.
 Gaussian 16:  ES64L-G16RevA.03 25-Dec-2016

 ----------------------------------------------------------------------
 # B3LYP/6-311++G(d,p) empiricaldispersion=gd3bj scf=xqc pop=npa geom=c
 heck
 ----------------------------------------------------------------------

 ------------------------------------
 CID_133724771_JID_5338_Energie_anion
 ------------------------------------
 Structure from the checkpoint file:  "JID_5338.chk"
 Charge = -1 Multiplicity = 2

                         Standard orientation:
 ---------------------------------------------------------------------
 Center     Atomic      Atomic             Coordinates (Angstroms)
 Number     Number       Type             X           Y           Z
 ---------------------------------------------------------------------
      1          6           0        3.384146   -0.999618    1.321741
      2          6           0        2.084523   -0.199424    1.507292
      3          6           0        1.525307    0.263426    0.194234
      4          6           0        0.584847   -0.363528   -0.601600
      5         16           0        0.364778    0.563189   -2.028156
      6          7           0        1.521546    1.751430   -1.495074
      7          7           0        1.994728    1.435575   -0.353517
      8          6           0       -0.038158   -1.679747   -0.271646
      9          8           0        0.642663   -2.562507    0.245276
     10          7           0       -1.356264   -1.888990   -0.573523
     11          6           0       -2.429946   -0.919814   -0.785079
     12          6           0       -3.093456   -0.436881    0.512103
     13          6           0       -2.172369    0.408503    1.381750
     14          8           0       -1.730722    1.509026    0.612304
     15          6           0       -0.932055    2.413462    1.348969
     16          1           0        3.179848   -1.902734    0.741293
     17          1           0        3.793590   -1.293191    2.294238
     18          1           0        4.136765   -0.401499    0.797506
     19          1           0        1.346955   -0.822794    2.019102
     20          1           0        2.273102    0.685930    2.124793
     21          1           0       -1.647368   -2.811697   -0.267665
     22          1           0       -2.040334   -0.060649   -1.328669
     23          1           0       -3.174573   -1.398192   -1.429486
     24          1           0       -3.971590    0.162478    0.242360
     25          1           0       -3.450761   -1.295071    1.095899
     26          1           0       -2.714362    0.753540    2.277677
     27          1           0       -1.310148   -0.183038    1.733651
     28          1           0       -0.060142    1.912355    1.793276
     29          1           0       -0.580346    3.174269    0.649392
     30          1           0       -1.509723    2.892744    2.154713
 ---------------------------------------------------------------------

 SCF Done:  E(UB3LYP) =  -1065.13865445     A.U. after   28 cycles

 The electronic state is 2-A.
 Alpha  occ. eigenvalues --  -88.70878 -19.01582 -18.93620 -14.20033 -14.17225
 Alpha  occ. eigenvalues --  -14.17076 -10.12233 -10.11248 -10.09914 -10.09208
 Alpha  occ. eigenvalues --  -10.07214 -10.04052 -10.03789 -10.02944 -10.02872
 Alpha  occ. eigenvalues --   -7.79511  -5.75852  -5.75436  -5.75103  -0.92946
 Alpha  occ. eigenvalues --   -0.89305  -0.86278  -0.79039  -0.67683  -0.66539
 Alpha  occ. eigenvalues --   -0.64158  -0.59705  -0.59042  -0.55085  -0.50493
 Alpha  occ. eigenvalues --   -0.48876  -0.48477  -0.43852  -0.39199  -0.38653
 Alpha  occ. eigenvalues --   -0.37602  -0.36724  -0.35163  -0.33827  -0.32389
 Alpha  occ. eigenvalues --   -0.31612  -0.30252  -0.29684  -0.28400  -0.27607
 Alpha  occ. eigenvalues --   -0.27449  -0.25834  -0.25079  -0.24740  -0.24281
 Alpha  occ. eigenvalues --   -0.23289  -0.21777  -0.21380  -0.19515  -0.17495
 Alpha  occ. eigenvalues --   -0.15592  -0.13429  -0.12719  -0.11653  -0.09764
 Alpha  occ. eigenvalues --   -0.08530   0.04448
 Alpha virt. eigenvalues --    0.07197   0.08430   0.09443   0.09735   0.10252
 Alpha virt. eigenvalues --    0.11860   0.12030   0.12640   0.12976   0.13397
 Alpha virt. eigenvalues --    0.14095   0.14546   0.14740   0.15137   0.15430

  Beta  occ. eigenvalues --  -88.70788 -19.01580 -18.93379 -14.19989 -14.16993
  Beta  occ. eigenvalues --  -14.16444 -10.12080 -10.11243 -10.09913 -10.09204
  Beta  occ. eigenvalues --  -10.07213 -10.04008 -10.03794 -10.02862 -10.02604
  Beta  occ. eigenvalues --   -7.79430  -5.75814  -5.75399  -5.74800  -0.92941
  Beta  occ. eigenvalues --   -0.88889  -0.85522  -0.78856  -0.67642  -0.66177
  Beta  occ. eigenvalues --   -0.63659  -0.59641  -0.58580  -0.55048  -0.50065
  Beta  occ. eigenvalues --   -0.48830  -0.48130  -0.43458  -0.39137  -0.38545
  Beta  occ. eigenvalues --   -0.37315  -0.36667  -0.35033  -0.33604  -0.32319
  Beta  occ. eigenvalues --   -0.31456  -0.30168  -0.29515  -0.27688  -0.27306
  Beta  occ. eigenvalues --   -0.27211  -0.25609  -0.24461  -0.24281  -0.23969
  Beta  occ. eigenvalues --   -0.22658  -0.21629  -0.21287  -0.19181  -0.16941
  Beta  occ. eigenvalues --   -0.15489  -0.12454  -0.11662  -0.10858  -0.08023
  Beta  occ. eigenvalues --   -0.07611
  Beta virt. eigenvalues --    0.07145   0.08379   0.09304   0.09681   0.10219
  Beta virt. eigenvalues --    0.11295   0.11817   0.12084   0.12691   0.12958
  Beta virt. eigenvalues --    0.13365   0.14065   0.14861   0.14922   0.15153

 Mulliken charges and spin densities:
               1          2
     1  C   -0.683318  -0.039227
     2  C   -0.232625   0.094967
     3  C   -0.765548  -0.104083
     4  C    0.862284   0.243030
     5  S   -0.219040   0.197382
     6  N   -0.232139   0.312437
     7  N    0.070701   0.042262
     8  C   -0.229906   0.095545
     9  O   -0.351785   0.080935
    10  N   -0.191994   0.012240
    11  C   -0.108294  -0.020956
    12  C   -0.476485  -0.003773
    13  C   -0.149730  -0.008374
    14  O   -0.005051  -0.003784
    15  C   -0.388227  -0.002897
    16  H    0.179824   0.000071
    17  H    0.071044   0.029505
    18  H    0.141075   0.006833
    19  H    0.135381  -0.000887
    20  H    0.116481  -0.003491
    21  H    0.250785   0.010738
    22  H    0.079883   0.038655
    23  H    0.158042   0.001398
    24  H    0.131636   0.009465
    25  H    0.108371  -0.000056
    26  H    0.119278   0.009339
    27  H    0.154620   0.001488
    28  H    0.207220   0.002785
    29  H    0.151927  -0.001447
    30  H    0.095590  -0.000101
 Sum of Mulliken charges =  -1.00000   1.00000

 Dipole moment (field-independent basis, Debye):
    X=             -6.7030    Y=             -0.8026    Z=              3.9771  Tot=              7.8353
 Quadrupole moment (field-independent basis, Debye-Ang):
   XX=           -118.9034   YY=           -126.1069   ZZ=           -113.2369
   XY=              0.3976   XZ=              2.2286   YZ=              8.0272

 Summary of Natural Population Analysis:

                                       Natural Population
                Natural  -----------------------------------------------
    Atom  No    Charge         Core      Valence    Rydberg      Total
 -----------------------------------------------------------------------
      C    1   -0.27985      0.99966     2.27635    0.00384     3.27985
      C    2   -0.19986      0.99960     2.19261    0.00764     3.19986
      C    3    0.05250      0.99945     1.92801    0.02005     2.94750
      C    4   -0.10916      0.99936     2.09443    0.01536     3.10916
      S    5    0.26023      4.99944     2.71478    0.02555     7.73977
      N    6   -0.07101      0.99981     2.55540    0.01579     3.57101
      N    7   -0.13500      0.99969     2.61338    0.02193     3.63500
      C    8    0.34752      0.99959     1.62929    0.02360     2.65248
      O    9   -0.31151      0.99988     3.30569    0.00594     4.31151
      N   10   -0.32131      0.99967     2.80949    0.01214     3.82131
      C   11   -0.09641      0.99961     2.08420    0.01261     3.09641
      C   12   -0.19906      0.99962     2.19306    0.00638     3.19906
      C   13   -0.00922      0.99959     1.99943    0.01020     3.00922
      O   14   -0.29841      0.99988     3.28631    0.01222     4.29841
      C   15   -0.09788      0.99962     2.08967    0.00858     3.09788
      H   16    0.10882      0.00000     0.39024    0.00094     0.39118
      H   17    0.08384      0.00000     0.41436    0.00180     0.41616
      H   18    0.09559      0.00000     0.40345    0.00096     0.40441
      H   19    0.10238      0.00000     0.39645    0.00117     0.39762
      H   20    0.09415      0.00000     0.40461    0.00124     0.40585
      H   21    0.18233      0.00000     0.31583    0.00184     0.31767
      H   22    0.11624      0.00000     0.38211    0.00165     0.38376
      H   23    0.08729      0.00000     0.41178    0.00093     0.41271
      H   24    0.09535      0.00000     0.40345    0.00120     0.40465
      H   25    0.09262      0.00000     0.40635    0.00104     0.40738
      H   26    0.07215      0.00000     0.42623    0.00162     0.42785
      H   27    0.08671      0.00000     0.41128    0.00202     0.41329
      H   28    0.08710      0.00000     0.41164    0.00127     0.41290
      H   29    0.09768      0.00000     0.40142    0.00089     0.40232
      H   30    0.06621      0.00000     0.43245    0.00134     0.43379
 =======================================================================
   * Total *    0.00000     18.99449    41.78375    0.22176    61.00000

 Normal termination of Gaussian 16 at Thu Dec 10 17:01:47 2020.
