 Gaussian 16, Revision A.03,

 -----------------------------------------------------------
 # opt freq B3LYP/6-31G(d) empiricaldispersion=gd3bj scf=xqc
 -----------------------------------------------------------

 ------------------------------
 CID_10630835_JID_2063_neutraal
 ------------------------------
 Symbolic Z-matrix:
 Charge =  0 Multiplicity = 1

 SCF Done:  E(RB3LYP) =  -498.957599640     A.U. after   15 cycles
 SCF Done:  E(RB3LYP) =  -498.977326114     A.U. after   13 cycles
 SCF Done:  E(RB3LYP) =  -498.978561974     A.U. after   13 cycles
 SCF Done:  E(RB3LYP) =  -498.975933751     A.U. after   13 cycles
 SCF Done:  E(RB3LYP) =  -498.977782713     A.U. after   13 cycles
 SCF Done:  E(RB3LYP) =  -498.978970651     A.U. after   10 cycles
 SCF Done:  E(RB3LYP) =  -498.979162919     A.U. after   12 cycles
 SCF Done:  E(RB3LYP) =  -498.976038322     A.U. after   13 cycles
 SCF Done:  E(RB3LYP) =  -498.979252732     A.U. after   12 cycles
 SCF Done:  E(RB3LYP) =  -498.979379443     A.U. after   11 cycles
 SCF Done:  E(RB3LYP) =  -498.979472691     A.U. after   10 cycles
 SCF Done:  E(RB3LYP) =  -498.979475072     A.U. after    9 cycles
 SCF Done:  E(RB3LYP) =  -498.979476029     A.U. after    8 cycles
 SCF Done:  E(RB3LYP) =  -498.979476096     A.U. after    7 cycles
 SCF Done:  E(RB3LYP) =  -498.979476125     A.U. after    7 cycles
 SCF Done:  E(RB3LYP) =  -498.979476138     A.U. after    7 cycles
 Optimization completed.
    -- Stationary point found.
 Normal termination of Gaussian 16 at Wed Dec  9 16:48:58 2020.

 --------------------------------------------------------------------
 #N Geom=AllCheck Guess=TCheck SCRF=Check GenChk RB3LYP/6-31G(d) Freq
 --------------------------------------------------------------------

 Structure from the checkpoint file:  "JID_2063.chk"
 ------------------------------
 CID_10630835_JID_2063_neutraal
 ------------------------------
 Charge =  0 Multiplicity = 1

 SCF Done:  E(RB3LYP) =  -498.979476138     A.U. after    1 cycles

  Exact polarizability: 128.984   3.422 116.261   8.074   4.647  83.691
 Approx polarizability: 179.839  13.984 168.730  14.955  13.790 134.983

                      1                      2                      3
                      A                      A                      A
 Frequencies --     21.7193                23.6760                54.2000
 Red. masses --      3.1752                 3.4772                 4.3808
 Frc consts  --      0.0009                 0.0011                 0.0076
 IR Inten    --      1.1839                 0.7771                 5.4649

                      4                      5                      6
                      A                      A                      A
 Frequencies --     88.9263               126.5692               141.4948
 Red. masses --      3.2127                 2.5973                 2.5192
 Frc consts  --      0.0150                 0.0245                 0.0297
 IR Inten    --      0.2428                 0.7923                 1.2001

                      7                      8                      9
                      A                      A                      A
 Frequencies --    197.4859               228.0088               253.8989
 Red. masses --      3.1656                 1.8551                 1.7961
 Frc consts  --      0.0727                 0.0568                 0.0682
 IR Inten    --      2.5445                 1.9841                 1.3896

                     10                     11                     12
                      A                      A                      A
 Frequencies --    301.6722               303.6258               370.8556
 Red. masses --      2.7881                 2.6588                 2.7489
 Frc consts  --      0.1495                 0.1444                 0.2227
 IR Inten    --      3.1352                 3.6867                 0.3513

                     13                     14                     15
                      A                      A                      A
 Frequencies --    393.2032               489.9365               511.7705
 Red. masses --      3.5874                 1.4604                 3.5821
 Frc consts  --      0.3268                 0.2065                 0.5528
 IR Inten    --      0.0528                76.7902                 4.3158

                     16                     17                     18
                      A                      A                      A
 Frequencies --    563.7942               644.6074               653.2898
 Red. masses --      3.2217                 2.6979                 3.0626
 Frc consts  --      0.6034                 0.6605                 0.7701
 IR Inten    --      0.9888                10.9037                 3.4664

                     19                     20                     21
                      A                      A                      A
 Frequencies --    681.0764               701.3352               783.8180
 Red. masses --      3.3302                 2.3203                 1.3551
 Frc consts  --      0.9102                 0.6724                 0.4905
 IR Inten    --      4.2541                 1.6551                15.6623

                     22                     23                     24
                      A                      A                      A
 Frequencies --    811.4370               845.5694               866.5379
 Red. masses --      1.3542                 1.3152                 2.4756
 Frc consts  --      0.5253                 0.5540                 1.0952
 IR Inten    --      4.2183                26.3165                 0.1423

                     25                     26                     27
                      A                      A                      A
 Frequencies --    902.3980               920.2829               938.8228
 Red. masses --      1.3654                 2.3569                 3.3069
 Frc consts  --      0.6551                 1.1760                 1.7173
 IR Inten    --      1.0341                 8.9398                 3.7976

                     28                     29                     30
                      A                      A                      A
 Frequencies --    967.4962              1035.5726              1048.4312
 Red. masses --      2.5347                 3.2155                 1.9123
 Frc consts  --      1.3979                 2.0317                 1.2385
 IR Inten    --      2.2600                 9.2096                 1.4062

                     31                     32                     33
                      A                      A                      A
 Frequencies --   1056.2438              1105.0062              1120.7296
 Red. masses --      2.3744                 1.9422                 1.5652
 Frc consts  --      1.5607                 1.3972                 1.1583
 IR Inten    --      1.6711                 1.1477                13.8061

                     34                     35                     36
                      A                      A                      A
 Frequencies --   1133.5345              1155.0978              1174.2381
 Red. masses --      1.5961                 2.3767                 2.5864
 Frc consts  --      1.2083                 1.8684                 2.1012
 IR Inten    --      0.4014                14.5346                 0.4784

                     37                     38                     39
                      A                      A                      A
 Frequencies --   1213.7046              1227.4400              1267.3716
 Red. masses --      1.4263                 1.4111                 1.2382
 Frc consts  --      1.2379                 1.2526                 1.1718
 IR Inten    --      5.4251                 3.6136                 1.3837

                     40                     41                     42
                      A                      A                      A
 Frequencies --   1270.5930              1294.7466              1304.2618
 Red. masses --      1.4196                 1.3660                 1.2553
 Frc consts  --      1.3503                 1.3492                 1.2581
 IR Inten    --      2.1915                 0.1070                 0.6788

                     43                     44                     45
                      A                      A                      A
 Frequencies --   1360.9143              1377.2728              1384.9948
 Red. masses --      2.0285                 1.3386                 1.5525
 Frc consts  --      2.2135                 1.4960                 1.7546
 IR Inten    --      1.9520                 4.9364                25.3770

                     46                     47                     48
                      A                      A                      A
 Frequencies --   1391.1603              1422.8193              1439.9123
 Red. masses --      1.3865                 2.1881                 2.7706
 Frc consts  --      1.5809                 2.6098                 3.3845
 IR Inten    --      9.0379                14.3979                16.8149

                     49                     50                     51
                      A                      A                      A
 Frequencies --   1446.5937              1503.5644              1505.6441
 Red. masses --      1.2626                 1.0945                 1.1696
 Frc consts  --      1.5568                 1.4579                 1.5622
 IR Inten    --      4.1895                 5.6651                11.7527

                     52                     53                     54
                      A                      A                      A
 Frequencies --   1511.2544              1518.1830              1524.8756
 Red. masses --      1.4771                 1.0787                 1.7465
 Frc consts  --      1.9876                 1.4649                 2.3927
 IR Inten    --      7.5788                 2.8868                 9.3477

                     55                     56                     57
                      A                      A                      A
 Frequencies --   1529.0283              1539.0766              1627.1128
 Red. masses --      1.0769                 1.0673                 4.2983
 Frc consts  --      1.4834                 1.4895                 6.7047
 IR Inten    --      4.8553                 3.4137                13.5575

                     58                     59                     60
                      A                      A                      A
 Frequencies --   2371.6147              3019.9381              3023.7346
 Red. masses --     11.8243                 1.0603                 1.0607
 Frc consts  --     39.1845                 5.6973                 5.7140
 IR Inten    --      1.4172                40.5532                28.8706

                     61                     62                     63
                      A                      A                      A
 Frequencies --   3036.0425              3042.9128              3046.0344
 Red. masses --      1.0645                 1.0665                 1.0403
 Frc consts  --      5.7810                 5.8184                 5.6871
 IR Inten    --     21.7306                26.1015                23.0491

                     64                     65                     66
                      A                      A                      A
 Frequencies --   3053.0176              3058.7389              3071.7862
 Red. masses --      1.0963                 1.0946                 1.1027
 Frc consts  --      6.0207                 6.0335                 6.1304
 IR Inten    --     40.8784                40.5048                24.6453

                     67                     68                     69
                      A                      A                      A
 Frequencies --   3083.9571              3113.1054              3136.0471
 Red. masses --      1.1010                 1.1000                 1.1018
 Frc consts  --      6.1696                 6.2812                 6.3843
 IR Inten    --     30.2314                41.1458                22.8004

                     70                     71                     72
                      A                      A                      A
 Frequencies --   3264.1894              3277.7982              3644.6794
 Red. masses --      1.0961                 1.0973                 1.0806
 Frc consts  --      6.8810                 6.9460                 8.4577
 IR Inten    --      5.8604                 3.8875                36.8956

 - Thermochemistry -
 -------------------
 Temperature   298.150 Kelvin.  Pressure   1.00000 Atm.
 Atom     1 has atomic number  6 and mass  12.00000

 Molecular mass:   162.11570 amu.
 Principal axes and moments of inertia in atomic units:
                           1         2         3
     Eigenvalues --  1403.216622993.035083996.17461
           X            0.99909   0.04232   0.00498
           Y           -0.04226   0.99905  -0.01106
           Z           -0.00544   0.01084   0.99993
 This molecule is an asymmetric top.
 Rotational symmetry number  1.
 Warning -- assumption of classical behavior for rotation
           may cause significant error
 Rotational temperatures (Kelvin)      0.06173     0.02894     0.02167
 Rotational constants (GHZ):           1.28615     0.60298     0.45162
 Zero-point vibrational energy     589283.4 (Joules/Mol)
                                  140.84210 (Kcal/Mol)
 Warning -- explicit consideration of  16 degrees of freedom as
           vibrations may cause significant error
 Vibrational temperatures:     31.25    34.06    77.98   127.95   182.10
          (Kelvin)            203.58   284.14   328.05   365.30   434.04
                              436.85   533.58   565.73   704.91   736.32
                              811.17   927.45   939.94   979.92  1009.06
                             1127.74  1167.48  1216.59  1246.75  1298.35
                             1324.08  1350.76  1392.01  1489.96  1508.46
                             1519.70  1589.86  1612.48  1630.90  1661.93
                             1689.47  1746.25  1766.01  1823.47  1828.10
                             1862.85  1876.54  1958.05  1981.59  1992.70
                             2001.57  2047.12  2071.71  2081.33  2163.29
                             2166.29  2174.36  2184.33  2193.96  2199.93
                             2214.39  2341.05  3412.22  4345.02  4350.48
                             4368.19  4378.07  4382.56  4392.61  4400.84
                             4419.62  4437.13  4479.06  4512.07  4696.44
                             4716.02  5243.88

 Zero-point correction=                           0.224446 (Hartree/Particle)
 Thermal correction to Energy=                    0.237017
 Thermal correction to Enthalpy=                  0.237961
 Thermal correction to Gibbs Free Energy=         0.183214
 Sum of electronic and zero-point Energies=           -498.755030
 Sum of electronic and thermal Energies=              -498.742459
 Sum of electronic and thermal Enthalpies=            -498.741515
 Sum of electronic and thermal Free Energies=         -498.796262

                     E (Thermal)             CV                S
                      KCal/Mol        Cal/Mol-Kelvin    Cal/Mol-Kelvin
 Total                  148.731             45.406            115.225
 Electronic               0.000              0.000              0.000
 Translational            0.889              2.981             41.158
 Rotational               0.889              2.981             31.196
 Vibrational            146.953             39.445             42.871
 Vibration     1          0.593              1.985              6.470
 Vibration     2          0.593              1.985              6.299
 Vibration     3          0.596              1.976              4.658
 Vibration     4          0.602              1.957              3.684
 Vibration     5          0.611              1.927              2.998
 Vibration     6          0.615              1.912              2.784
 Vibration     7          0.637              1.843              2.156
 Vibration     8          0.651              1.798              1.895
 Vibration     9          0.665              1.756              1.703
 Vibration    10          0.694              1.671              1.408
 Vibration    11          0.695              1.667              1.397
 Vibration    12          0.743              1.532              1.076
 Vibration    13          0.760              1.485              0.988
 Vibration    14          0.846              1.272              0.684
 Vibration    15          0.867              1.224              0.629
 Vibration    16          0.920              1.110              0.516

                           ! Non-Optimized Parameters !
 Normal termination of Gaussian 16 at Wed Dec  9 16:54:21 2020.

 ----------------------------------------------------------------------
 # B3LYP/6-311++G(d,p) empiricaldispersion=gd3bj scf=xqc pop=npa geom=c
 heck
 ----------------------------------------------------------------------

 --------------------------------------
 CID_10630835_JID_2063_Energie_neutraal
 --------------------------------------
 Structure from the checkpoint file:  "JID_2063.chk"
 Charge =  0 Multiplicity = 1

 SCF Done:  E(RB3LYP) =  -499.119429321     A.U. after   15 cycles
 Normal termination of Gaussian 16 at Wed Dec  9 16:56:25 2020.

 ----------------------------------------------------------------------
 # B3LYP/6-311++G(d,p) empiricaldispersion=gd3bj scf=xqc pop=npa geom=c
 heck
 ----------------------------------------------------------------------

 ------------------------------------
 CID_10630835_JID_2063_Energie_kation
 ------------------------------------
 Structure from the checkpoint file:  "JID_2063.chk"
 Charge =  1 Multiplicity = 2

 SCF Done:  E(UB3LYP) =  -498.822716942     A.U. after   23 cycles
 Normal termination of Gaussian 16 at Wed Dec  9 17:00:35 2020.
 Gaussian 16:  ES64L-G16RevA.03 25-Dec-2016

 ----------------------------------------------------------------------
 # B3LYP/6-311++G(d,p) empiricaldispersion=gd3bj scf=xqc pop=npa geom=c
 heck
 ----------------------------------------------------------------------

 -----------------------------------
 CID_10630835_JID_2063_Energie_anion
 -----------------------------------
 Structure from the checkpoint file:  "JID_2063.chk"
 Charge = -1 Multiplicity = 2

                         Standard orientation:
 ---------------------------------------------------------------------
 Center     Atomic      Atomic             Coordinates (Angstroms)
 Number     Number       Type             X           Y           Z
 ---------------------------------------------------------------------
      1          6           0       -1.993315   -1.879679    0.753922
      2          6           0       -3.007123   -1.279082   -0.220691
      3          6           0       -3.292483    0.215387    0.045656
      4          6           0       -2.095174    1.046775   -0.080676
      5          6           0       -1.068621    1.675088   -0.198505
      6          6           0        0.199204    2.394836   -0.311900
      7          6           0        1.326023    1.773671    0.540011
      8          6           0        1.714644    0.398874    0.093086
      9          6           0        1.239052   -0.454324   -0.877036
     10          7           0        1.961051   -1.632171   -0.903494
     11          6           0        2.867956   -1.503696    0.038377
     12          7           0        2.765447   -0.294307    0.673159
     13          1           0       -1.028517   -1.369086    0.676172
     14          1           0       -1.829246   -2.942013    0.544194
     15          1           0       -2.344160   -1.790462    1.789948
     16          1           0       -2.642535   -1.390060   -1.249167
     17          1           0       -3.958938   -1.822430   -0.160236
     18          1           0       -4.064995    0.571355   -0.649395
     19          1           0       -3.713326    0.328206    1.055243
     20          1           0        0.522133    2.424328   -1.361092
     21          1           0        0.065268    3.438643   -0.000214
     22          1           0        2.197339    2.442825    0.492007
     23          1           0        1.001709    1.756886    1.589738
     24          1           0        0.405429   -0.291489   -1.544254
     25          1           0        3.616107   -2.237166    0.307661
     26          1           0        3.347270    0.038712    1.428272
 ---------------------------------------------------------------------

 SCF Done:  E(UB3LYP) =  -499.108785214     A.U. after   31 cycles

 The electronic state is 2-A.
 Alpha  occ. eigenvalues --  -14.25273 -14.18551 -10.11409 -10.09884 -10.09775
 Alpha  occ. eigenvalues --  -10.09742 -10.08323 -10.08137 -10.07042 -10.06448
 Alpha  occ. eigenvalues --  -10.06211 -10.05985  -0.90387  -0.76184  -0.72018
 Alpha  occ. eigenvalues --   -0.70681  -0.65024  -0.62438  -0.59205  -0.54810
 Alpha  occ. eigenvalues --   -0.50416  -0.50174  -0.47662  -0.43167  -0.40038
 Alpha  occ. eigenvalues --   -0.37866  -0.36399  -0.35787  -0.34122  -0.33063
 Alpha  occ. eigenvalues --   -0.32500  -0.31218  -0.30201  -0.29287  -0.28423
 Alpha  occ. eigenvalues --   -0.27440  -0.26178  -0.25782  -0.24722  -0.17461
 Alpha  occ. eigenvalues --   -0.16799  -0.16045  -0.15944  -0.11802   0.04395
 Alpha virt. eigenvalues --    0.05957   0.07273   0.08280   0.08725   0.09061
 Alpha virt. eigenvalues --    0.09926   0.09997   0.10909   0.11344   0.11916
 Alpha virt. eigenvalues --    0.12255   0.12854   0.13811   0.14397   0.14560

  Beta  occ. eigenvalues --  -14.25211 -14.18553 -10.11397 -10.09869 -10.09758
  Beta  occ. eigenvalues --  -10.09744 -10.08280 -10.08127 -10.07032 -10.06446
  Beta  occ. eigenvalues --  -10.06207 -10.05975  -0.90344  -0.76128  -0.71989
  Beta  occ. eigenvalues --   -0.70647  -0.64995  -0.62407  -0.59171  -0.54752
  Beta  occ. eigenvalues --   -0.50377  -0.50058  -0.47621  -0.43097  -0.40008
  Beta  occ. eigenvalues --   -0.37839  -0.36376  -0.35741  -0.34073  -0.33040
  Beta  occ. eigenvalues --   -0.32470  -0.31195  -0.30184  -0.29226  -0.28371
  Beta  occ. eigenvalues --   -0.27402  -0.26158  -0.25755  -0.24707  -0.17431
  Beta  occ. eigenvalues --   -0.16791  -0.16028  -0.15920  -0.11792
  Beta virt. eigenvalues --    0.06215   0.07508   0.08079   0.08537   0.08994
  Beta virt. eigenvalues --    0.09886   0.10188   0.10392   0.11068   0.11709
  Beta virt. eigenvalues --    0.12239   0.12659   0.13197   0.13720   0.14508

 Mulliken charges and spin densities:
               1          2
     1  C   -0.101142  -0.446847
     2  C   -0.471469   0.491551
     3  C   -1.059808   0.599282
     4  C    1.455906  -1.460862
     5  C    2.409951  -2.549575
     6  C   -2.739264   2.680267
     7  C   -0.757168   0.465222
     8  C    1.289727  -0.850513
     9  C    1.161911  -2.304950
    10  N   -0.147915   0.057390
    11  C    0.203596  -0.082451
    12  N   -0.187142   0.072891
    13  H    0.347509  -0.233105
    14  H    0.061059   0.064178
    15  H   -0.070810   0.197546
    16  H    0.075406   0.049435
    17  H   -0.161679   0.303377
    18  H    0.013202   0.143559
    19  H   -0.086204   0.241841
    20  H   -0.028200   0.225136
    21  H   -0.112681   0.280429
    22  H   -0.812039   1.010828
    23  H   -0.342188   0.531072
    24  H    0.190605  -0.116330
    25  H   -0.451294   0.614266
    26  H   -0.679870   1.016365
 Sum of Mulliken charges =  -1.00000   1.00000

 Dipole moment (field-independent basis, Debye):
    X=             -6.7225    Y=             -1.2667    Z=             -3.6356  Tot=              7.7469
 Quadrupole moment (field-independent basis, Debye-Ang):
   XX=           -143.7707   YY=           -114.3657   ZZ=           -106.9717
   XY=             -4.0515   XZ=            -10.0333   YZ=             -6.6244

 Summary of Natural Population Analysis:

                                       Natural Population
                Natural  -----------------------------------------------
    Atom  No    Charge         Core      Valence    Rydberg      Total
 -----------------------------------------------------------------------
      C    1   -0.28928      0.99966     2.28508    0.00454     3.28928
      C    2   -0.18279      0.99964     2.17462    0.00853     3.18279
      C    3   -0.22212      0.99958     2.21432    0.00822     3.22212
      C    4   -0.01135      0.99925     2.00457    0.00753     3.01135
      C    5   -0.00819      0.99925     2.00154    0.00740     3.00819
      C    6   -0.22035      0.99958     2.21213    0.00864     3.22035
      C    7   -0.19512      0.99959     2.18542    0.01011     3.19512
      C    8    0.05447      0.99953     1.93152    0.01447     2.94553
      C    9   -0.04248      0.99950     2.02949    0.01349     3.04248
      N   10   -0.26061      0.99973     2.75100    0.00988     3.76061
      C   11    0.09918      0.99965     1.88245    0.01872     2.90082
      N   12   -0.26981      0.99966     2.75867    0.01148     3.76981
      H   13    0.11049      0.00000     0.38818    0.00133     0.38951
      H   14    0.09801      0.00000     0.40113    0.00086     0.40199
      H   15    0.09320      0.00000     0.40572    0.00109     0.40680
      H   16    0.09532      0.00000     0.40356    0.00112     0.40468
      H   17    0.09218      0.00000     0.40680    0.00103     0.40782
      H   18    0.10720      0.00000     0.39159    0.00121     0.39280
      H   19    0.10711      0.00000     0.39146    0.00144     0.39289
      H   20    0.10964      0.00000     0.38909    0.00127     0.39036
      H   21    0.11276      0.00000     0.38607    0.00117     0.38724
      H   22    0.10941      0.00000     0.38723    0.00336     0.39059
      H   23    0.10758      0.00000     0.39038    0.00203     0.39242
      H   24    0.09931      0.00000     0.39887    0.00181     0.40069
      H   25    0.09213      0.00000     0.40649    0.00138     0.40787
      H   26    0.21411      0.00000     0.25407    0.03182     0.28589
 =======================================================================
   * Total *   -0.00000     11.99464    31.83144    0.17392    44.00000

 Normal termination of Gaussian 16 at Wed Dec  9 17:06:20 2020.
