 Gaussian 16, Revision A.03,

 -----------------------------------------------------------
 # opt freq B3LYP/6-31G(d) empiricaldispersion=gd3bj scf=xqc
 -----------------------------------------------------------

 ------------------------------
 CID_21652517_JID_1918_neutraal
 ------------------------------
 Symbolic Z-matrix:
 Charge =  0 Multiplicity = 1

 SCF Done:  E(RB3LYP) =  -609.558521314     A.U. after   14 cycles
 SCF Done:  E(RB3LYP) =  -609.563665979     A.U. after   12 cycles
 SCF Done:  E(RB3LYP) =  -609.563748904     A.U. after   12 cycles
 SCF Done:  E(RB3LYP) =  -609.564384291     A.U. after   12 cycles
 SCF Done:  E(RB3LYP) =  -609.564934462     A.U. after   11 cycles
 SCF Done:  E(RB3LYP) =  -609.565110046     A.U. after   11 cycles
 SCF Done:  E(RB3LYP) =  -609.565210173     A.U. after   11 cycles
 SCF Done:  E(RB3LYP) =  -609.565263491     A.U. after   11 cycles
 SCF Done:  E(RB3LYP) =  -609.565224412     A.U. after   11 cycles
 SCF Done:  E(RB3LYP) =  -609.565419079     A.U. after   11 cycles
 SCF Done:  E(RB3LYP) =  -609.567133367     A.U. after   10 cycles
 SCF Done:  E(RB3LYP) =  -609.567139436     A.U. after    9 cycles
 SCF Done:  E(RB3LYP) =  -609.567139793     A.U. after    7 cycles
 SCF Done:  E(RB3LYP) =  -609.567140048     A.U. after    8 cycles
 SCF Done:  E(RB3LYP) =  -609.567140089     A.U. after    7 cycles
 Optimization completed.
    -- Stationary point found.
 Normal termination of Gaussian 16 at Tue Dec  8 21:45:31 2020.

 --------------------------------------------------------------------
 #N Geom=AllCheck Guess=TCheck SCRF=Check GenChk RB3LYP/6-31G(d) Freq
 --------------------------------------------------------------------

 Structure from the checkpoint file:  "JID_1918.chk"
 ------------------------------
 CID_21652517_JID_1918_neutraal
 ------------------------------
 Charge =  0 Multiplicity = 1

 SCF Done:  E(RB3LYP) =  -609.567140089     A.U. after    1 cycles

  Exact polarizability:  96.543  -1.415  72.341  -5.150  -4.011  51.262
 Approx polarizability: 126.583  -9.215 104.161  -5.293 -10.680  81.459

                      1                      2                      3
                      A                      A                      A
 Frequencies --     56.2257                79.9923                83.7275
 Red. masses --      5.2945                 5.2368                 5.1086
 Frc consts  --      0.0099                 0.0197                 0.0211
 IR Inten    --      0.8684                 0.4361                 0.2411

                      4                      5                      6
                      A                      A                      A
 Frequencies --    116.6789               184.8245               235.3652
 Red. masses --      4.6380                 9.2795                 3.0287
 Frc consts  --      0.0372                 0.1868                 0.0989
 IR Inten    --      0.5989                 1.1195                 3.0050

                      7                      8                      9
                      A                      A                      A
 Frequencies --    245.5601               324.5995               339.1995
 Red. masses --      2.4635                 3.2807                 4.5601
 Frc consts  --      0.0875                 0.2037                 0.3091
 IR Inten    --      3.2485                 6.2696                 7.2905

                     10                     11                     12
                      A                      A                      A
 Frequencies --    404.8149               569.5429               579.8425
 Red. masses --      6.0834                 4.2426                 1.1306
 Frc consts  --      0.5874                 0.8108                 0.2240
 IR Inten    --      9.7677                72.3335                96.4319

                     13                     14                     15
                      A                      A                      A
 Frequencies --    598.9634               634.2172               686.7568
 Red. masses --      2.5908                 3.0129                 3.1157
 Frc consts  --      0.5476                 0.7140                 0.8658
 IR Inten    --      3.5357                 0.5959                18.0784

                     16                     17                     18
                      A                      A                      A
 Frequencies --    743.1802               756.0522               787.5015
 Red. masses --      7.1863                 9.6106                11.0425
 Frc consts  --      2.3385                 3.2367                 4.0348
 IR Inten    --      1.2899                12.9763                33.5683

                     19                     20                     21
                      A                      A                      A
 Frequencies --    902.3437               959.4439               967.6305
 Red. masses --      4.6358                 1.3914                 3.5493
 Frc consts  --      2.2239                 0.7546                 1.9580
 IR Inten    --     42.1661                24.2361                13.4578

                     22                     23                     24
                      A                      A                      A
 Frequencies --    971.7709              1009.3324              1034.2316
 Red. masses --      2.8965                 2.4464                 1.2695
 Frc consts  --      1.6116                 1.4684                 0.8000
 IR Inten    --     90.7729                19.1349                23.2495

                     25                     26                     27
                      A                      A                      A
 Frequencies --   1047.8181              1069.7582              1103.7576
 Red. masses --      2.4711                 7.2739                 4.3271
 Frc consts  --      1.5985                 4.9044                 3.1060
 IR Inten    --     55.8512               211.0291                33.5035

                     28                     29                     30
                      A                      A                      A
 Frequencies --   1140.0545              1157.9513              1203.8671
 Red. masses --      2.6908                 2.1558                 2.3941
 Frc consts  --      2.0606                 1.7031                 2.0443
 IR Inten    --     54.2240                60.2135               175.2824

                     31                     32                     33
                      A                      A                      A
 Frequencies --   1231.1514              1246.6882              1314.5295
 Red. masses --      2.0719                 1.1535                 1.2867
 Frc consts  --      1.8503                 1.0563                 1.3100
 IR Inten    --    459.3549                 2.8844                 6.5903

                     34                     35                     36
                      A                      A                      A
 Frequencies --   1333.6444              1352.8384              1386.1049
 Red. masses --      1.3023                 1.2635                 1.4010
 Frc consts  --      1.3647                 1.3625                 1.5859
 IR Inten    --      1.1880                18.8646                 4.3017

                     37                     38                     39
                      A                      A                      A
 Frequencies --   1408.1039              1453.5416              1461.5865
 Red. masses --      1.5223                 1.4564                 1.2314
 Frc consts  --      1.7784                 1.8130                 1.5499
 IR Inten    --    114.1459                51.0742                 7.3492

                     40                     41                     42
                      A                      A                      A
 Frequencies --   1464.7879              1564.4778              1739.1811
 Red. masses --      1.5496                 1.1048                 4.7918
 Frc consts  --      1.9589                 1.5931                 8.5396
 IR Inten    --     99.7348                 7.5490                 3.1847

                     43                     44                     45
                      A                      A                      A
 Frequencies --   1837.9495              3050.0623              3085.5323
 Red. masses --      9.7282                 1.0831                 1.0545
 Frc consts  --     19.3620                 5.9365                 5.9149
 IR Inten    --    352.8699                22.9530                61.9784

                     46                     47                     48
                      A                      A                      A
 Frequencies --   3142.3688              3148.7334              3162.9933
 Red. masses --      1.0903                 1.1148                 1.0807
 Frc consts  --      6.3431                 6.5120                 6.3699
 IR Inten    --     15.2343                36.9455                 9.8139

                     49                     50                     51
                      A                      A                      A
 Frequencies --   3182.8573              3266.4592              3736.0004
 Red. masses --      1.0693                 1.1165                 1.0647
 Frc consts  --      6.3825                 7.0190                 8.7558
 IR Inten    --      8.0193                 7.4479                89.2284

 - Thermochemistry -
 -------------------
 Temperature   298.150 Kelvin.  Pressure   1.00000 Atm.
 Atom     1 has atomic number  6 and mass  12.00000

 Molecular mass:   160.03717 amu.
 Principal axes and moments of inertia in atomic units:
                           1         2         3
     Eigenvalues --   857.801382342.785752704.89101
           X            0.99984   0.01687  -0.00531
           Y           -0.01689   0.99985  -0.00261
           Z            0.00526   0.00270   0.99998
 This molecule is an asymmetric top.
 Rotational symmetry number  1.
 Warning -- assumption of classical behavior for rotation
           may cause significant error
 Rotational temperatures (Kelvin)      0.10097     0.03697     0.03202
 Rotational constants (GHZ):           2.10392     0.77034     0.66721
 Zero-point vibrational energy     386182.0 (Joules/Mol)
                                   92.29972 (Kcal/Mol)
 Warning -- explicit consideration of  13 degrees of freedom as
           vibrations may cause significant error
 Vibrational temperatures:     80.90   115.09   120.47   167.87   265.92
          (Kelvin)            338.64   353.31   467.03   488.03   582.44
                              819.45   834.26   861.77   912.50   988.09
                             1069.27  1087.79  1133.04  1298.27  1380.43
                             1392.20  1398.16  1452.20  1488.03  1507.58
                             1539.14  1588.06  1640.28  1666.03  1732.10
                             1771.35  1793.71  1891.31  1918.82  1946.43
                             1994.30  2025.95  2091.32  2102.90  2107.50
                             2250.93  2502.29  2644.40  4388.36  4439.39
                             4521.17  4530.33  4550.84  4579.42  4699.71
                             5375.27

 Zero-point correction=                           0.147089 (Hartree/Particle)
 Thermal correction to Energy=                    0.157165
 Thermal correction to Enthalpy=                  0.158110
 Thermal correction to Gibbs Free Energy=         0.110570
 Sum of electronic and zero-point Energies=           -609.420051
 Sum of electronic and thermal Energies=              -609.409975
 Sum of electronic and thermal Enthalpies=            -609.409031
 Sum of electronic and thermal Free Energies=         -609.456570

                     E (Thermal)             CV                S
                      KCal/Mol        Cal/Mol-Kelvin    Cal/Mol-Kelvin
 Total                   98.623             36.456            100.056
 Electronic               0.000              0.000              0.000
 Translational            0.889              2.981             41.120
 Rotational               0.889              2.981             30.076
 Vibrational             96.845             30.495             28.860
 Vibration     1          0.596              1.975              4.585
 Vibration     2          0.600              1.963              3.891
 Vibration     3          0.601              1.960              3.802
 Vibration     4          0.608              1.936              3.155
 Vibration     5          0.631              1.861              2.279
 Vibration     6          0.655              1.787              1.838
 Vibration     7          0.660              1.770              1.762
 Vibration     8          0.709              1.626              1.287
 Vibration     9          0.719              1.597              1.216
 Vibration    10          0.770              1.460              0.945
 Vibration    11          0.926              1.097              0.505
 Vibration    12          0.936              1.075              0.486
 Vibration    13          0.957              1.034              0.451

 Optimization completed.
    -- Stationary point found.
 Normal termination of Gaussian 16 at Tue Dec  8 21:50:05 2020.

 ----------------------------------------------------------------------
 # B3LYP/6-311++G(d,p) empiricaldispersion=gd3bj scf=xqc pop=npa geom=c
 heck
 ----------------------------------------------------------------------

 --------------------------------------
 CID_21652517_JID_1918_Energie_neutraal
 --------------------------------------
 Structure from the checkpoint file:  "JID_1918.chk"
 Charge =  0 Multiplicity = 1

 SCF Done:  E(RB3LYP) =  -609.759227033     A.U. after   13 cycles
 Normal termination of Gaussian 16 at Tue Dec  8 21:51:45 2020.

 ----------------------------------------------------------------------
 # B3LYP/6-311++G(d,p) empiricaldispersion=gd3bj scf=xqc pop=npa geom=c
 heck
 ----------------------------------------------------------------------

 ------------------------------------
 CID_21652517_JID_1918_Energie_kation
 ------------------------------------
 Structure from the checkpoint file:  "JID_1918.chk"
 Charge =  1 Multiplicity = 2

 SCF Done:  E(UB3LYP) =  -609.408343530     A.U. after   22 cycles
 Normal termination of Gaussian 16 at Tue Dec  8 21:55:07 2020.
 Gaussian 16:  ES64L-G16RevA.03 25-Dec-2016

 ----------------------------------------------------------------------
 # B3LYP/6-311++G(d,p) empiricaldispersion=gd3bj scf=xqc pop=npa geom=c
 heck
 ----------------------------------------------------------------------

 -----------------------------------
 CID_21652517_JID_1918_Energie_anion
 -----------------------------------
 Structure from the checkpoint file:  "JID_1918.chk"
 Charge = -1 Multiplicity = 2

                         Standard orientation:
 ---------------------------------------------------------------------
 Center     Atomic      Atomic             Coordinates (Angstroms)
 Number     Number       Type             X           Y           Z
 ---------------------------------------------------------------------
      1          6           0       -3.355927   -1.061708   -0.125486
      2          6           0       -2.058038   -1.338713   -0.221089
      3          6           0       -0.980303   -0.311417   -0.404380
      4          6           0       -0.090265   -0.134662    0.865448
      5          8           0       -0.050078    1.230974    1.107837
      6          6           0       -0.625593    1.896145   -0.021815
      7          8           0       -1.530034    0.985159   -0.594070
      8          8           0        1.218655   -0.741946    0.747743
      9          6           0        2.065153   -0.291000   -0.184896
     10          8           0        1.855155    0.546335   -1.035870
     11          8           0        3.230637   -0.946452   -0.035211
     12          1           0       -3.715650   -0.040458   -0.193480
     13          1           0       -4.091920   -1.847924    0.012502
     14          1           0       -1.698189   -2.365364   -0.161374
     15          1           0       -0.337093   -0.581414   -1.252022
     16          1           0       -0.486087   -0.648732    1.741544
     17          1           0       -1.178432    2.766874    0.337598
     18          1           0        0.166461    2.173655   -0.723651
     19          1           0        3.816082   -0.601055   -0.731237
 ---------------------------------------------------------------------

 SCF Done:  E(UB3LYP) =  -609.743700838     A.U. after   33 cycles
 SCF Done:  E(UB3LYP) =  -609.743700838     a.u. after    1 cycles

 The electronic state is 2-A.
 Alpha  occ. eigenvalues --  -19.08319 -19.06884 -19.06188 -19.05281 -19.01833
 Alpha  occ. eigenvalues --  -10.25660 -10.20347 -10.18044 -10.14819 -10.08639
 Alpha  occ. eigenvalues --  -10.07262  -1.05793  -1.02169  -0.96445  -0.93077
 Alpha  occ. eigenvalues --   -0.92504  -0.71995  -0.66038  -0.59804  -0.57384
 Alpha  occ. eigenvalues --   -0.51126  -0.48240  -0.45898  -0.43845  -0.41570
 Alpha  occ. eigenvalues --   -0.40841  -0.39970  -0.37613  -0.36528  -0.35164
 Alpha  occ. eigenvalues --   -0.33990  -0.32673  -0.31018  -0.28146  -0.27450
 Alpha  occ. eigenvalues --   -0.26617  -0.24287  -0.22789  -0.21323  -0.20054
 Alpha  occ. eigenvalues --   -0.18705  -0.17272   0.04799
 Alpha virt. eigenvalues --    0.06317   0.07381   0.08682   0.08995   0.09451
 Alpha virt. eigenvalues --    0.10499   0.11082   0.11716   0.12384   0.13428
 Alpha virt. eigenvalues --    0.14717   0.15455   0.15956   0.17205   0.17790

  Beta  occ. eigenvalues --  -19.08300 -19.06801 -19.06187 -19.05275 -19.01815
  Beta  occ. eigenvalues --  -10.25657 -10.20338 -10.18033 -10.14810 -10.08623
  Beta  occ. eigenvalues --  -10.07233  -1.05743  -1.02142  -0.96364  -0.93007
  Beta  occ. eigenvalues --   -0.92490  -0.71962  -0.65992  -0.59749  -0.57351
  Beta  occ. eigenvalues --   -0.51031  -0.48196  -0.45841  -0.43807  -0.41528
  Beta  occ. eigenvalues --   -0.40812  -0.39928  -0.37566  -0.36473  -0.35106
  Beta  occ. eigenvalues --   -0.33964  -0.32626  -0.30978  -0.28120  -0.27427
  Beta  occ. eigenvalues --   -0.26583  -0.24250  -0.22748  -0.21299  -0.20021
  Beta  occ. eigenvalues --   -0.18683  -0.17248
  Beta virt. eigenvalues --    0.07109   0.08062   0.08448   0.08762   0.09555
  Beta virt. eigenvalues --    0.10098   0.10891   0.11379   0.11868   0.12751
  Beta virt. eigenvalues --    0.13616   0.14852   0.15402   0.16377   0.17474

 Mulliken charges and spin densities:
               1          2
     1  C    1.728223  -2.346331
     2  C   -1.108012   1.467995
     3  C    0.490922  -0.639968
     4  C    0.256203  -0.767254
     5  O   -0.161033   0.022955
     6  C    0.106662  -0.272759
     7  O   -0.208544   0.025886
     8  O    0.030476  -0.046392
     9  C    0.862445  -0.690035
    10  O   -0.297072   0.016631
    11  O   -0.243001   0.039381
    12  H   -0.001189   0.141773
    13  H   -0.655660   0.804027
    14  H   -0.760707   0.973151
    15  H   -0.078887   0.348238
    16  H   -0.115910   0.371363
    17  H   -0.080923   0.251726
    18  H    0.123551   0.085048
    19  H   -0.887542   1.214566
 Sum of Mulliken charges =  -1.00000   1.00000

 Dipole moment (field-independent basis, Debye):
    X=             -2.8667    Y=              5.2299    Z=              1.6914  Tot=              6.1993
 Quadrupole moment (field-independent basis, Debye-Ang):
   XX=           -148.8488   YY=            -99.0635   ZZ=            -89.6833
   XY=             -7.1904   XZ=              8.0459   YZ=             -0.2904

 Summary of Natural Population Analysis:

                                       Natural Population
                Natural  -----------------------------------------------
    Atom  No    Charge         Core      Valence    Rydberg      Total
 -----------------------------------------------------------------------
      C    1   -0.18017      0.99955     2.17238    0.00823     3.18017
      C    2   -0.10360      0.99955     2.09204    0.01201     3.10360
      C    3    0.02713      0.99952     1.95747    0.01587     2.97287
      C    4    0.21439      0.99955     1.76674    0.01932     2.78561
      O    5   -0.29214      0.99987     3.28474    0.00752     4.29214
      C    6    0.14952      0.99963     1.83644    0.01441     2.85048
      O    7   -0.29451      0.99988     3.28629    0.00834     4.29451
      O    8   -0.28195      0.99985     3.27252    0.00959     4.28195
      C    9    0.51382      0.99976     1.45724    0.02918     2.48618
      O   10   -0.32980      0.99986     3.32330    0.00664     4.32980
      O   11   -0.33294      0.99987     3.32638    0.00669     4.33294
      H   12    0.09823      0.00000     0.40030    0.00147     0.40177
      H   13    0.09885      0.00000     0.39884    0.00231     0.40115
      H   14    0.10290      0.00000     0.39483    0.00226     0.39710
      H   15    0.10274      0.00000     0.39538    0.00187     0.39726
      H   16    0.09212      0.00000     0.40632    0.00157     0.40788
      H   17    0.07846      0.00000     0.41989    0.00165     0.42154
      H   18    0.08403      0.00000     0.41434    0.00163     0.41597
      H   19    0.25292      0.00000     0.18461    0.06247     0.24708
 =======================================================================
   * Total *   -0.00000     10.99691    30.79004    0.21305    42.00000

 Normal termination of Gaussian 16 at Tue Dec  8 21:59:51 2020.
