 Gaussian 16, Revision A.03,

 -----------------------------------------------------------
 # opt freq B3LYP/6-31G(d) empiricaldispersion=gd3bj scf=xqc
 -----------------------------------------------------------

 ------------------------------
 CID_91526751_JID_2985_neutraal
 ------------------------------
 Symbolic Z-matrix:
 Charge =  0 Multiplicity = 1

 SCF Done:  E(RB3LYP) =  -508.902336941     A.U. after   12 cycles
 SCF Done:  E(RB3LYP) =  -508.904233400     A.U. after   10 cycles
 SCF Done:  E(RB3LYP) =  -508.904414906     A.U. after   10 cycles
 SCF Done:  E(RB3LYP) =  -508.904476871     A.U. after    9 cycles
 SCF Done:  E(RB3LYP) =  -508.904509949     A.U. after    9 cycles
 SCF Done:  E(RB3LYP) =  -508.904513028     A.U. after    8 cycles
 SCF Done:  E(RB3LYP) =  -508.904514501     A.U. after    7 cycles
 SCF Done:  E(RB3LYP) =  -508.904515121     A.U. after    7 cycles
 SCF Done:  E(RB3LYP) =  -508.904515465     A.U. after    7 cycles
 SCF Done:  E(RB3LYP) =  -508.904515550     A.U. after    6 cycles
 SCF Done:  E(RB3LYP) =  -508.904515559     A.U. after    6 cycles
 Optimization completed.
    -- Stationary point found.
 Normal termination of Gaussian 16 at Wed Dec  9 18:21:50 2020.

 --------------------------------------------------------------------
 #N Geom=AllCheck Guess=TCheck SCRF=Check GenChk RB3LYP/6-31G(d) Freq
 --------------------------------------------------------------------

 Structure from the checkpoint file:  "JID_2985.chk"
 ------------------------------
 CID_91526751_JID_2985_neutraal
 ------------------------------
 Charge =  0 Multiplicity = 1

 SCF Done:  E(RB3LYP) =  -508.904515559     A.U. after    1 cycles

  Exact polarizability: 139.874  -0.121 117.288   0.749  -1.548 104.376
 Approx polarizability: 163.354  -2.996 159.465   1.615  -0.554 157.911

                      1                      2                      3
                      A                      A                      A
 Frequencies --     32.6943                46.0733                56.9048
 Red. masses --      3.3821                 2.6579                 3.2195
 Frc consts  --      0.0021                 0.0033                 0.0061
 IR Inten    --      0.0586                 0.2810                 0.1592

                      4                      5                      6
                      A                      A                      A
 Frequencies --     69.3651                77.1903               105.9365
 Red. masses --      3.1369                 2.4252                 2.0493
 Frc consts  --      0.0089                 0.0085                 0.0135
 IR Inten    --      0.7654                 0.0605                 0.0583

                      7                      8                      9
                      A                      A                      A
 Frequencies --    153.1170               161.9400               182.5142
 Red. masses --      1.8632                 2.4610                 1.8507
 Frc consts  --      0.0257                 0.0380                 0.0363
 IR Inten    --      0.0736                 2.4879                 0.7984

                     10                     11                     12
                      A                      A                      A
 Frequencies --    209.1180               219.4854               258.3319
 Red. masses --      1.9798                 1.5609                 1.6592
 Frc consts  --      0.0510                 0.0443                 0.0652
 IR Inten    --      1.8454                 0.3581                 0.2672

                     13                     14                     15
                      A                      A                      A
 Frequencies --    264.6388               301.5367               307.8410
 Red. masses --      1.3732                 1.7819                 1.9159
 Frc consts  --      0.0567                 0.0955                 0.1070
 IR Inten    --      0.1333                 0.6256                 0.0469

                     16                     17                     18
                      A                      A                      A
 Frequencies --    334.3299               387.1084               402.2451
 Red. masses --      2.0813                 1.8659                 2.5174
 Frc consts  --      0.1371                 0.1647                 0.2400
 IR Inten    --      0.0480                 1.5664                 2.7796

                     19                     20                     21
                      A                      A                      A
 Frequencies --    433.9529               489.1661               554.2874
 Red. masses --      2.2439                 2.1235                 2.7245
 Frc consts  --      0.2490                 0.2994                 0.4932
 IR Inten    --      1.2499                 0.3863                 1.0732

                     22                     23                     24
                      A                      A                      A
 Frequencies --    632.5823               712.2996               756.7396
 Red. masses --      2.3521                 1.5408                 1.3743
 Frc consts  --      0.5545                 0.4606                 0.4637
 IR Inten    --      1.9734                 4.9108                 6.4789

                     25                     26                     27
                      A                      A                      A
 Frequencies --    780.5192               795.9100               813.2474
 Red. masses --      1.4423                 1.3959                 2.0287
 Frc consts  --      0.5177                 0.5210                 0.7905
 IR Inten    --      0.1645                 1.5866                 3.2891

                     28                     29                     30
                      A                      A                      A
 Frequencies --    863.1999               895.1301               911.0510
 Red. masses --      1.5410                 2.5217                 2.1282
 Frc consts  --      0.6765                 1.1905                 1.0407
 IR Inten    --      2.4251                 3.1613                 2.3715

                     31                     32                     33
                      A                      A                      A
 Frequencies --    923.3965               939.7899               945.6364
 Red. masses --      1.9134                 1.4492                 1.4138
 Frc consts  --      0.9612                 0.7541                 0.7449
 IR Inten    --      5.2562                 5.8073                 1.5331

                     34                     35                     36
                      A                      A                      A
 Frequencies --    994.3275              1006.2227              1038.3003
 Red. masses --      1.8287                 1.4947                 1.6958
 Frc consts  --      1.0652                 0.8916                 1.0771
 IR Inten    --      0.3944                 4.2377                 6.6587

                     37                     38                     39
                      A                      A                      A
 Frequencies --   1044.8537              1070.4636              1079.1570
 Red. masses --      1.8731                 1.9127                 1.4529
 Frc consts  --      1.2048                 1.2913                 0.9969
 IR Inten    --     37.6068                 6.7060                 2.1611

                     40                     41                     42
                      A                      A                      A
 Frequencies --   1104.7603              1120.3321              1134.5766
 Red. masses --      2.1744                 2.4286                 1.8399
 Frc consts  --      1.5636                 1.7960                 1.3955
 IR Inten    --     50.7453                37.3772                 7.1859

                     43                     44                     45
                      A                      A                      A
 Frequencies --   1148.2116              1173.1461              1183.8133
 Red. masses --      2.1298                 2.2776                 2.4671
 Frc consts  --      1.6543                 1.8468                 2.0371
 IR Inten    --      6.9695                64.1869                21.1692

                     46                     47                     48
                      A                      A                      A
 Frequencies --   1196.1953              1229.5057              1258.1643
 Red. masses --      1.8530                 1.3317                 1.4327
 Frc consts  --      1.5621                 1.1861                 1.3363
 IR Inten    --      9.7778                12.9710                 3.5263

                     49                     50                     51
                      A                      A                      A
 Frequencies --   1284.1317              1306.8320              1322.1972
 Red. masses --      1.1676                 1.2334                 1.1703
 Frc consts  --      1.1344                 1.2411                 1.2055
 IR Inten    --      1.7864                 1.7103                 0.4509

                     52                     53                     54
                      A                      A                      A
 Frequencies --   1326.9351              1341.8970              1371.1082
 Red. masses --      1.1449                 1.1729                 1.3129
 Frc consts  --      1.1878                 1.2443                 1.4542
 IR Inten    --     16.2824                 2.7563                 1.9633

                     55                     56                     57
                      A                      A                      A
 Frequencies --   1379.2051              1392.8222              1397.3703
 Red. masses --      1.4764                 1.4395                 1.3592
 Frc consts  --      1.6547                 1.6454                 1.5637
 IR Inten    --      9.1803                 3.1755                 5.0167

                     58                     59                     60
                      A                      A                      A
 Frequencies --   1408.1783              1414.2967              1421.6612
 Red. masses --      1.3823                 1.3362                 1.3020
 Frc consts  --      1.6149                 1.5747                 1.5504
 IR Inten    --      1.1672                 2.9906                 5.6260

                     61                     62                     63
                      A                      A                      A
 Frequencies --   1428.9657              1439.1646              1443.7490
 Red. masses --      1.3564                 1.3818                 1.2678
 Frc consts  --      1.6318                 1.6863                 1.5570
 IR Inten    --      1.8918                 3.6796                 6.3939

                     64                     65                     66
                      A                      A                      A
 Frequencies --   1446.0506              1446.5822              1506.6340
 Red. masses --      1.2867                 1.2932                 1.0785
 Frc consts  --      1.5853                 1.5944                 1.4424
 IR Inten    --      6.7018                17.2470                 3.2588

                     67                     68                     69
                      A                      A                      A
 Frequencies --   1509.5462              1514.6622              1520.0472
 Red. masses --      1.0808                 1.0736                 1.0717
 Frc consts  --      1.4511                 1.4512                 1.4590
 IR Inten    --      1.5286                 1.6996                 1.7552

                     70                     71                     72
                      A                      A                      A
 Frequencies --   1524.7962              1527.6130              1530.8098
 Red. masses --      1.0457                 1.0535                 1.0725
 Frc consts  --      1.4325                 1.4484                 1.4808
 IR Inten    --      6.2164                 1.1363                11.7824

                     73                     74                     75
                      A                      A                      A
 Frequencies --   1535.0173              1536.9503              1539.9295
 Red. masses --      1.0666                 1.0582                 1.0557
 Frc consts  --      1.4807                 1.4727                 1.4750
 IR Inten    --      7.4461                 4.5719                 1.4795

                     76                     77                     78
                      A                      A                      A
 Frequencies --   1541.4966              1546.0666              1560.0795
 Red. masses --      1.0580                 1.0804                 1.0803
 Frc consts  --      1.4813                 1.5216                 1.5491
 IR Inten    --      9.3609                 1.4664                 2.9177

                     79                     80                     81
                      A                      A                      A
 Frequencies --   3002.5314              3028.5541              3036.6002
 Red. masses --      1.0614                 1.0630                 1.0632
 Frc consts  --      5.6376                 5.7444                 5.7764
 IR Inten    --     41.2989                21.0170                28.9875

                     82                     83                     84
                      A                      A                      A
 Frequencies --   3037.8944              3040.3216              3042.4389
 Red. masses --      1.0703                 1.0734                 1.0534
 Frc consts  --      5.8195                 5.8457                 5.7452
 IR Inten    --      5.1637                 8.8004                18.2800

                     85                     86                     87
                      A                      A                      A
 Frequencies --   3045.9434              3046.0600              3048.2826
 Red. masses --      1.0464                 1.0426                 1.0762
 Frc consts  --      5.7197                 5.6999                 5.8916
 IR Inten    --     21.5353                22.3783                40.7562

                     88                     89                     90
                      A                      A                      A
 Frequencies --   3051.8488              3053.0027              3056.6081
 Red. masses --      1.0690                 1.0629                 1.0590
 Frc consts  --      5.8661                 5.8371                 5.8295
 IR Inten    --     33.9447                51.6247                20.6447

                     91                     92                     93
                      A                      A                      A
 Frequencies --   3062.0056              3070.2852              3078.1293
 Red. masses --      1.0940                 1.0986                 1.0992
 Frc consts  --      6.0436                 6.1014                 6.1360
 IR Inten    --     18.1735                43.9382                75.1389

                     94                     95                     96
                      A                      A                      A
 Frequencies --   3081.8237              3082.3557              3093.0370
 Red. masses --      1.0997                 1.1003                 1.1012
 Frc consts  --      6.1540                 6.1592                 6.2068
 IR Inten    --     20.7183                38.1813                84.8233

                     97                     98                     99
                      A                      A                      A
 Frequencies --   3109.4893              3109.5717              3112.2262
 Red. masses --      1.1009                 1.1007                 1.1011
 Frc consts  --      6.2715                 6.2708                 6.2840
 IR Inten    --     12.8367               100.7813                40.2954

                    100                    101                    102
                      A                      A                      A
 Frequencies --   3116.5213              3133.5523              3138.9832
 Red. masses --      1.1019                 1.1008                 1.1010
 Frc consts  --      6.3059                 6.3684                 6.3915
 IR Inten    --     48.2604                41.2402                27.9724

 - Thermochemistry -
 -------------------
 Temperature   298.150 Kelvin.  Pressure   1.00000 Atm.
 Atom     1 has atomic number  6 and mass  12.00000

 Molecular mass:   172.18272 amu.
 Principal axes and moments of inertia in atomic units:
                           1         2         3
     Eigenvalues --  1243.909844401.293165085.12489
           X            0.99997   0.00776   0.00066
           Y           -0.00776   0.99996  -0.00481
           Z           -0.00070   0.00480   0.99999
 This molecule is an asymmetric top.
 Rotational symmetry number  1.
 Warning -- assumption of classical behavior for rotation
           may cause significant error
 Rotational temperatures (Kelvin)      0.06963     0.01968     0.01703
 Rotational constants (GHZ):           1.45086     0.41005     0.35491
 Zero-point vibrational energy     890872.0 (Joules/Mol)
                                  212.92352 (Kcal/Mol)
 Warning -- explicit consideration of  21 degrees of freedom as
           vibrations may cause significant error
 Vibrational temperatures:     47.04    66.29    81.87    99.80   111.06
          (Kelvin)            152.42   220.30   233.00   262.60   300.87
                              315.79   371.68   380.76   433.84   442.91
                              481.03   556.96   578.74   624.36   703.80
                              797.50   910.14  1024.84  1088.78  1122.99
                             1145.14  1170.08  1241.95  1287.89  1310.80
                             1328.56  1352.15  1360.56  1430.62  1447.73
                             1493.88  1503.31  1540.16  1552.67  1589.50
                             1611.91  1632.40  1652.02  1687.90  1703.24
                             1721.06  1768.98  1810.22  1847.58  1880.24
                             1902.35  1909.16  1930.69  1972.72  1984.37
                             2003.96  2010.50  2026.05  2034.86  2045.45
                             2055.96  2070.64  2077.23  2080.54  2081.31
                             2167.71  2171.90  2179.26  2187.01  2193.84
                             2197.89  2202.49  2208.55  2211.33  2215.62
                             2217.87  2224.44  2244.61  4319.97  4357.41
                             4368.99  4370.85  4374.34  4377.39  4382.43
                             4382.60  4385.80  4390.93  4392.59  4397.78
                             4405.54  4417.46  4428.74  4434.06  4434.82
                             4450.19  4473.86  4473.98  4477.80  4483.98
                             4508.48  4516.30

 Zero-point correction=                           0.339315 (Hartree/Particle)
 Thermal correction to Energy=                    0.354829
 Thermal correction to Enthalpy=                  0.355774
 Thermal correction to Gibbs Free Energy=         0.295771
 Sum of electronic and zero-point Energies=           -508.565200
 Sum of electronic and thermal Energies=              -508.549686
 Sum of electronic and thermal Enthalpies=            -508.548742
 Sum of electronic and thermal Free Energies=         -508.608745

                     E (Thermal)             CV                S
                      KCal/Mol        Cal/Mol-Kelvin    Cal/Mol-Kelvin
 Total                  222.659             56.469            126.286
 Electronic               0.000              0.000              0.000
 Translational            0.889              2.981             41.338
 Rotational               0.889              2.981             31.699
 Vibrational            220.881             50.508             53.250
 Vibration     1          0.594              1.983              5.659
 Vibration     2          0.595              1.979              4.979
 Vibration     3          0.596              1.975              4.562
 Vibration     4          0.598              1.969              4.171
 Vibration     5          0.599              1.964              3.961
 Vibration     6          0.605              1.944              3.342
 Vibration     7          0.619              1.899              2.633
 Vibration     8          0.622              1.889              2.527
 Vibration     9          0.630              1.864              2.303
 Vibration    10          0.642              1.827              2.051
 Vibration    11          0.647              1.811              1.963
 Vibration    12          0.667              1.749              1.673
 Vibration    13          0.671              1.738              1.631
 Vibration    14          0.694              1.671              1.408
 Vibration    15          0.698              1.659              1.374
 Vibration    16          0.716              1.607              1.239
 Vibration    17          0.756              1.498              1.011
 Vibration    18          0.768              1.465              0.954
 Vibration    19          0.795              1.396              0.846
 Vibration    20          0.845              1.274              0.686
 Vibration    21          0.910              1.130              0.535

                           ! Non-Optimized Parameters !
 Normal termination of Gaussian 16 at Wed Dec  9 18:30:35 2020.

 ----------------------------------------------------------------------
 # B3LYP/6-311++G(d,p) empiricaldispersion=gd3bj scf=xqc pop=npa geom=c
 heck
 ----------------------------------------------------------------------

 --------------------------------------
 CID_91526751_JID_2985_Energie_neutraal
 --------------------------------------
 Structure from the checkpoint file:  "JID_2985.chk"
 Charge =  0 Multiplicity = 1

 SCF Done:  E(RB3LYP) =  -509.050466994     A.U. after   12 cycles
 Normal termination of Gaussian 16 at Wed Dec  9 18:33:51 2020.

 ----------------------------------------------------------------------
 # B3LYP/6-311++G(d,p) empiricaldispersion=gd3bj scf=xqc pop=npa geom=c
 heck
 ----------------------------------------------------------------------

 ------------------------------------
 CID_91526751_JID_2985_Energie_kation
 ------------------------------------
 Structure from the checkpoint file:  "JID_2985.chk"
 Charge =  1 Multiplicity = 2

 SCF Done:  E(UB3LYP) =  -508.726234320     A.U. after   21 cycles
 Normal termination of Gaussian 16 at Wed Dec  9 18:41:13 2020.
 Gaussian 16:  ES64L-G16RevA.03 25-Dec-2016

 ----------------------------------------------------------------------
 # B3LYP/6-311++G(d,p) empiricaldispersion=gd3bj scf=xqc pop=npa geom=c
 heck
 ----------------------------------------------------------------------

 -----------------------------------
 CID_91526751_JID_2985_Energie_anion
 -----------------------------------
 Structure from the checkpoint file:  "JID_2985.chk"
 Charge = -1 Multiplicity = 2

                         Standard orientation:
 ---------------------------------------------------------------------
 Center     Atomic      Atomic             Coordinates (Angstroms)
 Number     Number       Type             X           Y           Z
 ---------------------------------------------------------------------
      1          6           0       -4.087168   -1.490288    0.335292
      2          6           0       -3.332366   -0.783072   -0.794201
      3          6           0       -2.932640    0.663336   -0.465362
      4          6           0       -2.022727    0.824245    0.763909
      5          6           0       -0.719189    0.010047    0.731182
      6          6           0        0.177463    0.290989   -0.481896
      7          6           0        0.603818    1.760566   -0.645360
      8          6           0        1.367855    2.396714    0.519907
      9          8           0        1.305466   -0.591650   -0.565124
     10          6           0        1.974582   -0.978395    0.626885
     11          6           0        3.314458   -1.582934    0.223343
     12          6           0        4.239791   -0.570953   -0.455337
     13          1           0       -3.462896   -1.609923    1.227794
     14          1           0       -4.414371   -2.489315    0.026750
     15          1           0       -4.978589   -0.922131    0.629163
     16          1           0       -2.438968   -1.365146   -1.055959
     17          1           0       -3.958847   -0.773216   -1.695610
     18          1           0       -2.446256    1.104929   -1.344970
     19          1           0       -3.843888    1.254200   -0.297800
     20          1           0       -1.786412    1.888593    0.888678
     21          1           0       -2.578665    0.537054    1.665120
     22          1           0       -0.169763    0.204572    1.659161
     23          1           0       -0.952751   -1.061818    0.732936
     24          1           0       -0.394577    0.038137   -1.382870
     25          1           0        1.217628    1.814590   -1.552491
     26          1           0       -0.298872    2.351489   -0.850373
     27          1           0        2.342433    1.922069    0.666432
     28          1           0        1.548399    3.459369    0.322609
     29          1           0        0.812351    2.328492    1.462190
     30          1           0        2.143156   -0.123151    1.295603
     31          1           0        1.379419   -1.717957    1.183996
     32          1           0        3.791373   -1.994480    1.122937
     33          1           0        3.122974   -2.426969   -0.451022
     34          1           0        4.479697    0.258162    0.222643
     35          1           0        5.183516   -1.035024   -0.761994
     36          1           0        3.756918   -0.150854   -1.342105
 ---------------------------------------------------------------------

 SCF Done:  E(UB3LYP) =  -509.034238710     A.U. after   28 cycles

 The electronic state is 2-A.
 Alpha  occ. eigenvalues --  -19.01653 -10.11795 -10.11221 -10.07112 -10.06611
 Alpha  occ. eigenvalues --  -10.06580 -10.06540 -10.06470 -10.06406 -10.06201
 Alpha  occ. eigenvalues --  -10.05958 -10.05753  -0.92760  -0.71799  -0.69345
 Alpha  occ. eigenvalues --   -0.67306  -0.64681  -0.60518  -0.58508  -0.55260
 Alpha  occ. eigenvalues --   -0.52501  -0.49392  -0.47136  -0.43930  -0.40194
 Alpha  occ. eigenvalues --   -0.39028  -0.37443  -0.35679  -0.35364  -0.34279
 Alpha  occ. eigenvalues --   -0.32673  -0.32111  -0.31206  -0.30562  -0.29857
 Alpha  occ. eigenvalues --   -0.28568  -0.27787  -0.26908  -0.26077  -0.25699
 Alpha  occ. eigenvalues --   -0.24935  -0.24750  -0.24028  -0.23626  -0.22896
 Alpha  occ. eigenvalues --   -0.22040  -0.21670  -0.19241  -0.15189   0.04463
 Alpha virt. eigenvalues --    0.06184   0.06851   0.07235   0.08207   0.08367
 Alpha virt. eigenvalues --    0.08824   0.09660   0.09816   0.10475   0.11040
 Alpha virt. eigenvalues --    0.11147   0.11698   0.11894   0.12648   0.13216

  Beta  occ. eigenvalues --  -19.01647 -10.11794 -10.11206 -10.07098 -10.06599
  Beta  occ. eigenvalues --  -10.06565 -10.06521 -10.06455 -10.06390 -10.06181
  Beta  occ. eigenvalues --  -10.05925 -10.05716  -0.92749  -0.71773  -0.69317
  Beta  occ. eigenvalues --   -0.67276  -0.64643  -0.60479  -0.58462  -0.55209
  Beta  occ. eigenvalues --   -0.52435  -0.49338  -0.47080  -0.43880  -0.40169
  Beta  occ. eigenvalues --   -0.39001  -0.37413  -0.35654  -0.35329  -0.34256
  Beta  occ. eigenvalues --   -0.32647  -0.32079  -0.31173  -0.30524  -0.29828
  Beta  occ. eigenvalues --   -0.28520  -0.27754  -0.26872  -0.26039  -0.25666
  Beta  occ. eigenvalues --   -0.24907  -0.24727  -0.24003  -0.23588  -0.22860
  Beta  occ. eigenvalues --   -0.22010  -0.21634  -0.19213  -0.15174
  Beta virt. eigenvalues --    0.06453   0.06980   0.07485   0.07735   0.08623
  Beta virt. eigenvalues --    0.08764   0.09250   0.10061   0.10109   0.10854
  Beta virt. eigenvalues --    0.11367   0.11558   0.12035   0.12138   0.12922

 Mulliken charges and spin densities:
               1          2
     1  C    1.258672  -1.898408
     2  C   -0.890713   0.735053
     3  C    0.290262  -0.558425
     4  C   -0.070247  -0.282917
     5  C   -0.123510  -0.190314
     6  C    0.348744  -0.400657
     7  C   -1.105634   0.832721
     8  C    0.912769  -1.512738
     9  O   -0.085080   0.036433
    10  C    0.360092  -0.401420
    11  C   -0.397387  -0.029986
    12  C    0.395433  -0.863355
    13  H   -0.392980   0.531618
    14  H   -0.209536   0.344979
    15  H   -0.205356   0.344848
    16  H    0.073457   0.064151
    17  H   -0.340125   0.495194
    18  H   -0.040099   0.161030
    19  H   -0.254414   0.415257
    20  H   -0.127604   0.303868
    21  H   -0.026292   0.200532
    22  H   -0.112404   0.267573
    23  H    0.503335  -0.281255
    24  H    0.117397   0.113279
    25  H   -0.038009   0.183507
    26  H    0.113995   0.027207
    27  H    0.165144  -0.033175
    28  H   -0.357842   0.500893
    29  H   -0.206774   0.356296
    30  H   -0.056156   0.205359
    31  H   -0.317228   0.451821
    32  H   -0.114224   0.250636
    33  H    0.054106   0.087466
    34  H   -0.182009   0.310660
    35  H   -0.105550   0.245082
    36  H    0.165765  -0.012814
 Sum of Mulliken charges =  -1.00000   1.00000

 Dipole moment (field-independent basis, Debye):
    X=              2.4562    Y=             -0.2402    Z=             -2.1896  Tot=              3.2992
 Quadrupole moment (field-independent basis, Debye-Ang):
   XX=           -171.2954   YY=           -126.5753   ZZ=           -114.5563
   XY=             -6.5229   XZ=             -1.7518   YZ=             -1.1672

 Summary of Natural Population Analysis:

                                       Natural Population
                Natural  -----------------------------------------------
    Atom  No    Charge         Core      Valence    Rydberg      Total
 -----------------------------------------------------------------------
      C    1   -0.28732      0.99967     2.28264    0.00501     3.28732
      C    2   -0.19306      0.99964     2.18486    0.00856     3.19306
      C    3   -0.19016      0.99963     2.18198    0.00856     3.19016
      C    4   -0.19069      0.99962     2.18234    0.00873     3.19069
      C    5   -0.20968      0.99960     2.20105    0.00902     3.20968
      C    6    0.07439      0.99952     1.91334    0.01276     2.92561
      C    7   -0.20249      0.99961     2.19338    0.00950     3.20249
      C    8   -0.29027      0.99966     2.28515    0.00545     3.29027
      O    9   -0.31202      0.99988     3.30246    0.00968     4.31202
      C   10   -0.01090      0.99956     1.99846    0.01287     3.01090
      C   11   -0.19633      0.99964     2.18823    0.00846     3.19633
      C   12   -0.28673      0.99966     2.28251    0.00456     3.28673
      H   13    0.09702      0.00000     0.40177    0.00121     0.40298
      H   14    0.09873      0.00000     0.40023    0.00104     0.40127
      H   15    0.09627      0.00000     0.40241    0.00132     0.40373
      H   16    0.09332      0.00000     0.40535    0.00133     0.40668
      H   17    0.09546      0.00000     0.40345    0.00109     0.40454
      H   18    0.09366      0.00000     0.40506    0.00128     0.40634
      H   19    0.09708      0.00000     0.40174    0.00117     0.40292
      H   20    0.09815      0.00000     0.40051    0.00134     0.40185
      H   21    0.09910      0.00000     0.39968    0.00121     0.40090
      H   22    0.10170      0.00000     0.39674    0.00156     0.39830
      H   23    0.10141      0.00000     0.39710    0.00148     0.39859
      H   24    0.08813      0.00000     0.40999    0.00188     0.41187
      H   25    0.09837      0.00000     0.40053    0.00110     0.40163
      H   26    0.09704      0.00000     0.40179    0.00117     0.40296
      H   27    0.09742      0.00000     0.40114    0.00144     0.40258
      H   28    0.09950      0.00000     0.39950    0.00100     0.40050
      H   29    0.09765      0.00000     0.40108    0.00127     0.40235
      H   30    0.07986      0.00000     0.41824    0.00191     0.42014
      H   31    0.08138      0.00000     0.41708    0.00155     0.41862
      H   32    0.09566      0.00000     0.40326    0.00108     0.40434
      H   33    0.09544      0.00000     0.40337    0.00119     0.40456
      H   34    0.09513      0.00000     0.40350    0.00137     0.40487
      H   35    0.09508      0.00000     0.40399    0.00092     0.40492
      H   36    0.10271      0.00000     0.39584    0.00144     0.39729
 =======================================================================
   * Total *   -0.00000     11.99569    36.86976    0.13454    49.00000

 Normal termination of Gaussian 16 at Wed Dec  9 18:50:51 2020.
