 Gaussian 16, Revision A.03,

 -----------------------------------------------------------
 # opt freq B3LYP/6-31G(d) empiricaldispersion=gd3bj scf=xqc
 -----------------------------------------------------------

 --------------------------------
 CID_106515147_JID_10880_neutraal
 --------------------------------
 Symbolic Z-matrix:
 Charge =  0 Multiplicity = 1

 SCF Done:  E(RB3LYP) =  -1240.62020923     A.U. after   15 cycles
 SCF Done:  E(RB3LYP) =  -1240.62811170     A.U. after   12 cycles
 SCF Done:  E(RB3LYP) =  -1240.62922228     A.U. after   12 cycles
 SCF Done:  E(RB3LYP) =  -1240.62975023     A.U. after   12 cycles
 SCF Done:  E(RB3LYP) =  -1240.62976808     A.U. after   13 cycles
 SCF Done:  E(RB3LYP) =  -1240.63098635     A.U. after   13 cycles
 SCF Done:  E(RB3LYP) =  -1240.63187697     A.U. after   13 cycles
 SCF Done:  E(RB3LYP) =  -1240.63286766     A.U. after   14 cycles
 SCF Done:  E(RB3LYP) =  -1240.63359186     A.U. after   16 cycles
 SCF Done:  E(RB3LYP) =  -1240.63359489     A.U. after   14 cycles
 SCF Done:  E(RB3LYP) =  -1240.63446882     A.U. after    9 cycles
 SCF Done:  E(RB3LYP) =  -1240.63446964     A.U. after    9 cycles
 SCF Done:  E(RB3LYP) =  -1240.63446977     A.U. after    8 cycles
 SCF Done:  E(RB3LYP) =  -1240.63446978     A.U. after    7 cycles
 SCF Done:  E(RB3LYP) =  -1240.63446979     A.U. after    6 cycles
 Optimization completed.
    -- Stationary point found.
 Normal termination of Gaussian 16 at Mon Dec 14 14:06:09 2020.

 --------------------------------------------------------------------
 #N Geom=AllCheck Guess=TCheck SCRF=Check GenChk RB3LYP/6-31G(d) Freq
 --------------------------------------------------------------------

 Structure from the checkpoint file:  "JID_10880.chk"
 --------------------------------
 CID_106515147_JID_10880_neutraal
 --------------------------------
 Charge =  0 Multiplicity = 1

 SCF Done:  E(RB3LYP) =  -1240.63446979     A.U. after    1 cycles

  Exact polarizability: 333.583 -20.664 199.369 -13.018   4.131 114.161
 Approx polarizability: 480.571 -70.411 332.637 -32.367   6.078 185.965

                      1                      2                      3
                      A                      A                      A
 Frequencies --     19.4674                28.0833                33.4852
 Red. masses --      3.2114                 5.6314                 4.0696
 Frc consts  --      0.0007                 0.0026                 0.0027
 IR Inten    --      0.1307                 2.9551                 0.3218

                      4                      5                      6
                      A                      A                      A
 Frequencies --     53.3841                67.0518                70.8860
 Red. masses --      4.6725                 4.4020                 3.1439
 Frc consts  --      0.0078                 0.0117                 0.0093
 IR Inten    --      2.0375                 1.4353                 2.3545

                      7                      8                      9
                      A                      A                      A
 Frequencies --     96.9704               110.4283               152.6430
 Red. masses --      4.8354                 3.5425                 2.5363
 Frc consts  --      0.0268                 0.0255                 0.0348
 IR Inten    --      1.0975                 1.3803                 0.4378

                     10                     11                     12
                      A                      A                      A
 Frequencies --    185.4417               195.1929               199.8036
 Red. masses --      2.5274                 1.2822                 5.1740
 Frc consts  --      0.0512                 0.0288                 0.1217
 IR Inten    --      2.9676                 0.6164                 0.5553

                     13                     14                     15
                      A                      A                      A
 Frequencies --    211.0283               238.2898               250.1377
 Red. masses --      1.5895                 2.2021                 1.5674
 Frc consts  --      0.0417                 0.0737                 0.0578
 IR Inten    --      0.7638                 0.7202                 0.3963

                     16                     17                     18
                      A                      A                      A
 Frequencies --    272.1132               275.4594               312.9772
 Red. masses --      3.8971                 2.8011                 3.5238
 Frc consts  --      0.1700                 0.1252                 0.2034
 IR Inten    --      1.1799                 2.8376                 1.8887

                     19                     20                     21
                      A                      A                      A
 Frequencies --    327.2479               348.0681               365.0874
 Red. masses --      2.9742                 4.0678                 2.9775
 Frc consts  --      0.1877                 0.2904                 0.2338
 IR Inten    --      3.2470                 2.0718                 5.8529

                     22                     23                     24
                      A                      A                      A
 Frequencies --    396.0726               436.5412               444.5175
 Red. masses --      4.1316                 3.4710                 9.3884
 Frc consts  --      0.3819                 0.3897                 1.0930
 IR Inten    --      0.9267                 6.1445                 8.3514

                     25                     26                     27
                      A                      A                      A
 Frequencies --    481.3821               486.9679               494.7558
 Red. masses --      3.0967                 3.7812                 4.0799
 Frc consts  --      0.4228                 0.5283                 0.5884
 IR Inten    --     24.9517                 5.8825                 2.8236

                     28                     29                     30
                      A                      A                      A
 Frequencies --    547.3607               569.8945               588.7453
 Red. masses --      3.8398                 5.3609                 1.3581
 Frc consts  --      0.6778                 1.0258                 0.2774
 IR Inten    --      1.6380                18.2823                48.2535

                     31                     32                     33
                      A                      A                      A
 Frequencies --    605.6550               615.4746               650.8772
 Red. masses --      5.1489                 6.1172                 5.4394
 Frc consts  --      1.1128                 1.3653                 1.3577
 IR Inten    --      8.5076                 3.8155                 1.6498

                     34                     35                     36
                      A                      A                      A
 Frequencies --    686.0062               730.3982               756.5698
 Red. masses --      4.9847                 5.0109                 4.9222
 Frc consts  --      1.3821                 1.5750                 1.6600
 IR Inten    --     10.3943                 0.9962                 3.6763

                     37                     38                     39
                      A                      A                      A
 Frequencies --    764.4908               768.0485               819.5723
 Red. masses --      3.6408                 4.5490                 1.1783
 Frc consts  --      1.2537                 1.5810                 0.4663
 IR Inten    --      9.1117                 4.8477                 2.3693

                     40                     41                     42
                      A                      A                      A
 Frequencies --    830.1856               831.8463               869.8938
 Red. masses --      1.1970                 1.4558                 5.1759
 Frc consts  --      0.4861                 0.5935                 2.3076
 IR Inten    --      0.1525                27.3298                12.4080

                     43                     44                     45
                      A                      A                      A
 Frequencies --    875.9339               910.3767               920.1637
 Red. masses --      2.9913                 1.4349                 2.4073
 Frc consts  --      1.3522                 0.7007                 1.2009
 IR Inten    --     19.2926                15.1702                15.3471

                     46                     47                     48
                      A                      A                      A
 Frequencies --    931.2505               947.7627               964.1065
 Red. masses --      1.3999                 1.2848                 2.8215
 Frc consts  --      0.7153                 0.6799                 1.5452
 IR Inten    --      1.8799                 2.2077                25.5751

                     49                     50                     51
                      A                      A                      A
 Frequencies --   1047.3038              1063.2791              1069.5794
 Red. masses --      2.0993                 3.3791                 2.1234
 Frc consts  --      1.3566                 2.2509                 1.4312
 IR Inten    --     74.6293                62.6526                18.5166

                     52                     53                     54
                      A                      A                      A
 Frequencies --   1071.2590              1087.1113              1123.0038
 Red. masses --      2.0126                 4.1987                 2.7179
 Frc consts  --      1.3608                 2.9236                 2.0195
 IR Inten    --     12.4528                32.0370                97.4547

                     55                     56                     57
                      A                      A                      A
 Frequencies --   1127.6720              1136.7465              1167.0828
 Red. masses --      2.0031                 1.9995                 1.9521
 Frc consts  --      1.5008                 1.5223                 1.5666
 IR Inten    --     65.6141                10.4120                69.0968

                     58                     59                     60
                      A                      A                      A
 Frequencies --   1193.5599              1204.0589              1207.6905
 Red. masses --      1.4859                 2.2262                 2.0614
 Frc consts  --      1.2472                 1.9015                 1.7714
 IR Inten    --     47.9832                 8.9374                19.8279

                     61                     62                     63
                      A                      A                      A
 Frequencies --   1236.8779              1255.0128              1277.4095
 Red. masses --      2.7102                 3.2111                 2.1976
 Frc consts  --      2.4429                 2.9799                 2.1128
 IR Inten    --     34.1543               235.5978               244.1034

                     64                     65                     66
                      A                      A                      A
 Frequencies --   1304.5974              1313.3621              1325.3108
 Red. masses --      1.6923                 2.0859                 1.3904
 Frc consts  --      1.6970                 2.1199                 1.4388
 IR Inten    --    217.1152                 9.6296                 5.9462

                     67                     68                     69
                      A                      A                      A
 Frequencies --   1337.6963              1354.0113              1378.2197
 Red. masses --      1.6931                 2.6138                 3.4468
 Frc consts  --      1.7850                 2.8233                 3.8575
 IR Inten    --     96.2540                35.2428                80.2294

                     70                     71                     72
                      A                      A                      A
 Frequencies --   1412.2661              1421.9289              1429.7990
 Red. masses --      1.3303                 1.3071                 1.5181
 Frc consts  --      1.5633                 1.5571                 1.8285
 IR Inten    --     27.3935                 0.7834                43.3933

                     73                     74                     75
                      A                      A                      A
 Frequencies --   1439.5703              1445.3277              1445.8343
 Red. masses --      1.4970                 1.2989                 1.2624
 Frc consts  --      1.8278                 1.5987                 1.5549
 IR Inten    --     29.8738                21.4509                16.8338

                     76                     77                     78
                      A                      A                      A
 Frequencies --   1464.0592              1496.5550              1502.2101
 Red. masses --      2.4684                 1.4664                 1.1551
 Frc consts  --      3.1174                 1.9350                 1.5358
 IR Inten    --      6.8628                33.0674                13.2683

                     79                     80                     81
                      A                      A                      A
 Frequencies --   1514.1911              1516.3154              1521.9903
 Red. masses --      1.0422                 1.0428                 1.8714
 Frc consts  --      1.4078                 1.4126                 2.5541
 IR Inten    --      7.4475                 3.9507               109.2243

                     82                     83                     84
                      A                      A                      A
 Frequencies --   1528.2028              1531.8006              1542.6328
 Red. masses --      1.0613                 1.0533                 1.1194
 Frc consts  --      1.4604                 1.4562                 1.5696
 IR Inten    --      0.6149                 1.4464                22.7073

                     85                     86                     87
                      A                      A                      A
 Frequencies --   1548.9328              1559.4233              1622.2356
 Red. masses --      1.1232                 2.8009                 6.0749
 Frc consts  --      1.5877                 4.0131                 9.4193
 IR Inten    --      9.4092               314.7701                47.6313

                     88                     89                     90
                      A                      A                      A
 Frequencies --   1629.7143              1662.8554              1673.4858
 Red. masses --      3.4638                 6.0286                 7.2071
 Frc consts  --      5.4203                 9.8215                11.8920
 IR Inten    --     78.1614                42.3104               397.6648

                     91                     92                     93
                      A                      A                      A
 Frequencies --   3040.0153              3055.4844              3059.6766
 Red. masses --      1.0678                 1.0675                 1.0394
 Frc consts  --      5.8141                 5.8718                 5.7329
 IR Inten    --     56.3391                41.1496                 8.5825

                     94                     95                     96
                      A                      A                      A
 Frequencies --   3061.0650              3065.2431              3114.4934
 Red. masses --      1.0361                 1.0361                 1.0984
 Frc consts  --      5.7198                 5.7356                 6.2774
 IR Inten    --     24.3412                12.6384                 5.8368

                     97                     98                     99
                      A                      A                      A
 Frequencies --   3114.6255              3120.5253              3131.7872
 Red. masses --      1.0963                 1.0990                 1.1001
 Frc consts  --      6.2660                 6.3050                 6.3570
 IR Inten    --      7.4231                11.0971                31.7113

                    100                    101                    102
                      A                      A                      A
 Frequencies --   3135.5136              3149.3547              3149.8354
 Red. masses --      1.1012                 1.1040                 1.1036
 Frc consts  --      6.3788                 6.4518                 6.4514
 IR Inten    --     29.7584                31.0535                36.0940

                    103                    104                    105
                      A                      A                      A
 Frequencies --   3156.8017              3183.0125              3203.0237
 Red. masses --      1.1023                 1.0923                 1.0905
 Frc consts  --      6.4720                 6.5200                 6.5914
 IR Inten    --     16.4284                23.1419                 3.4472

                    106                    107                    108
                      A                      A                      A
 Frequencies --   3217.7428              3235.0121              3612.3548
 Red. masses --      1.0883                 1.0930                 1.0785
 Frc consts  --      6.6390                 6.7395                 8.2915
 IR Inten    --      5.3222                 8.5863                81.7603

 - Thermochemistry -
 -------------------
 Temperature   298.150 Kelvin.  Pressure   1.00000 Atm.
 Atom     1 has atomic number  6 and mass  12.00000

 Molecular mass:   290.10890 amu.
 Principal axes and moments of inertia in atomic units:
                           1         2         3
     Eigenvalues --  2752.73490********************
           X            1.00000   0.00156   0.00120
           Y           -0.00157   0.99999   0.00318
           Z           -0.00120  -0.00318   0.99999
 This molecule is an asymmetric top.
 Rotational symmetry number  1.
 Warning -- assumption of classical behavior for rotation
           may cause significant error
 Rotational temperatures (Kelvin)      0.03146     0.00667     0.00575
 Rotational constants (GHZ):           0.65562     0.13897     0.11973
 Zero-point vibrational energy     817850.0 (Joules/Mol)
                                  195.47084 (Kcal/Mol)
 Warning -- explicit consideration of  32 degrees of freedom as
           vibrations may cause significant error
 Vibrational temperatures:     28.01    40.41    48.18    76.81    96.47
          (Kelvin)            101.99   139.52   158.88   219.62   266.81
                              280.84   287.47   303.62   342.85   359.89
                              391.51   396.32   450.30   470.84   500.79
                              525.28   569.86   628.09   639.56   692.60
                              700.64   711.84   787.53   819.95   847.07
                              871.40   885.53   936.47   987.01  1050.88
                             1088.54  1099.93  1105.05  1179.18  1194.45
                             1196.84  1251.58  1260.27  1309.83  1323.91
                             1339.86  1363.62  1387.13  1506.84  1529.82
                             1538.89  1541.30  1564.11  1615.75  1622.47
                             1635.52  1679.17  1717.27  1732.37  1737.60
                             1779.59  1805.68  1837.91  1877.02  1889.64
                             1906.83  1924.65  1948.12  1982.95  2031.94
                             2045.84  2057.16  2071.22  2079.50  2080.23
                             2106.45  2153.21  2161.35  2178.58  2181.64
                             2189.80  2198.74  2203.92  2219.50  2228.57
                             2243.66  2334.04  2344.80  2392.48  2407.77
                             4373.90  4396.16  4402.19  4404.19  4410.20
                             4481.06  4481.25  4489.74  4505.94  4511.30
                             4531.22  4531.91  4541.93  4579.65  4608.44
                             4629.61  4654.46  5197.37

 Zero-point correction=                           0.311503 (Hartree/Particle)
 Thermal correction to Energy=                    0.331223
 Thermal correction to Enthalpy=                  0.332168
 Thermal correction to Gibbs Free Energy=         0.260950
 Sum of electronic and zero-point Energies=          -1240.322967
 Sum of electronic and thermal Energies=             -1240.303246
 Sum of electronic and thermal Enthalpies=           -1240.302302
 Sum of electronic and thermal Free Energies=        -1240.373519

                     E (Thermal)             CV                S
                      KCal/Mol        Cal/Mol-Kelvin    Cal/Mol-Kelvin
 Total                  207.846             73.604            149.889
 Electronic               0.000              0.000              0.000
 Translational            0.889              2.981             42.893
 Rotational               0.889              2.981             34.643
 Vibrational            206.068             67.642             72.354
 Vibration     1          0.593              1.986              6.688
 Vibration     2          0.593              1.984              5.960
 Vibration     3          0.594              1.983              5.611
 Vibration     4          0.596              1.976              4.688
 Vibration     5          0.598              1.970              4.238
 Vibration     6          0.598              1.968              4.129
 Vibration     7          0.603              1.951              3.514
 Vibration     8          0.606              1.941              3.261
 Vibration     9          0.619              1.900              2.639
 Vibration    10          0.632              1.860              2.273
 Vibration    11          0.636              1.847              2.178
 Vibration    12          0.638              1.840              2.135
 Vibration    13          0.643              1.824              2.035
 Vibration    14          0.656              1.782              1.816
 Vibration    15          0.663              1.763              1.730
 Vibration    16          0.675              1.725              1.583
 Vibration    17          0.677              1.719              1.562
 Vibration    18          0.701              1.649              1.347
 Vibration    19          0.711              1.621              1.274
 Vibration    20          0.726              1.579              1.175
 Vibration    21          0.738              1.544              1.100
 Vibration    22          0.763              1.479              0.977
 Vibration    23          0.797              1.391              0.838
 Vibration    24          0.804              1.373              0.813
 Vibration    25          0.838              1.291              0.706
 Vibration    26          0.843              1.279              0.692
 Vibration    27          0.850              1.262              0.671
 Vibration    28          0.903              1.145              0.550
 Vibration    29          0.926              1.096              0.504
 Vibration    30          0.946              1.056              0.469
 Vibration    31          0.964              1.020              0.440
 Vibration    32          0.975              0.999              0.424

 Optimization completed.
    -- Stationary point found.
 Normal termination of Gaussian 16 at Mon Dec 14 14:23:45 2020.

 ----------------------------------------------------------------------
 # B3LYP/6-311++G(d,p) empiricaldispersion=gd3bj scf=xqc pop=npa geom=c
 heck
 ----------------------------------------------------------------------

 ----------------------------------------
 CID_106515147_JID_10880_Energie_neutraal
 ----------------------------------------
 Structure from the checkpoint file:  "JID_10880.chk"
 Charge =  0 Multiplicity = 1

 SCF Done:  E(RB3LYP) =  -1240.88597371     A.U. after   16 cycles
 Normal termination of Gaussian 16 at Mon Dec 14 14:31:18 2020.

 ----------------------------------------------------------------------
 # B3LYP/6-311++G(d,p) empiricaldispersion=gd3bj scf=xqc pop=npa geom=c
 heck
 ----------------------------------------------------------------------

 --------------------------------------
 CID_106515147_JID_10880_Energie_kation
 --------------------------------------
 Structure from the checkpoint file:  "JID_10880.chk"
 Charge =  1 Multiplicity = 2

 SCF Done:  E(UB3LYP) =  -1240.62680713     A.U. after   27 cycles
 Normal termination of Gaussian 16 at Mon Dec 14 14:48:34 2020.
 Gaussian 16:  ES64L-G16RevA.03 25-Dec-2016

 ----------------------------------------------------------------------
 # B3LYP/6-311++G(d,p) empiricaldispersion=gd3bj scf=xqc pop=npa geom=c
 heck
 ----------------------------------------------------------------------

 -------------------------------------
 CID_106515147_JID_10880_Energie_anion
 -------------------------------------
 Structure from the checkpoint file:  "JID_10880.chk"
 Charge = -1 Multiplicity = 2

                         Standard orientation:
 ---------------------------------------------------------------------
 Center     Atomic      Atomic             Coordinates (Angstroms)
 Number     Number       Type             X           Y           Z
 ---------------------------------------------------------------------
      1          6           0       -4.108348   -2.982861   -0.434656
      2          6           0       -4.281617   -1.935129    0.656435
      3          8           0       -3.725681   -0.668102    0.283536
      4          6           0       -2.376375   -0.493764    0.302240
      5          6           0       -1.908961    0.727863   -0.239099
      6          6           0       -0.545021    0.988158   -0.271248
      7          6           0        0.390616    0.060696    0.220129
      8          6           0       -0.083759   -1.131061    0.775748
      9          6           0       -1.450182   -1.406478    0.814734
     10          6           0        1.831724    0.381938    0.197705
     11          6           0        2.857356   -0.428201   -0.222240
     12          6           0        4.236381    0.049583   -0.095898
     13         16           0        5.551797   -0.922063   -0.441661
     14          7           0        4.450918    1.360352    0.329052
     15          6           0        3.440030    2.082795    0.675083
     16          7           0        2.147808    1.654838    0.650226
     17          6           0        2.613474   -1.781451   -0.824106
     18          8           0       -2.762035    1.622166   -0.817589
     19          6           0       -3.776371    2.217364    0.019411
     20          6           0       -5.086091    2.231611   -0.743953
     21          1           0       -4.558480   -2.631281   -1.367872
     22          1           0       -4.602327   -3.915061   -0.139299
     23          1           0       -3.053197   -3.198971   -0.624562
     24          1           0       -5.340429   -1.720290    0.820089
     25          1           0       -3.859195   -2.264590    1.613712
     26          1           0       -0.224913    1.916144   -0.735847
     27          1           0        0.615817   -1.847015    1.192408
     28          1           0       -1.783221   -2.343561    1.243756
     29          1           0        3.592411    3.105029    1.016971
     30          1           0        1.406814    2.237339    1.016777
     31          1           0        3.233955   -1.893437   -1.718319
     32          1           0        2.931509   -2.578189   -0.141533
     33          1           0        1.563635   -1.930323   -1.083308
     34          1           0       -3.873028    1.653486    0.950571
     35          1           0       -3.444939    3.235105    0.264977
     36          1           0       -5.406134    1.206481   -0.949800
     37          1           0       -5.863228    2.737848   -0.160221
     38          1           0       -4.970289    2.759069   -1.696150
 ---------------------------------------------------------------------

 SCF Done:  E(UB3LYP) =  -1240.90151835     A.U. after   33 cycles
 SCF Done:  E(UB3LYP) =  -1240.90151835     a.u. after    1 cycles

 The electronic state is 2-A.
 Alpha  occ. eigenvalues --  -88.62821 -19.06181 -19.04583 -14.24345 -14.17329
 Alpha  occ. eigenvalues --  -10.15411 -10.13984 -10.12777 -10.12431 -10.12245
 Alpha  occ. eigenvalues --  -10.09412 -10.08815 -10.08628 -10.08170 -10.07238
 Alpha  occ. eigenvalues --  -10.06514 -10.06443 -10.06267 -10.05114 -10.03473
 Alpha  occ. eigenvalues --   -7.71615  -5.67938  -5.67606  -5.67126  -0.98373
 Alpha  occ. eigenvalues --   -0.95725  -0.87894  -0.77935  -0.75105  -0.70182
 Alpha  occ. eigenvalues --   -0.69063  -0.68349  -0.64381  -0.62935  -0.59113
 Alpha  occ. eigenvalues --   -0.58630  -0.56192  -0.54710  -0.51638  -0.50657
 Alpha  occ. eigenvalues --   -0.49319  -0.46233  -0.44852  -0.43847  -0.41954
 Alpha  occ. eigenvalues --   -0.40946  -0.39243  -0.38461  -0.37599  -0.36229
 Alpha  occ. eigenvalues --   -0.35220  -0.34541  -0.34025  -0.33588  -0.32081
 Alpha  occ. eigenvalues --   -0.31847  -0.31513  -0.30675  -0.29395  -0.29114
 Alpha  occ. eigenvalues --   -0.27982  -0.27433  -0.27259  -0.26505  -0.26243
 Alpha  occ. eigenvalues --   -0.25992  -0.23468  -0.23067  -0.20629  -0.20388
 Alpha  occ. eigenvalues --   -0.19412  -0.16182  -0.14487  -0.13254  -0.11815
 Alpha  occ. eigenvalues --   -0.07220  -0.05098   0.03251
 Alpha virt. eigenvalues --    0.04905   0.05988   0.06892   0.07341   0.08063
 Alpha virt. eigenvalues --    0.08557   0.08601   0.09110   0.09260   0.09601
 Alpha virt. eigenvalues --    0.10615   0.11136   0.11340   0.11382   0.11940

  Beta  occ. eigenvalues --  -88.62761 -19.06131 -19.04588 -14.24149 -14.17317
  Beta  occ. eigenvalues --  -10.15411 -10.13986 -10.12745 -10.12502 -10.11984
  Beta  occ. eigenvalues --  -10.09400 -10.08815 -10.08276 -10.07847 -10.07281
  Beta  occ. eigenvalues --  -10.06425 -10.06354 -10.06123 -10.05165 -10.03472
  Beta  occ. eigenvalues --   -7.71561  -5.67916  -5.67409  -5.67091  -0.98252
  Beta  occ. eigenvalues --   -0.95717  -0.87547  -0.77626  -0.74880  -0.69974
  Beta  occ. eigenvalues --   -0.69009  -0.68166  -0.64149  -0.62738  -0.58914
  Beta  occ. eigenvalues --   -0.58290  -0.56078  -0.54649  -0.51549  -0.50494
  Beta  occ. eigenvalues --   -0.49095  -0.45991  -0.44697  -0.43730  -0.41838
  Beta  occ. eigenvalues --   -0.40859  -0.39046  -0.38421  -0.37402  -0.36120
  Beta  occ. eigenvalues --   -0.35083  -0.34424  -0.33913  -0.33394  -0.32006
  Beta  occ. eigenvalues --   -0.31775  -0.30958  -0.30621  -0.29319  -0.28906
  Beta  occ. eigenvalues --   -0.27833  -0.27237  -0.27119  -0.26452  -0.26151
  Beta  occ. eigenvalues --   -0.25768  -0.23369  -0.22547  -0.20112  -0.19755
  Beta  occ. eigenvalues --   -0.19064  -0.15201  -0.13897  -0.13144  -0.11063
  Beta  occ. eigenvalues --   -0.06148  -0.04934
  Beta virt. eigenvalues --    0.04896   0.05877   0.06840   0.07266   0.07928
  Beta virt. eigenvalues --    0.08419   0.08621   0.08983   0.09145   0.09503
  Beta virt. eigenvalues --    0.09632   0.10549   0.11040   0.11337   0.11726

 Mulliken charges and spin densities:
               1          2
     1  C   -0.225802  -0.181027
     2  C   -0.222184   0.043886
     3  O   -0.109263   0.007836
     4  C    0.372081   0.213056
     5  C   -0.593523   0.055985
     6  C   -0.271982   0.043095
     7  C    0.873009  -0.026069
     8  C   -0.633113   0.055586
     9  C   -0.398096  -0.035135
    10  C    0.019480   0.204141
    11  C    0.331711  -0.085830
    12  C   -0.475156   0.176287
    13  S   -0.966207   0.139515
    14  N    0.014637   0.002876
    15  C    0.277615  -0.003252
    16  N   -0.111058   0.071149
    17  C   -0.655202   0.006614
    18  O   -0.079822   0.002974
    19  C   -0.075395  -0.069688
    20  C   -0.474566   0.002886
    21  H    0.119937   0.024637
    22  H    0.016114   0.103073
    23  H    0.117030   0.037952
    24  H    0.126646   0.039084
    25  H    0.117972   0.008610
    26  H    0.213735  -0.015246
    27  H    0.200903  -0.004258
    28  H    0.124679   0.016984
    29  H    0.126784   0.031412
    30  H    0.217274   0.066163
    31  H    0.132927  -0.003115
    32  H    0.120183   0.013097
    33  H    0.110848  -0.005510
    34  H    0.142105   0.016306
    35  H    0.103545   0.046737
    36  H    0.164800  -0.000650
    37  H    0.105533  -0.000095
    38  H    0.141825  -0.000064
 Sum of Mulliken charges =  -1.00000   1.00000

 Dipole moment (field-independent basis, Debye):
    X=            -16.6270    Y=              1.9527    Z=              2.4973  Tot=             16.9266
 Quadrupole moment (field-independent basis, Debye-Ang):
   XX=           -252.7586   YY=           -137.6046   ZZ=           -138.2963
   XY=             10.0735   XZ=              2.3367   YZ=              0.1552

 Summary of Natural Population Analysis:

                                       Natural Population
                Natural  -----------------------------------------------
    Atom  No    Charge         Core      Valence    Rydberg      Total
 -----------------------------------------------------------------------
      C    1   -0.30102      0.99966     2.29720    0.00417     3.30102
      C    2   -0.01114      0.99959     1.99954    0.01200     3.01114
      O    3   -0.27907      0.99986     3.26899    0.01023     4.27907
      C    4    0.17634      0.99935     1.81158    0.01274     2.82366
      C    5    0.11879      0.99935     1.86696    0.01490     2.88121
      C    6   -0.08312      0.99949     2.07420    0.00943     3.08312
      C    7   -0.03486      0.99950     2.02526    0.01010     3.03486
      C    8   -0.07002      0.99954     2.06142    0.00907     3.07002
      C    9   -0.15624      0.99954     2.14804    0.00866     3.15624
      C   10    0.15899      0.99943     1.82881    0.01278     2.84101
      C   11   -0.06017      0.99942     2.05077    0.00997     3.06017
      C   12    0.06716      0.99954     1.91159    0.02170     2.93284
      S   13   -0.10937      4.99955     3.09477    0.01505     8.10937
      N   14   -0.25348      0.99967     2.74093    0.01288     3.75348
      C   15    0.15337      0.99965     1.83143    0.01554     2.84663
      N   16   -0.25558      0.99965     2.74678    0.00915     3.75558
      C   17   -0.29629      0.99964     2.29138    0.00528     3.29629
      O   18   -0.29358      0.99985     3.28299    0.01074     4.29358
      C   19   -0.00733      0.99958     1.99751    0.01024     3.00733
      C   20   -0.29457      0.99966     2.29064    0.00427     3.29457
      H   21    0.10120      0.00000     0.39765    0.00114     0.39880
      H   22    0.09774      0.00000     0.40103    0.00124     0.40226
      H   23    0.10699      0.00000     0.39196    0.00104     0.39301
      H   24    0.08763      0.00000     0.41142    0.00095     0.41237
      H   25    0.08270      0.00000     0.41607    0.00122     0.41730
      H   26    0.10171      0.00000     0.39709    0.00121     0.39829
      H   27    0.10269      0.00000     0.39632    0.00099     0.39731
      H   28    0.09783      0.00000     0.40087    0.00130     0.40217
      H   29    0.07793      0.00000     0.42045    0.00162     0.42207
      H   30    0.19585      0.00000     0.30212    0.00203     0.30415
      H   31    0.11191      0.00000     0.38679    0.00130     0.38809
      H   32    0.10408      0.00000     0.39479    0.00113     0.39592
      H   33    0.09898      0.00000     0.40027    0.00075     0.40102
      H   34    0.08982      0.00000     0.40858    0.00160     0.41018
      H   35    0.07701      0.00000     0.42103    0.00196     0.42299
      H   36    0.10454      0.00000     0.39439    0.00106     0.39546
      H   37    0.09406      0.00000     0.40515    0.00079     0.40594
      H   38    0.09855      0.00000     0.40053    0.00092     0.40145
 =======================================================================
   * Total *   -0.00000     23.99152    52.76732    0.24116    77.00000

 Normal termination of Gaussian 16 at Mon Dec 14 15:09:41 2020.
