 Gaussian 16, Revision A.03,

 -----------------------------------------------------------
 # opt freq B3LYP/6-31G(d) empiricaldispersion=gd3bj scf=xqc
 -----------------------------------------------------------

 -------------------------------
 CID_148392184_JID_4732_neutraal
 -------------------------------
 Symbolic Z-matrix:
 Charge =  0 Multiplicity = 1

 SCF Done:  E(RB3LYP) =  -618.357069695     A.U. after   12 cycles
 SCF Done:  E(RB3LYP) =  -618.361265367     A.U. after   11 cycles
 SCF Done:  E(RB3LYP) =  -618.347967908     A.U. after   13 cycles
 SCF Done:  E(RB3LYP) =  -618.360358261     A.U. after   10 cycles
 SCF Done:  E(RB3LYP) =  -618.362647490     A.U. after    8 cycles
 SCF Done:  E(RB3LYP) =  -618.363171969     A.U. after   10 cycles
 SCF Done:  E(RB3LYP) =  -618.363802872     A.U. after   11 cycles
 SCF Done:  E(RB3LYP) =  -618.364252472     A.U. after   10 cycles
 SCF Done:  E(RB3LYP) =  -618.364499707     A.U. after   10 cycles
 SCF Done:  E(RB3LYP) =  -618.364767325     A.U. after   10 cycles
 SCF Done:  E(RB3LYP) =  -618.366013899     A.U. after    9 cycles
 SCF Done:  E(RB3LYP) =  -618.366017857     A.U. after    8 cycles
 SCF Done:  E(RB3LYP) =  -618.366027487     A.U. after    8 cycles
 SCF Done:  E(RB3LYP) =  -618.366029099     A.U. after    8 cycles
 SCF Done:  E(RB3LYP) =  -618.366029328     A.U. after    6 cycles
 SCF Done:  E(RB3LYP) =  -618.366029433     A.U. after    7 cycles
 Optimization completed.
    -- Stationary point found.
 Normal termination of Gaussian 16 at Thu Dec 10 10:52:36 2020.

 --------------------------------------------------------------------
 #N Geom=AllCheck Guess=TCheck SCRF=Check GenChk RB3LYP/6-31G(d) Freq
 --------------------------------------------------------------------

 Structure from the checkpoint file:  "JID_4732.chk"
 -------------------------------
 CID_148392184_JID_4732_neutraal
 -------------------------------
 Charge =  0 Multiplicity = 1

 SCF Done:  E(RB3LYP) =  -618.366029433     A.U. after    1 cycles

  Exact polarizability: 149.459   0.403 136.271  -2.466  -0.670 110.401
 Approx polarizability: 183.650   2.955 179.574  -4.298   1.993 175.375

                      1                      2                      3
                      A                      A                      A
 Frequencies --     29.5505                53.7268                67.1078
 Red. masses --      3.3162                 2.9194                 3.5468
 Frc consts  --      0.0017                 0.0050                 0.0094
 IR Inten    --      0.0558                 0.3107                 1.0035

                      4                      5                      6
                      A                      A                      A
 Frequencies --     81.3052               113.0619               144.8817
 Red. masses --      3.5576                 3.3174                 2.6156
 Frc consts  --      0.0139                 0.0250                 0.0323
 IR Inten    --      1.0344                 1.4439                 1.9419

                      7                      8                      9
                      A                      A                      A
 Frequencies --    169.1987               179.6170               191.1744
 Red. masses --      1.3141                 3.0647                 1.8554
 Frc consts  --      0.0222                 0.0583                 0.0400
 IR Inten    --      0.2786                 2.1639                 0.8773

                     10                     11                     12
                      A                      A                      A
 Frequencies --    194.7343               231.2202               238.8788
 Red. masses --      1.5653                 1.1903                 1.3847
 Frc consts  --      0.0350                 0.0375                 0.0466
 IR Inten    --      2.7325                 3.8109                 2.2753

                     13                     14                     15
                      A                      A                      A
 Frequencies --    240.1347               268.0114               281.9697
 Red. masses --      1.1031                 2.1180                 2.0147
 Frc consts  --      0.0375                 0.0896                 0.0944
 IR Inten    --      0.0356                 4.9284                 3.0961

                     16                     17                     18
                      A                      A                      A
 Frequencies --    301.6485               305.9665               312.9171
 Red. masses --      1.1613                 2.5025                 1.3241
 Frc consts  --      0.0623                 0.1380                 0.0764
 IR Inten    --     31.0030                 6.3566                29.2596

                     19                     20                     21
                      A                      A                      A
 Frequencies --    339.3570               371.0714               409.2921
 Red. masses --      2.4575                 2.6028                 2.7471
 Frc consts  --      0.1667                 0.2112                 0.2711
 IR Inten    --      0.2127                 0.1319                 4.2880

                     22                     23                     24
                      A                      A                      A
 Frequencies --    414.5498               442.0804               466.1154
 Red. masses --      2.4674                 2.7076                 2.4925
 Frc consts  --      0.2498                 0.3118                 0.3191
 IR Inten    --      7.5951                 4.4803                 2.5512

                     25                     26                     27
                      A                      A                      A
 Frequencies --    501.4728               511.5057               548.4667
 Red. masses --      3.0053                 2.8707                 2.7753
 Frc consts  --      0.4453                 0.4425                 0.4919
 IR Inten    --      4.5616                14.1131                 5.6004

                     28                     29                     30
                      A                      A                      A
 Frequencies --    573.3738               704.2686               803.9594
 Red. masses --      2.3861                 3.4903                 2.6054
 Frc consts  --      0.4622                 1.0200                 0.9922
 IR Inten    --      3.6286                 2.2856                 0.9556

                     31                     32                     33
                      A                      A                      A
 Frequencies --    830.7455               844.4763               859.3753
 Red. masses --      2.6432                 2.1031                 2.4485
 Frc consts  --      1.0748                 0.8836                 1.0654
 IR Inten    --     37.8071                12.7963                17.7534

                     34                     35                     36
                      A                      A                      A
 Frequencies --    890.1429               903.1853               916.2662
 Red. masses --      1.4712                 1.4941                 1.4592
 Frc consts  --      0.6868                 0.7181                 0.7218
 IR Inten    --    106.4689                 7.1541                98.1099

                     37                     38                     39
                      A                      A                      A
 Frequencies --    937.1747               954.4806               989.5001
 Red. masses --      1.6395                 1.4089                 1.5208
 Frc consts  --      0.8484                 0.7562                 0.8773
 IR Inten    --     32.9457                 8.6106                 6.4147

                     40                     41                     42
                      A                      A                      A
 Frequencies --    993.9696              1004.4092              1026.0871
 Red. masses --      1.5913                 1.8892                 1.4866
 Frc consts  --      0.9263                 1.1229                 0.9222
 IR Inten    --      5.0061                22.2181                22.5621

                     43                     44                     45
                      A                      A                      A
 Frequencies --   1039.8754              1042.3058              1068.5572
 Red. masses --      1.6718                 1.6450                 2.0480
 Frc consts  --      1.0651                 1.0529                 1.3778
 IR Inten    --      1.6469                 2.2864                53.9592

                     46                     47                     48
                      A                      A                      A
 Frequencies --   1095.4710              1105.4086              1117.8943
 Red. masses --      1.7097                 1.4493                 2.2956
 Frc consts  --      1.2089                 1.0434                 1.6902
 IR Inten    --      6.0949                14.4661                17.4626

                     49                     50                     51
                      A                      A                      A
 Frequencies --   1143.1538              1143.9265              1153.3561
 Red. masses --      2.0332                 2.3147                 2.1201
 Frc consts  --      1.5654                 1.7846                 1.6616
 IR Inten    --     12.2162                 8.5597                 6.2141

                     52                     53                     54
                      A                      A                      A
 Frequencies --   1176.4244              1198.7818              1204.8941
 Red. masses --      2.1699                 2.5137                 2.1950
 Frc consts  --      1.7694                 2.1283                 1.8775
 IR Inten    --     60.9379               109.7635                 8.1182

                     55                     56                     57
                      A                      A                      A
 Frequencies --   1252.2306              1269.7926              1288.3728
 Red. masses --      1.8439                 1.2909                 1.3465
 Frc consts  --      1.7036                 1.2264                 1.3169
 IR Inten    --     19.9723                 3.6791                 2.4204

                     58                     59                     60
                      A                      A                      A
 Frequencies --   1295.9215              1302.7266              1323.1246
 Red. masses --      1.6156                 1.4110                 1.6989
 Frc consts  --      1.5986                 1.4108                 1.7524
 IR Inten    --      2.6649                 7.7141                 6.3226

                     61                     62                     63
                      A                      A                      A
 Frequencies --   1326.2070              1370.5375              1392.7010
 Red. masses --      1.2653                 1.3061                 1.2964
 Frc consts  --      1.3112                 1.4455                 1.4815
 IR Inten    --      0.7501                 2.8684                 0.6061

                     64                     65                     66
                      A                      A                      A
 Frequencies --   1408.9023              1418.7641              1424.4235
 Red. masses --      1.2125                 1.3668                 1.2658
 Frc consts  --      1.4181                 1.6210                 1.5132
 IR Inten    --     10.1960                 7.5567                 3.2238

                     67                     68                     69
                      A                      A                      A
 Frequencies --   1432.8339              1436.2620              1439.1863
 Red. masses --      1.3612                 1.3930                 1.3149
 Frc consts  --      1.6465                 1.6930                 1.6046
 IR Inten    --     23.5939                 3.2853                 0.8606

                     70                     71                     72
                      A                      A                      A
 Frequencies --   1448.3378              1449.5758              1494.3740
 Red. masses --      1.4612                 1.2365                 2.2879
 Frc consts  --      1.8059                 1.5308                 3.0102
 IR Inten    --     14.0159                 6.0184                12.9156

                     73                     74                     75
                      A                      A                      A
 Frequencies --   1504.0646              1516.4003              1520.5230
 Red. masses --      1.0873                 1.0457                 1.0680
 Frc consts  --      1.4493                 1.4168                 1.4548
 IR Inten    --      2.8056                 4.5052                 1.2666

                     76                     77                     78
                      A                      A                      A
 Frequencies --   1522.4656              1523.7993              1529.9105
 Red. masses --      1.0527                 1.0639                 1.0522
 Frc consts  --      1.4377                 1.4554                 1.4511
 IR Inten    --      1.9785                 1.4520                 0.3508

                     79                     80                     81
                      A                      A                      A
 Frequencies --   1530.6673              1533.3382              1539.9181
 Red. masses --      1.0535                 1.0572                 1.1100
 Frc consts  --      1.4543                 1.4645                 1.5509
 IR Inten    --      3.4383                 5.2458                 1.7169

                     82                     83                     84
                      A                      A                      A
 Frequencies --   1544.9612              1692.0409              1696.4634
 Red. masses --      1.1342                 1.0911                 1.1036
 Frc consts  --      1.5950                 1.8405                 1.8713
 IR Inten    --     14.0133                26.1125                15.7108

                     85                     86                     87
                      A                      A                      A
 Frequencies --   3008.2722              3011.0538              3030.4645
 Red. masses --      1.0811                 1.0722                 1.0381
 Frc consts  --      5.7646                 5.7273                 5.6169
 IR Inten    --     46.4196                51.8149                45.4031

                     88                     89                     90
                      A                      A                      A
 Frequencies --   3032.5101              3044.2127              3045.7440
 Red. masses --      1.0624                 1.0384                 1.0383
 Frc consts  --      5.7564                 5.6699                 5.6747
 IR Inten    --     18.1942                39.0436                19.5610

                     91                     92                     93
                      A                      A                      A
 Frequencies --   3053.1459              3061.4293              3077.7805
 Red. masses --      1.0373                 1.0840                 1.0985
 Frc consts  --      5.6968                 5.9859                 6.1308
 IR Inten    --     17.1501                26.5679                53.1002

                     94                     95                     96
                      A                      A                      A
 Frequencies --   3084.8776              3102.1336              3107.3101
 Red. masses --      1.1019                 1.0993                 1.0996
 Frc consts  --      6.1785                 6.2329                 6.2555
 IR Inten    --     31.3951                26.2578                33.1195

                     97                     98                     99
                      A                      A                      A
 Frequencies --   3113.9780              3116.2219              3122.8274
 Red. masses --      1.0935                 1.0997                 1.0985
 Frc consts  --      6.2471                 6.2917                 6.3117
 IR Inten    --     25.0332                18.2329                43.9225

                    100                    101                    102
                      A                      A                      A
 Frequencies --   3124.5808              3129.7457              3131.1786
 Red. masses --      1.0967                 1.1025                 1.1019
 Frc consts  --      6.3084                 6.3628                 6.3649
 IR Inten    --     11.8858                 2.8087                52.5481

                    103                    104                    105
                      A                      A                      A
 Frequencies --   3140.2731              3149.8472              3444.7417
 Red. masses --      1.0899                 1.0875                 1.0486
 Frc consts  --      6.3326                 6.3568                 7.3310
 IR Inten    --      8.5758                48.6982                 5.8596

                    106                    107                    108
                      A                      A                      A
 Frequencies --   3452.4926              3524.0448              3539.3706
 Red. masses --      1.0495                 1.0925                 1.0920
 Frc consts  --      7.3709                 7.9942                 8.0597
 IR Inten    --      5.4147                 0.3014                 2.6587

 - Thermochemistry -
 -------------------
 Temperature   298.150 Kelvin.  Pressure   1.00000 Atm.
 Atom     1 has atomic number  6 and mass  12.00000

 Molecular mass:   200.18886 amu.
 Principal axes and moments of inertia in atomic units:
                           1         2         3
     Eigenvalues --  2040.092574113.732475322.91088
           X            0.99996  -0.00882   0.00223
           Y            0.00887   0.99965  -0.02500
           Z           -0.00201   0.02502   0.99969
 This molecule is an asymmetric top.
 Rotational symmetry number  1.
 Warning -- assumption of classical behavior for rotation
           may cause significant error
 Rotational temperatures (Kelvin)      0.04246     0.02105     0.01627
 Rotational constants (GHZ):           0.88464     0.43871     0.33905
 Zero-point vibrational energy     916384.6 (Joules/Mol)
                                  219.02118 (Kcal/Mol)
 Warning -- explicit consideration of  28 degrees of freedom as
           vibrations may cause significant error
 Vibrational temperatures:     42.52    77.30    96.55   116.98   162.67
          (Kelvin)            208.45   243.44   258.43   275.06   280.18
                              332.67   343.69   345.50   385.61   405.69
                              434.00   440.22   450.22   488.26   533.89
                              588.88   596.44   636.06   670.64   721.51
                              735.94   789.12   824.96  1013.29  1156.72
                             1195.26  1215.01  1236.45  1280.72  1299.48
                             1318.30  1348.39  1373.28  1423.67  1430.10
                             1445.12  1476.31  1496.15  1499.65  1537.42
                             1576.14  1590.44  1608.40  1644.74  1645.86
                             1659.42  1692.61  1724.78  1733.57  1801.68
                             1826.95  1853.68  1864.54  1874.33  1903.68
                             1908.12  1971.90  2003.79  2027.10  2041.29
                             2049.43  2061.53  2066.46  2070.67  2083.84
                             2085.62  2150.07  2164.01  2181.76  2187.69
                             2190.49  2192.41  2201.20  2202.29  2206.13
                             2215.60  2222.85  2434.47  2440.83  4328.23
                             4332.23  4360.16  4363.11  4379.94  4382.15
                             4392.80  4404.71  4428.24  4438.45  4463.28
                             4470.73  4480.32  4483.55  4493.05  4495.57
                             4503.01  4505.07  4518.15  4531.93  4956.22
                             4967.37  5070.31  5092.36

 Zero-point correction=                           0.349032 (Hartree/Particle)
 Thermal correction to Energy=                    0.366405
 Thermal correction to Enthalpy=                  0.367349
 Thermal correction to Gibbs Free Energy=         0.304764
 Sum of electronic and zero-point Energies=           -618.016997
 Sum of electronic and thermal Energies=              -617.999625
 Sum of electronic and thermal Enthalpies=            -617.998680
 Sum of electronic and thermal Free Energies=         -618.061266

                     E (Thermal)             CV                S
                      KCal/Mol        Cal/Mol-Kelvin    Cal/Mol-Kelvin
 Total                  229.923             65.451            131.722
 Electronic               0.000              0.000              0.000
 Translational            0.889              2.981             41.787
 Rotational               0.889              2.981             32.169
 Vibrational            228.145             59.489             57.766
 Vibration     1          0.593              1.984              5.859
 Vibration     2          0.596              1.976              4.675
 Vibration     3          0.598              1.970              4.236
 Vibration     4          0.600              1.962              3.859
 Vibration     5          0.607              1.939              3.216
 Vibration     6          0.616              1.908              2.738
 Vibration     7          0.625              1.880              2.444
 Vibration     8          0.629              1.867              2.332
 Vibration     9          0.634              1.852              2.216
 Vibration    10          0.635              1.847              2.182
 Vibration    11          0.653              1.793              1.869
 Vibration    12          0.657              1.781              1.811
 Vibration    13          0.657              1.779              1.802
 Vibration    14          0.673              1.732              1.609
 Vibration    15          0.681              1.707              1.522
 Vibration    16          0.694              1.671              1.408
 Vibration    17          0.696              1.662              1.384
 Vibration    18          0.701              1.649              1.347
 Vibration    19          0.719              1.597              1.215
 Vibration    20          0.743              1.532              1.075
 Vibration    21          0.774              1.450              0.929
 Vibration    22          0.778              1.439              0.911
 Vibration    23          0.802              1.378              0.820
 Vibration    24          0.823              1.325              0.749
 Vibration    25          0.857              1.247              0.654
 Vibration    26          0.867              1.225              0.630
 Vibration    27          0.904              1.143              0.547
 Vibration    28          0.930              1.089              0.498

 Optimization completed.
    -- Stationary point found.
 Normal termination of Gaussian 16 at Thu Dec 10 11:06:25 2020.

 ----------------------------------------------------------------------
 # B3LYP/6-311++G(d,p) empiricaldispersion=gd3bj scf=xqc pop=npa geom=c
 heck
 ----------------------------------------------------------------------

 ---------------------------------------
 CID_148392184_JID_4732_Energie_neutraal
 ---------------------------------------
 Structure from the checkpoint file:  "JID_4732.chk"
 Charge =  0 Multiplicity = 1

 SCF Done:  E(RB3LYP) =  -618.556791953     A.U. after   14 cycles
 Normal termination of Gaussian 16 at Thu Dec 10 11:13:26 2020.

 ----------------------------------------------------------------------
 # B3LYP/6-311++G(d,p) empiricaldispersion=gd3bj scf=xqc pop=npa geom=c
 heck
 ----------------------------------------------------------------------

 -------------------------------------
 CID_148392184_JID_4732_Energie_kation
 -------------------------------------
 Structure from the checkpoint file:  "JID_4732.chk"
 Charge =  1 Multiplicity = 2

 SCF Done:  E(UB3LYP) =  -618.258239145     A.U. after   23 cycles
 Normal termination of Gaussian 16 at Thu Dec 10 11:29:49 2020.
 Gaussian 16:  ES64L-G16RevA.03 25-Dec-2016

 ----------------------------------------------------------------------
 # B3LYP/6-311++G(d,p) empiricaldispersion=gd3bj scf=xqc pop=npa geom=c
 heck
 ----------------------------------------------------------------------

 ------------------------------------
 CID_148392184_JID_4732_Energie_anion
 ------------------------------------
 Structure from the checkpoint file:  "JID_4732.chk"
 Charge = -1 Multiplicity = 2

                         Standard orientation:
 ---------------------------------------------------------------------
 Center     Atomic      Atomic             Coordinates (Angstroms)
 Number     Number       Type             X           Y           Z
 ---------------------------------------------------------------------
      1          6           0        1.569762   -2.265849    0.287693
      2          6           0        1.513695   -0.848252   -0.237096
      3          6           0        1.404526    0.346422    0.685209
      4          6           0        2.667416    0.127400   -0.123640
      5          6           0        3.946203   -0.267070    0.592807
      6          7           0        2.822477    0.993327   -1.281850
      7          6           0        0.472516    1.496569    0.390219
      8          8           0       -0.768707    1.298384    1.068467
      9          6           0       -1.963358    1.370795    0.282628
     10          6           0       -2.132678    2.728188   -0.404245
     11          6           0       -2.081829    0.198971   -0.699220
     12          6           0       -2.045468   -1.181447   -0.030837
     13          6           0       -3.328738   -1.487875    0.741919
     14          7           0       -1.886745   -2.199437   -1.084909
     15          1           0        0.560407   -2.687434    0.352736
     16          1           0        2.009169   -2.314038    1.288953
     17          1           0        2.161794   -2.916753   -0.368091
     18          1           0        0.969267   -0.737190   -1.174122
     19          1           0        1.490361    0.124747    1.748443
     20          1           0        4.616936   -0.819112   -0.079302
     21          1           0        4.481791    0.627180    0.937547
     22          1           0        3.759334   -0.895738    1.468838
     23          1           0        3.342458    1.830568   -1.017819
     24          1           0        3.388166    0.518568   -1.985687
     25          1           0        0.909384    2.439779    0.750779
     26          1           0        0.347803    1.594530   -0.690763
     27          1           0       -2.753282    1.277301    1.036646
     28          1           0       -1.404012    2.871827   -1.209639
     29          1           0       -3.132663    2.808191   -0.844777
     30          1           0       -2.007615    3.537177    0.322678
     31          1           0       -3.010972    0.296389   -1.275510
     32          1           0       -1.263948    0.265988   -1.430276
     33          1           0       -1.208438   -1.175607    0.683772
     34          1           0       -4.191009   -1.479926    0.065755
     35          1           0       -3.273800   -2.479380    1.208552
     36          1           0       -3.497419   -0.760432    1.542210
     37          1           0       -1.827086   -3.123840   -0.658210
     38          1           0       -0.999391   -2.054202   -1.565755
 ---------------------------------------------------------------------

 SCF Done:  E(UB3LYP) =  -618.543950741     A.U. after   27 cycles

 The electronic state is 2-A.
 Alpha  occ. eigenvalues --  -19.01914 -14.19777 -14.19075 -10.12929 -10.11071
 Alpha  occ. eigenvalues --  -10.10433 -10.10116 -10.07310 -10.07222 -10.07078
 Alpha  occ. eigenvalues --  -10.06884 -10.06716 -10.06135 -10.05803  -0.93058
 Alpha  occ. eigenvalues --   -0.80919  -0.79391  -0.72514  -0.69396  -0.64624
 Alpha  occ. eigenvalues --   -0.62252  -0.61507  -0.59695  -0.57748  -0.50344
 Alpha  occ. eigenvalues --   -0.47875  -0.46058  -0.44079  -0.40641  -0.39737
 Alpha  occ. eigenvalues --   -0.39347  -0.38119  -0.37121  -0.35834  -0.34876
 Alpha  occ. eigenvalues --   -0.33882  -0.32696  -0.31996  -0.31344  -0.30610
 Alpha  occ. eigenvalues --   -0.29998  -0.29460  -0.28796  -0.28761  -0.28299
 Alpha  occ. eigenvalues --   -0.27073  -0.26128  -0.25375  -0.24688  -0.24078
 Alpha  occ. eigenvalues --   -0.20598  -0.18701  -0.17819  -0.15761  -0.14583
 Alpha  occ. eigenvalues --   -0.14066   0.04273
 Alpha virt. eigenvalues --    0.06109   0.06476   0.07821   0.08153   0.08413
 Alpha virt. eigenvalues --    0.09087   0.09646   0.10083   0.10520   0.10837
 Alpha virt. eigenvalues --    0.11192   0.11590   0.12019   0.12648   0.13122

  Beta  occ. eigenvalues --  -19.01913 -14.19756 -14.19028 -10.12924 -10.11060
  Beta  occ. eigenvalues --  -10.10432 -10.10112 -10.07298 -10.07214 -10.07072
  Beta  occ. eigenvalues --  -10.06877 -10.06699 -10.06104 -10.05760  -0.93053
  Beta  occ. eigenvalues --   -0.80873  -0.79361  -0.72448  -0.69377  -0.64596
  Beta  occ. eigenvalues --   -0.62219  -0.61444  -0.59670  -0.57703  -0.50314
  Beta  occ. eigenvalues --   -0.47841  -0.46025  -0.44005  -0.40624  -0.39710
  Beta  occ. eigenvalues --   -0.39318  -0.38079  -0.37073  -0.35804  -0.34848
  Beta  occ. eigenvalues --   -0.33854  -0.32670  -0.31974  -0.31314  -0.30568
  Beta  occ. eigenvalues --   -0.29968  -0.29425  -0.28759  -0.28739  -0.28276
  Beta  occ. eigenvalues --   -0.27046  -0.26100  -0.25342  -0.24666  -0.24061
  Beta  occ. eigenvalues --   -0.20585  -0.18670  -0.17800  -0.15744  -0.14560
  Beta  occ. eigenvalues --   -0.14023
  Beta virt. eigenvalues --    0.06167   0.06983   0.07119   0.08170   0.08642
  Beta virt. eigenvalues --    0.08921   0.09497   0.09928   0.10311   0.10882
  Beta virt. eigenvalues --    0.11062   0.11514   0.11937   0.12162   0.12873

 Mulliken charges and spin densities:
               1          2
     1  C    0.760555  -1.459375
     2  C    0.222529   0.050212
     3  C    1.923997  -1.359642
     4  C   -3.040741   2.113001
     5  C    1.545104  -1.838650
     6  N   -0.350732   0.196499
     7  C   -0.654485  -0.203676
     8  O   -0.015549   0.001383
     9  C   -0.981086   0.657727
    10  C    0.278890  -0.764193
    11  C    0.482683  -0.431086
    12  C   -0.695803   0.266986
    13  C    0.262539  -0.862077
    14  N   -0.343875   0.071299
    15  H   -0.088450   0.213465
    16  H    0.010709   0.118654
    17  H   -0.434780   0.597316
    18  H    0.145807   0.060068
    19  H    0.060100   0.157449
    20  H   -0.220364   0.378794
    21  H   -0.261525   0.416536
    22  H   -0.219705   0.360079
    23  H   -0.182989   0.414107
    24  H   -0.273174   0.516396
    25  H   -0.109150   0.275268
    26  H    0.339580  -0.113171
    27  H    0.068284   0.081873
    28  H    0.054582   0.100741
    29  H   -0.019215   0.144815
    30  H   -0.008194   0.158741
    31  H    0.168415  -0.000532
    32  H    0.043531   0.087966
    33  H    0.517980  -0.273712
    34  H    0.044761   0.105078
    35  H   -0.157843   0.297310
    36  H   -0.035444   0.160449
    37  H    0.012317   0.218382
    38  H    0.150740   0.085522
 Sum of Mulliken charges =  -1.00000   1.00000

 Dipole moment (field-independent basis, Debye):
    X=             -5.9690    Y=              1.5712    Z=              1.5747  Tot=              6.3700
 Quadrupole moment (field-independent basis, Debye-Ang):
   XX=           -170.9427   YY=           -141.4507   ZZ=           -126.3425
   XY=             -5.5177   XZ=              5.6882   YZ=             -1.3415

 Summary of Natural Population Analysis:

                                       Natural Population
                Natural  -----------------------------------------------
    Atom  No    Charge         Core      Valence    Rydberg      Total
 -----------------------------------------------------------------------
      C    1   -0.28589      0.99964     2.27984    0.00641     3.28589
      C    2   -0.11218      0.99953     2.10075    0.01190     3.11218
      C    3   -0.11536      0.99951     2.10446    0.01139     3.11536
      C    4    0.05457      0.99951     1.93156    0.01436     2.94543
      C    5   -0.28876      0.99962     2.28283    0.00632     3.28876
      N    6   -0.42201      0.99975     2.91172    0.01054     3.92201
      C    7   -0.01655      0.99953     2.00294    0.01408     3.01655
      O    8   -0.30870      0.99988     3.30026    0.00855     4.30870
      C    9    0.06921      0.99954     1.91731    0.01394     2.93079
      C   10   -0.29774      0.99965     2.29387    0.00422     3.29774
      C   11   -0.20398      0.99958     2.19567    0.00873     3.20398
      C   12   -0.02489      0.99960     2.01383    0.01145     3.02489
      C   13   -0.28587      0.99965     2.28125    0.00498     3.28587
      N   14   -0.42321      0.99976     2.91387    0.00958     3.92321
      H   15    0.09932      0.00000     0.39932    0.00136     0.40068
      H   16    0.09890      0.00000     0.39993    0.00117     0.40110
      H   17    0.10131      0.00000     0.39730    0.00139     0.39869
      H   18    0.10072      0.00000     0.39667    0.00261     0.39928
      H   19    0.10206      0.00000     0.39639    0.00155     0.39794
      H   20    0.10141      0.00000     0.39675    0.00185     0.39859
      H   21    0.10049      0.00000     0.39785    0.00166     0.39951
      H   22    0.10015      0.00000     0.39857    0.00128     0.39985
      H   23    0.17587      0.00000     0.32119    0.00295     0.32413
      H   24    0.17833      0.00000     0.31834    0.00333     0.32167
      H   25    0.08453      0.00000     0.41424    0.00124     0.41547
      H   26    0.09357      0.00000     0.40432    0.00211     0.40643
      H   27    0.08810      0.00000     0.41041    0.00149     0.41190
      H   28    0.09965      0.00000     0.39939    0.00096     0.40035
      H   29    0.09969      0.00000     0.39947    0.00084     0.40031
      H   30    0.10242      0.00000     0.39663    0.00095     0.39758
      H   31    0.10117      0.00000     0.39776    0.00106     0.39883
      H   32    0.09955      0.00000     0.39920    0.00125     0.40045
      H   33    0.08961      0.00000     0.40754    0.00285     0.41039
      H   34    0.09812      0.00000     0.40083    0.00105     0.40188
      H   35    0.09814      0.00000     0.40095    0.00091     0.40186
      H   36    0.09883      0.00000     0.40018    0.00099     0.40117
      H   37    0.17425      0.00000     0.32404    0.00170     0.32575
      H   38    0.17517      0.00000     0.32284    0.00199     0.32483
 =======================================================================
   * Total *   -0.00000     13.99475    41.83027    0.17497    56.00000

 Normal termination of Gaussian 16 at Thu Dec 10 11:48:26 2020.
