 Gaussian 16, Revision A.03,

 -----------------------------------------------------------
 # opt freq B3LYP/6-31G(d) empiricaldispersion=gd3bj scf=xqc
 -----------------------------------------------------------

 -----------------------------
 CID_2394019_JID_7999_neutraal
 -----------------------------
 Symbolic Z-matrix:
 Charge =  0 Multiplicity = 1

 SCF Done:  E(RB3LYP) =  -746.580353173     A.U. after   15 cycles
 SCF Done:  E(RB3LYP) =  -746.582993854     A.U. after   13 cycles
 SCF Done:  E(RB3LYP) =  -746.583260085     A.U. after   12 cycles
 SCF Done:  E(RB3LYP) =  -746.583630008     A.U. after   11 cycles
 SCF Done:  E(RB3LYP) =  -746.583804758     A.U. after   12 cycles
 SCF Done:  E(RB3LYP) =  -746.583997066     A.U. after   11 cycles
 SCF Done:  E(RB3LYP) =  -746.584118472     A.U. after   12 cycles
 SCF Done:  E(RB3LYP) =  -746.584202632     A.U. after   12 cycles
 SCF Done:  E(RB3LYP) =  -746.584235307     A.U. after   11 cycles
 SCF Done:  E(RB3LYP) =  -746.584265018     A.U. after   12 cycles
 SCF Done:  E(RB3LYP) =  -746.584284845     A.U. after    9 cycles
 SCF Done:  E(RB3LYP) =  -746.584285236     A.U. after    8 cycles
 SCF Done:  E(RB3LYP) =  -746.584285284     A.U. after    7 cycles
 SCF Done:  E(RB3LYP) =  -746.584285289     A.U. after    7 cycles
 Optimization completed.
    -- Stationary point found.
 Normal termination of Gaussian 16 at Mon Dec 14 13:21:50 2020.

 --------------------------------------------------------------------
 #N Geom=AllCheck Guess=TCheck SCRF=Check GenChk RB3LYP/6-31G(d) Freq
 --------------------------------------------------------------------

 Structure from the checkpoint file:  "JID_7999.chk"
 -----------------------------
 CID_2394019_JID_7999_neutraal
 -----------------------------
 Charge =  0 Multiplicity = 1

 SCF Done:  E(RB3LYP) =  -746.584285289     A.U. after    1 cycles

  Exact polarizability: 187.981 -18.739 148.526  14.023  20.049 112.390
 Approx polarizability: 261.179 -40.010 255.902  21.192  47.221 200.463

                      1                      2                      3
                      A                      A                      A
 Frequencies --     17.0037                30.8691                44.8863
 Red. masses --      4.7293                 4.9340                 5.0160
 Frc consts  --      0.0008                 0.0028                 0.0060
 IR Inten    --      0.0794                 0.2825                 0.6540

                      4                      5                      6
                      A                      A                      A
 Frequencies --     63.2243               107.6563               161.6158
 Red. masses --      6.7814                 4.5180                 5.6444
 Frc consts  --      0.0160                 0.0309                 0.0869
 IR Inten    --      2.5363                 1.5479                 1.1913

                      7                      8                      9
                      A                      A                      A
 Frequencies --    177.1401               208.0761               247.1657
 Red. masses --      5.2680                 5.3936                 4.4020
 Frc consts  --      0.0974                 0.1376                 0.1584
 IR Inten    --      0.4953                 1.7032                 0.0712

                     10                     11                     12
                      A                      A                      A
 Frequencies --    307.2670               346.2096               364.4168
 Red. masses --      3.3275                 4.2022                 1.1129
 Frc consts  --      0.1851                 0.2968                 0.0871
 IR Inten    --      1.9256                 0.6933               117.3848

                     13                     14                     15
                      A                      A                      A
 Frequencies --    381.1599               410.2911               415.8034
 Red. masses --      3.9083                 3.6851                 2.9985
 Frc consts  --      0.3345                 0.3655                 0.3054
 IR Inten    --      5.0409                 7.2512                 0.2723

                     16                     17                     18
                      A                      A                      A
 Frequencies --    442.8213               493.3725               506.7254
 Red. masses --      3.2764                 4.0200                 3.9829
 Frc consts  --      0.3785                 0.5765                 0.6026
 IR Inten    --      1.7148                 4.1184                 6.6260

                     19                     20                     21
                      A                      A                      A
 Frequencies --    540.6776               587.0359               601.3972
 Red. masses --      6.5087                 4.4439                 3.3907
 Frc consts  --      1.1210                 0.9023                 0.7225
 IR Inten    --      1.9466                13.2575                19.8012

                     22                     23                     24
                      A                      A                      A
 Frequencies --    625.7120               639.1660               686.7621
 Red. masses --      4.5454                 5.9010                 2.8534
 Frc consts  --      1.0485                 1.4204                 0.7929
 IR Inten    --     25.3037                 5.3632                18.3323

                     25                     26                     27
                      A                      A                      A
 Frequencies --    716.2064               723.8094               736.2845
 Red. masses --      2.0701                 3.8541                 1.9246
 Frc consts  --      0.6256                 1.1897                 0.6147
 IR Inten    --     22.6579                10.4667                28.9967

                     28                     29                     30
                      A                      A                      A
 Frequencies --    776.1547               787.8861               804.6840
 Red. masses --      2.1051                 1.6780                 2.4953
 Frc consts  --      0.7472                 0.6137                 0.9520
 IR Inten    --     22.3698                95.7085                20.9766

                     31                     32                     33
                      A                      A                      A
 Frequencies --    835.1110               863.4433               889.2615
 Red. masses --      3.6873                 1.2479                 1.3751
 Frc consts  --      1.5151                 0.5481                 0.6407
 IR Inten    --     26.4833                 0.1757                 0.6829

                     34                     35                     36
                      A                      A                      A
 Frequencies --    903.3954               914.9929               930.0243
 Red. masses --      1.5309                 3.2700                 1.4078
 Frc consts  --      0.7361                 1.6130                 0.7174
 IR Inten    --     28.5551                32.3720                 0.5992

                     37                     38                     39
                      A                      A                      A
 Frequencies --    967.6701               970.4081               977.3706
 Red. masses --      1.2621                 1.3484                 2.0896
 Frc consts  --      0.6963                 0.7481                 1.1760
 IR Inten    --      1.0250                 0.0755                 6.7735

                     40                     41                     42
                      A                      A                      A
 Frequencies --    999.0330              1018.4041              1022.3605
 Red. masses --      1.2547                 6.0781                 6.2207
 Frc consts  --      0.7378                 3.7141                 3.8308
 IR Inten    --      0.1538                 4.8504                 0.3113

                     43                     44                     45
                      A                      A                      A
 Frequencies --   1060.6009              1094.4704              1119.9788
 Red. masses --      2.2485                 2.3759                 1.6530
 Frc consts  --      1.4902                 1.6768                 1.2217
 IR Inten    --      2.4309                 3.6841                 1.1046

                     46                     47                     48
                      A                      A                      A
 Frequencies --   1123.9348              1149.3072              1194.7278
 Red. masses --      1.6740                 2.0792                 1.1007
 Frc consts  --      1.2459                 1.6181                 0.9257
 IR Inten    --     10.3347                24.9175                 0.0348

                     49                     50                     51
                      A                      A                      A
 Frequencies --   1199.2084              1216.2625              1217.1780
 Red. masses --      1.1281                 1.3650                 1.1420
 Frc consts  --      0.9559                 1.1897                 0.9968
 IR Inten    --      5.9059               105.4015                 4.6472

                     52                     53                     54
                      A                      A                      A
 Frequencies --   1233.3713              1256.1129              1305.5930
 Red. masses --      2.6425                 1.5348                 2.5197
 Frc consts  --      2.3683                 1.4267                 2.5306
 IR Inten    --     14.3972                73.2401                17.9979

                     55                     56                     57
                      A                      A                      A
 Frequencies --   1344.9431              1362.8994              1371.3116
 Red. masses --      1.5121                 3.6718                 1.4678
 Frc consts  --      1.6115                 4.0184                 1.6263
 IR Inten    --     63.7618                45.0885                 4.6826

                     58                     59                     60
                      A                      A                      A
 Frequencies --   1372.5709              1379.0712              1415.7722
 Red. masses --      2.0500                 4.8841                 1.7284
 Frc consts  --      2.2755                 5.4728                 2.0412
 IR Inten    --    177.7930                64.1608               128.5170

                     61                     62                     63
                      A                      A                      A
 Frequencies --   1488.6634              1506.5069              1516.3896
 Red. masses --      1.4566                 2.1185                 1.4787
 Frc consts  --      1.9018                 2.8328                 2.0034
 IR Inten    --     31.0980                 3.5134                 2.9265

                     64                     65                     66
                      A                      A                      A
 Frequencies --   1522.1093              1537.2725              1549.4553
 Red. masses --      1.7744                 2.6097                 2.1697
 Frc consts  --      2.4220                 3.6336                 3.0690
 IR Inten    --     45.0709                17.8752                10.1739

                     67                     68                     69
                      A                      A                      A
 Frequencies --   1645.3477              1649.4183              1668.3357
 Red. masses --      6.0467                 5.5251                 5.5322
 Frc consts  --      9.6445                 8.8562                 9.0722
 IR Inten    --     82.2586                 0.7376                 2.0228

                     70                     71                     72
                      A                      A                      A
 Frequencies --   1676.5119              1771.5776              3074.5887
 Red. masses --      5.9005                 8.4889                 1.0694
 Frc consts  --      9.7713                15.6971                 5.9561
 IR Inten    --     20.3982               286.6270                35.0858

                     73                     74                     75
                      A                      A                      A
 Frequencies --   3152.1997              3171.5412              3173.8729
 Red. masses --      1.0952                 1.0887                 1.0872
 Frc consts  --      6.4117                 6.4520                 6.4528
 IR Inten    --      6.0419                15.8559                 9.5637

                     76                     77                     78
                      A                      A                      A
 Frequencies --   3183.9106              3192.1913              3198.9784
 Red. masses --      1.0862                 1.0900                 1.0900
 Frc consts  --      6.4876                 6.5442                 6.5717
 IR Inten    --      0.7354                 7.9306                15.2734

                     79                     80                     81
                      A                      A                      A
 Frequencies --   3201.1028              3211.8579              3217.4848
 Red. masses --      1.0940                 1.0980                 1.0946
 Frc consts  --      6.6048                 6.6734                 6.6761
 IR Inten    --     31.8499                22.1473                 8.2719

                     82                     83                     84
                      A                      A                      A
 Frequencies --   3231.9959              3551.3229              3751.3350
 Red. masses --      1.0911                 1.0747                 1.0659
 Frc consts  --      6.7153                 7.9856                 8.8380
 IR Inten    --      0.6959                15.5191                47.8384

 - Thermochemistry -
 -------------------
 Temperature   298.150 Kelvin.  Pressure   1.00000 Atm.
 Atom     1 has atomic number  6 and mass  12.00000

 Molecular mass:   227.09463 amu.
 Principal axes and moments of inertia in atomic units:
                           1         2         3
     Eigenvalues --  2210.804466760.072147461.30688
           X            0.99998  -0.00190   0.00656
           Y            0.00155   0.99863   0.05225
           Z           -0.00665  -0.05224   0.99861
 This molecule is an asymmetric top.
 Rotational symmetry number  1.
 Warning -- assumption of classical behavior for rotation
           may cause significant error
 Rotational temperatures (Kelvin)      0.03918     0.01281     0.01161
 Rotational constants (GHZ):           0.81633     0.26697     0.24188
 Zero-point vibrational energy     637036.8 (Joules/Mol)
                                  152.25545 (Kcal/Mol)
 Warning -- explicit consideration of  21 degrees of freedom as
           vibrations may cause significant error
 Vibrational temperatures:     24.46    44.41    64.58    90.97   154.89
          (Kelvin)            232.53   254.87   299.38   355.62   442.09
                              498.12   524.31   548.40   590.32   598.25
                              637.12   709.85   729.06   777.91   844.61
                              865.28   900.26   919.62   988.10  1030.46
                             1041.40  1059.35  1116.71  1133.59  1157.76
                             1201.54  1242.30  1279.45  1299.78  1316.47
                             1338.10  1392.26  1396.20  1406.22  1437.39
                             1465.26  1470.95  1525.97  1574.70  1611.40
                             1617.09  1653.60  1718.95  1725.39  1749.93
                             1751.25  1774.55  1807.27  1878.46  1935.07
                             1960.91  1973.01  1974.82  1984.18  2036.98
                             2141.85  2167.53  2181.75  2189.98  2211.79
                             2229.32  2367.29  2373.14  2400.36  2412.13
                             2548.91  4423.65  4535.31  4563.14  4566.50
                             4580.94  4592.85  4602.62  4605.67  4621.15
                             4629.24  4650.12  5109.56  5397.33

 Zero-point correction=                           0.242635 (Hartree/Particle)
 Thermal correction to Energy=                    0.257005
 Thermal correction to Enthalpy=                  0.257949
 Thermal correction to Gibbs Free Energy=         0.198869
 Sum of electronic and zero-point Energies=           -746.341651
 Sum of electronic and thermal Energies=              -746.327281
 Sum of electronic and thermal Enthalpies=            -746.326336
 Sum of electronic and thermal Free Energies=         -746.385416

                     E (Thermal)             CV                S
                      KCal/Mol        Cal/Mol-Kelvin    Cal/Mol-Kelvin
 Total                  161.273             56.013            124.344
 Electronic               0.000              0.000              0.000
 Translational            0.889              2.981             42.163
 Rotational               0.889              2.981             33.078
 Vibrational            159.495             50.052             49.104
 Vibration     1          0.593              1.986              6.957
 Vibration     2          0.594              1.984              5.773
 Vibration     3          0.595              1.979              5.031
 Vibration     4          0.597              1.972              4.354
 Vibration     5          0.606              1.943              3.311
 Vibration     6          0.622              1.889              2.531
 Vibration     7          0.628              1.870              2.358
 Vibration     8          0.641              1.828              2.060
 Vibration     9          0.661              1.767              1.751
 Vibration    10          0.697              1.660              1.377
 Vibration    11          0.724              1.583              1.183
 Vibration    12          0.738              1.546              1.103
 Vibration    13          0.751              1.510              1.035
 Vibration    14          0.774              1.448              0.926
 Vibration    15          0.779              1.436              0.906
 Vibration    16          0.802              1.377              0.818
 Vibration    17          0.849              1.265              0.675
 Vibration    18          0.862              1.235              0.642
 Vibration    19          0.896              1.160              0.564
 Vibration    20          0.944              1.059              0.472
 Vibration    21          0.960              1.029              0.447

 Optimization completed.
    -- Stationary point found.
 Normal termination of Gaussian 16 at Mon Dec 14 13:32:16 2020.

 ----------------------------------------------------------------------
 # B3LYP/6-311++G(d,p) empiricaldispersion=gd3bj scf=xqc pop=npa geom=c
 heck
 ----------------------------------------------------------------------

 -------------------------------------
 CID_2394019_JID_7999_Energie_neutraal
 -------------------------------------
 Structure from the checkpoint file:  "JID_7999.chk"
 Charge =  0 Multiplicity = 1

 SCF Done:  E(RB3LYP) =  -746.796831423     A.U. after   16 cycles
 Normal termination of Gaussian 16 at Mon Dec 14 13:37:24 2020.

 ----------------------------------------------------------------------
 # B3LYP/6-311++G(d,p) empiricaldispersion=gd3bj scf=xqc pop=npa geom=c
 heck
 ----------------------------------------------------------------------

 -----------------------------------
 CID_2394019_JID_7999_Energie_kation
 -----------------------------------
 Structure from the checkpoint file:  "JID_7999.chk"
 Charge =  1 Multiplicity = 2

 SCF Done:  E(UB3LYP) =  -746.493211961     A.U. after   33 cycles
 SCF Done:  E(UB3LYP) =  -746.493211961     a.u. after    1 cycles
 Normal termination of Gaussian 16 at Mon Dec 14 13:52:14 2020.
 Gaussian 16:  ES64L-G16RevA.03 25-Dec-2016

 ----------------------------------------------------------------------
 # B3LYP/6-311++G(d,p) empiricaldispersion=gd3bj scf=xqc pop=npa geom=c
 heck
 ----------------------------------------------------------------------

 ----------------------------------
 CID_2394019_JID_7999_Energie_anion
 ----------------------------------
 Structure from the checkpoint file:  "JID_7999.chk"
 Charge = -1 Multiplicity = 2

                         Standard orientation:
 ---------------------------------------------------------------------
 Center     Atomic      Atomic             Coordinates (Angstroms)
 Number     Number       Type             X           Y           Z
 ---------------------------------------------------------------------
      1          6           0        4.078766    1.708707    0.042259
      2          6           0        2.710544    1.963700    0.168253
      3          6           0        1.784120    0.958993   -0.100013
      4          6           0        2.212224   -0.314658   -0.497691
      5          6           0        3.582018   -0.560632   -0.621675
      6          6           0        4.513406    0.444785   -0.354162
      7          6           0        1.199886   -1.412312   -0.754220
      8          7           0        0.583961   -1.921249    0.478514
      9          6           0       -0.482907   -1.340502    1.135702
     10          8           0       -0.579379   -1.387647    2.356101
     11          6           0       -1.551464   -0.699764    0.297375
     12          6           0       -2.118987    0.481868    0.775501
     13          6           0       -3.139115    1.105156    0.053844
     14          6           0       -3.611419    0.530351   -1.131265
     15          6           0       -3.059864   -0.666624   -1.587227
     16          6           0       -2.027110   -1.283949   -0.884983
     17          8           0       -3.639648    2.272012    0.556844
     18          1           0        4.800622    2.492961    0.251884
     19          1           0        2.366288    2.947659    0.474163
     20          1           0        0.720574    1.160822   -0.000954
     21          1           0        3.922626   -1.546115   -0.931934
     22          1           0        5.575462    0.239435   -0.455400
     23          1           0        0.402760   -1.048624   -1.403378
     24          1           0        1.678222   -2.254054   -1.266329
     25          1           0        1.252311   -2.276542    1.156316
     26          1           0       -1.776690    0.911148    1.710329
     27          1           0       -4.411634    1.013576   -1.688425
     28          1           0       -3.444034   -1.118606   -2.497082
     29          1           0       -1.611191   -2.224467   -1.230446
     30          1           0       -4.351421    2.585908   -0.022085
 ---------------------------------------------------------------------

 SCF Done:  E(UB3LYP) =  -746.792597565     A.U. after   33 cycles
 SCF Done:  E(UB3LYP) =  -746.793398831     a.u. after    7 cycles

 The electronic state is 2-A.
 Alpha  occ. eigenvalues --  -19.04145 -18.96200 -14.21794 -10.14162 -10.11847
 Alpha  occ. eigenvalues --  -10.10681 -10.07977 -10.07926 -10.07869 -10.07860
 Alpha  occ. eigenvalues --  -10.07615 -10.07058 -10.06372 -10.05733 -10.05512
 Alpha  occ. eigenvalues --  -10.05289 -10.04800  -0.95178  -0.91493  -0.80857
 Alpha  occ. eigenvalues --   -0.75833  -0.73789  -0.66812  -0.65069  -0.64187
 Alpha  occ. eigenvalues --   -0.62781  -0.58713  -0.53100  -0.51180  -0.49583
 Alpha  occ. eigenvalues --   -0.49406  -0.47382  -0.42539  -0.41788  -0.38754
 Alpha  occ. eigenvalues --   -0.38060  -0.36878  -0.36781  -0.35336  -0.33700
 Alpha  occ. eigenvalues --   -0.32854  -0.32654  -0.31981  -0.30064  -0.29758
 Alpha  occ. eigenvalues --   -0.29156  -0.27956  -0.27518  -0.26735  -0.25772
 Alpha  occ. eigenvalues --   -0.25003  -0.24634  -0.23298  -0.22225  -0.16712
 Alpha  occ. eigenvalues --   -0.16122  -0.15020  -0.14150  -0.12851  -0.11646
 Alpha  occ. eigenvalues --    0.04352
 Alpha virt. eigenvalues --    0.06024   0.06334   0.07386   0.07613   0.08036
 Alpha virt. eigenvalues --    0.08240   0.08757   0.10100   0.10399   0.10657
 Alpha virt. eigenvalues --    0.10979   0.12010   0.12421   0.13234   0.13820

  Beta  occ. eigenvalues --  -19.04115 -18.96021 -14.21785 -10.14031 -10.11860
  Beta  occ. eigenvalues --  -10.10676 -10.07970 -10.07901 -10.07874 -10.07797
  Beta  occ. eigenvalues --  -10.07540 -10.07011 -10.06373 -10.05595 -10.05483
  Beta  occ. eigenvalues --  -10.05117 -10.04713  -0.95114  -0.91183  -0.80744
  Beta  occ. eigenvalues --   -0.75733  -0.73595  -0.66660  -0.64988  -0.63874
  Beta  occ. eigenvalues --   -0.62602  -0.58609  -0.52754  -0.51130  -0.49480
  Beta  occ. eigenvalues --   -0.49275  -0.47250  -0.42457  -0.41656  -0.38640
  Beta  occ. eigenvalues --   -0.37962  -0.36713  -0.36692  -0.35255  -0.33492
  Beta  occ. eigenvalues --   -0.32752  -0.32614  -0.31903  -0.29827  -0.29583
  Beta  occ. eigenvalues --   -0.29069  -0.27770  -0.27211  -0.26423  -0.25667
  Beta  occ. eigenvalues --   -0.24810  -0.24552  -0.23204  -0.21869  -0.16302
  Beta  occ. eigenvalues --   -0.15910  -0.14486  -0.13742  -0.12365  -0.11170
  Beta virt. eigenvalues --    0.06201   0.07262   0.07469   0.07779   0.08041
  Beta virt. eigenvalues --    0.08437   0.08783   0.08859   0.10222   0.10610
  Beta virt. eigenvalues --    0.10627   0.11048   0.11991   0.12564   0.13125

 Mulliken charges and spin densities:
               1          2
     1  C    0.148858  -0.357168
     2  C   -0.114198  -0.051792
     3  C   -0.661290   0.369488
     4  C    0.414778   0.320156
     5  C   -0.254976   0.025118
     6  C   -0.347250  -0.017805
     7  C    0.125081  -0.647780
     8  N   -0.045023   0.004997
     9  C   -0.180720  -0.317932
    10  O   -0.341335   0.057394
    11  C    0.921286   0.043311
    12  C    0.089014  -0.197576
    13  C    0.149472  -0.543865
    14  C    0.066007   0.034057
    15  C   -0.312382  -0.035912
    16  C   -0.744285   0.447096
    17  O   -0.246566   0.017083
    18  H    0.064671   0.056875
    19  H    0.034918   0.139267
    20  H    0.200821  -0.037629
    21  H    0.004663   0.122678
    22  H   -0.098698   0.243685
    23  H    0.058560   0.066523
    24  H    0.118633   0.047110
    25  H    0.276197  -0.017491
    26  H    0.201295   0.012004
    27  H   -0.576733   0.687105
    28  H    0.039464   0.109364
    29  H    0.170534  -0.008952
    30  H   -0.160795   0.430592
 Sum of Mulliken charges =  -1.00000   1.00000

 Dipole moment (field-independent basis, Debye):
    X=              5.7158    Y=             -2.1448    Z=             -2.1982  Tot=              6.4887
 Quadrupole moment (field-independent basis, Debye-Ang):
   XX=           -171.4852   YY=           -122.8435   ZZ=           -129.9328
   XY=              7.1288   XZ=              1.2190   YZ=              7.0743

 Summary of Natural Population Analysis:

                                       Natural Population
                Natural  -----------------------------------------------
    Atom  No    Charge         Core      Valence    Rydberg      Total
 -----------------------------------------------------------------------
      C    1   -0.09660      0.99957     2.08712    0.00991     3.09660
      C    2   -0.10289      0.99957     2.09348    0.00984     3.10289
      C    3   -0.08754      0.99952     2.07991    0.00812     3.08754
      C    4   -0.01374      0.99950     2.00499    0.00924     3.01374
      C    5   -0.10602      0.99952     2.09746    0.00904     3.10602
      C    6   -0.10108      0.99957     2.09121    0.01030     3.10108
      C    7   -0.09773      0.99957     2.08615    0.01200     3.09773
      N    8   -0.32285      0.99968     2.81358    0.00959     3.82285
      C    9    0.35431      0.99962     1.62319    0.02288     2.64569
      O   10   -0.30302      0.99988     3.29763    0.00551     4.30302
      C   11   -0.03815      0.99946     2.02829    0.01039     3.03815
      C   12   -0.09686      0.99948     2.08708    0.01030     3.09686
      C   13    0.15507      0.99939     1.83222    0.01332     2.84493
      C   14   -0.11371      0.99952     2.10382    0.01037     3.11371
      C   15   -0.09907      0.99957     2.08925    0.01025     3.09907
      C   16   -0.11417      0.99953     2.10510    0.00954     3.11417
      O   17   -0.34272      0.99988     3.33603    0.00682     4.34272
      H   18    0.09631      0.00000     0.40292    0.00077     0.40369
      H   19    0.09969      0.00000     0.39949    0.00082     0.40031
      H   20    0.10888      0.00000     0.38956    0.00156     0.39112
      H   21    0.09643      0.00000     0.40249    0.00109     0.40357
      H   22    0.09685      0.00000     0.40224    0.00091     0.40315
      H   23    0.11326      0.00000     0.38555    0.00119     0.38674
      H   24    0.09193      0.00000     0.40706    0.00101     0.40807
      H   25    0.18559      0.00000     0.31205    0.00236     0.31441
      H   26    0.11059      0.00000     0.38835    0.00107     0.38941
      H   27    0.09673      0.00000     0.40155    0.00172     0.40327
      H   28    0.09625      0.00000     0.40300    0.00075     0.40375
      H   29    0.09959      0.00000     0.39911    0.00130     0.40041
      H   30    0.23466      0.00000     0.26013    0.00520     0.26534
 =======================================================================
   * Total *   -0.00000     16.99283    42.81001    0.19716    60.00000

 Normal termination of Gaussian 16 at Mon Dec 14 15:24:45 2020.
