 Gaussian 16, Revision A.03,

 -----------------------------------------------------------
 # opt freq B3LYP/6-31G(d) empiricaldispersion=gd3bj scf=xqc
 -----------------------------------------------------------

 -------------------------------
 CID_100924903_JID_4598_neutraal
 -------------------------------
 Symbolic Z-matrix:
 Charge =  0 Multiplicity = 1

 SCF Done:  E(RB3LYP) =  -619.808774878     A.U. after   14 cycles
 SCF Done:  E(RB3LYP) =  -619.813078997     A.U. after   12 cycles
 SCF Done:  E(RB3LYP) =  -619.813462678     A.U. after   12 cycles
 SCF Done:  E(RB3LYP) =  -619.813515953     A.U. after   10 cycles
 SCF Done:  E(RB3LYP) =  -619.813537593     A.U. after   10 cycles
 SCF Done:  E(RB3LYP) =  -619.813550588     A.U. after   10 cycles
 SCF Done:  E(RB3LYP) =  -619.813562843     A.U. after   10 cycles
 SCF Done:  E(RB3LYP) =  -619.813571311     A.U. after    9 cycles
 SCF Done:  E(RB3LYP) =  -619.813572666     A.U. after    8 cycles
 SCF Done:  E(RB3LYP) =  -619.813572949     A.U. after    7 cycles
 SCF Done:  E(RB3LYP) =  -619.813573081     A.U. after    7 cycles
 SCF Done:  E(RB3LYP) =  -619.813573203     A.U. after    7 cycles
 SCF Done:  E(RB3LYP) =  -619.813573280     A.U. after    7 cycles
 SCF Done:  E(RB3LYP) =  -619.813573292     A.U. after    7 cycles
 Optimization completed.
    -- Stationary point found.
 Normal termination of Gaussian 16 at Thu Dec 10 10:13:13 2020.

 --------------------------------------------------------------------
 #N Geom=AllCheck Guess=TCheck SCRF=Check GenChk RB3LYP/6-31G(d) Freq
 --------------------------------------------------------------------

 Structure from the checkpoint file:  "JID_4598.chk"
 -------------------------------
 CID_100924903_JID_4598_neutraal
 -------------------------------
 Charge =  0 Multiplicity = 1

 SCF Done:  E(RB3LYP) =  -619.813573292     A.U. after    1 cycles

  Exact polarizability: 151.497   8.124 130.531  -0.631   6.006 104.243
 Approx polarizability: 188.271  23.516 205.908   6.727  22.091 163.241

                      1                      2                      3
                      A                      A                      A
 Frequencies --     27.2156                31.5550                50.8426
 Red. masses --      3.4599                 3.7876                 3.3237
 Frc consts  --      0.0015                 0.0022                 0.0051
 IR Inten    --      0.3325                 0.6669                 0.5034

                      4                      5                      6
                      A                      A                      A
 Frequencies --     56.5504                70.6226               102.4181
 Red. masses --      4.2549                 3.0687                 3.0157
 Frc consts  --      0.0080                 0.0090                 0.0186
 IR Inten    --      5.3875                 1.8676                 0.0624

                      7                      8                      9
                      A                      A                      A
 Frequencies --    125.2650               143.5023               186.1577
 Red. masses --      3.9774                 2.6422                 1.7503
 Frc consts  --      0.0368                 0.0321                 0.0357
 IR Inten    --      3.2533                 5.4735                 7.5685

                     10                     11                     12
                      A                      A                      A
 Frequencies --    217.5991               263.3258               278.7832
 Red. masses --      2.5107                 1.6480                 2.7640
 Frc consts  --      0.0700                 0.0673                 0.1266
 IR Inten    --      0.2233                 6.3137                 1.6586

                     13                     14                     15
                      A                      A                      A
 Frequencies --    297.8051               310.0214               343.3014
 Red. masses --      1.1479                 1.8607                 2.7026
 Frc consts  --      0.0600                 0.1054                 0.1877
 IR Inten    --    121.0384                 3.8044                20.3227

                     16                     17                     18
                      A                      A                      A
 Frequencies --    371.0176               410.7835               430.7945
 Red. masses --      2.2152                 1.9971                 2.4091
 Frc consts  --      0.1797                 0.1985                 0.2634
 IR Inten    --      0.9911                 1.5623                 1.3529

                     19                     20                     21
                      A                      A                      A
 Frequencies --    474.0064               506.9011               533.8628
 Red. masses --      2.9360                 2.4654                 3.3094
 Frc consts  --      0.3887                 0.3732                 0.5557
 IR Inten    --      0.7086                 2.8492                 3.6155

                     22                     23                     24
                      A                      A                      A
 Frequencies --    605.1948               655.5622               686.2824
 Red. masses --      3.8164                 2.3776                 3.0605
 Frc consts  --      0.8236                 0.6020                 0.8493
 IR Inten    --      2.2135                 1.7989                 4.7040

                     25                     26                     27
                      A                      A                      A
 Frequencies --    739.1088               766.0163               791.0772
 Red. masses --      1.5260                 2.1694                 2.3933
 Frc consts  --      0.4912                 0.7500                 0.8824
 IR Inten    --     13.8978                 0.7381                 1.8700

                     28                     29                     30
                      A                      A                      A
 Frequencies --    828.9432               855.8377               865.1279
 Red. masses --      2.6848                 1.5190                 1.8187
 Frc consts  --      1.0869                 0.6555                 0.8020
 IR Inten    --      8.3294                 2.4625                11.0687

                     31                     32                     33
                      A                      A                      A
 Frequencies --    890.2101               919.2387               936.3077
 Red. masses --      1.9869                 1.6094                 2.0012
 Frc consts  --      0.9277                 0.8013                 1.0336
 IR Inten    --      2.4662                 2.4835                 8.1283

                     34                     35                     36
                      A                      A                      A
 Frequencies --    954.5106               971.7817               988.5413
 Red. masses --      1.7389                 1.9448                 1.7760
 Frc consts  --      0.9334                 1.0821                 1.0225
 IR Inten    --      2.5899                 3.4075                 3.3270

                     37                     38                     39
                      A                      A                      A
 Frequencies --   1025.3873              1030.6970              1054.8108
 Red. masses --      1.6950                 1.7767                 3.1350
 Frc consts  --      1.0500                 1.1121                 2.0551
 IR Inten    --      4.7628                20.9387                32.1764

                     40                     41                     42
                      A                      A                      A
 Frequencies --   1082.1282              1095.3166              1102.6876
 Red. masses --      2.9811                 1.7389                 2.1605
 Frc consts  --      2.0568                 1.2292                 1.5478
 IR Inten    --    106.9792                 8.4912                 6.3422

                     43                     44                     45
                      A                      A                      A
 Frequencies --   1106.9867              1131.2468              1140.1074
 Red. masses --      2.4938                 1.5759                 2.0956
 Frc consts  --      1.8005                 1.1882                 1.6049
 IR Inten    --      9.3438                 1.9425                 0.0226

                     46                     47                     48
                      A                      A                      A
 Frequencies --   1184.9132              1211.6469              1222.1529
 Red. masses --      1.2795                 1.3150                 1.2280
 Frc consts  --      1.0584                 1.1374                 1.0807
 IR Inten    --      6.4532                 5.1702                12.2637

                     49                     50                     51
                      A                      A                      A
 Frequencies --   1233.0937              1247.3704              1255.6691
 Red. masses --      1.7239                 1.3754                 1.3148
 Frc consts  --      1.5444                 1.2608                 1.2214
 IR Inten    --     11.3690                 2.2071                 3.9543

                     52                     53                     54
                      A                      A                      A
 Frequencies --   1290.7922              1301.1392              1325.8276
 Red. masses --      1.5032                 1.2625                 1.5707
 Frc consts  --      1.4756                 1.2593                 1.6268
 IR Inten    --      1.6042                 1.9768                 6.1846

                     55                     56                     57
                      A                      A                      A
 Frequencies --   1339.9041              1355.8159              1370.6197
 Red. masses --      1.1547                 1.5966                 1.6781
 Frc consts  --      1.2214                 1.7292                 1.8574
 IR Inten    --      2.4498                 7.5241                 9.3191

                     58                     59                     60
                      A                      A                      A
 Frequencies --   1381.2899              1391.5359              1398.6377
 Red. masses --      1.4054                 1.5572                 1.5459
 Frc consts  --      1.5799                 1.7766                 1.7818
 IR Inten    --      4.7843                18.4158                 4.1735

                     61                     62                     63
                      A                      A                      A
 Frequencies --   1411.0400              1412.7836              1418.6528
 Red. masses --      1.1829                 1.4107                 1.4349
 Frc consts  --      1.3876                 1.6589                 1.7015
 IR Inten    --     13.2383                 4.0520                 2.0513

                     64                     65                     66
                      A                      A                      A
 Frequencies --   1431.5025              1444.0652              1482.1507
 Red. masses --      1.2607                 1.2755                 1.0879
 Frc consts  --      1.5221                 1.5671                 1.4081
 IR Inten    --     51.7774                 4.1720                 7.7976

                     67                     68                     69
                      A                      A                      A
 Frequencies --   1504.4749              1506.3173              1514.3591
 Red. masses --      1.0907                 1.0934                 1.0801
 Frc consts  --      1.4546                 1.4618                 1.4594
 IR Inten    --      1.3170                 5.5074                 3.2361

                     70                     71                     72
                      A                      A                      A
 Frequencies --   1525.5681              1526.8446              1532.9033
 Red. masses --      1.0818                 1.0595                 1.0876
 Frc consts  --      1.4834                 1.4552                 1.5058
 IR Inten    --      7.3685                 6.2039                 1.0698

                     73                     74                     75
                      A                      A                      A
 Frequencies --   1534.5410              1543.2012              1706.9093
 Red. masses --      1.0606                 1.0745                 7.7205
 Frc consts  --      1.4715                 1.5076                13.2531
 IR Inten    --      7.2512                 2.1795                11.7024

                     76                     77                     78
                      A                      A                      A
 Frequencies --   1805.5372              3009.2176              3014.2899
 Red. masses --     12.4713                 1.0712                 1.0813
 Frc consts  --     23.9538                 5.7150                 5.7886
 IR Inten    --    250.3704                46.7251                13.3506

                     79                     80                     81
                      A                      A                      A
 Frequencies --   3031.0965              3036.9833              3037.4085
 Red. masses --      1.0615                 1.0620                 1.0628
 Frc consts  --      5.7462                 5.7712                 5.7772
 IR Inten    --     24.6268                23.0242                27.5789

                     82                     83                     84
                      A                      A                      A
 Frequencies --   3044.5933              3048.4359              3057.5750
 Red. masses --      1.0394                 1.0606                 1.0720
 Frc consts  --      5.6764                 5.8070                 5.9050
 IR Inten    --     21.0538                 6.5607                 4.9240

                     85                     86                     87
                      A                      A                      A
 Frequencies --   3064.3671              3069.7406              3073.6694
 Red. masses --      1.0922                 1.0621                 1.0956
 Frc consts  --      6.0426                 5.8967                 6.0984
 IR Inten    --     40.2118                 8.9011                87.7775

                     88                     89                     90
                      A                      A                      A
 Frequencies --   3083.6567              3088.7188              3104.5225
 Red. masses --      1.1013                 1.1034                 1.0956
 Frc consts  --      6.1702                 6.2022                 6.2212
 IR Inten    --     34.1238                13.9245                45.5753

                     91                     92                     93
                      A                      A                      A
 Frequencies --   3108.1696              3110.2604              3111.1488
 Red. masses --      1.1005                 1.1015                 1.1022
 Frc consts  --      6.2638                 6.2782                 6.2855
 IR Inten    --     43.7311                55.0559                 9.6526

                     94                     95                     96
                      A                      A                      A
 Frequencies --   3115.8986              3188.5427              3760.0268
 Red. masses --      1.1020                 1.0931                 1.0663
 Frc consts  --      6.3040                 6.5480                 8.8822
 IR Inten    --     39.4420                14.1977                 9.5873

 - Thermochemistry -
 -------------------
 Temperature   298.150 Kelvin.  Pressure   1.00000 Atm.
 Atom     1 has atomic number  6 and mass  12.00000

 Molecular mass:   196.14633 amu.
 Principal axes and moments of inertia in atomic units:
                           1         2         3
     Eigenvalues --  1747.871735309.912096396.59496
           X            0.99987  -0.01562  -0.00488
           Y            0.01557   0.99983  -0.00992
           Z            0.00503   0.00985   0.99994
 This molecule is an asymmetric top.
 Rotational symmetry number  1.
 Warning -- assumption of classical behavior for rotation
           may cause significant error
 Rotational temperatures (Kelvin)      0.04955     0.01631     0.01354
 Rotational constants (GHZ):           1.03254     0.33988     0.28214
 Zero-point vibrational energy     798058.9 (Joules/Mol)
                                  190.74064 (Kcal/Mol)
 Warning -- explicit consideration of  22 degrees of freedom as
           vibrations may cause significant error
 Vibrational temperatures:     39.16    45.40    73.15    81.36   101.61
          (Kelvin)            147.36   180.23   206.47   267.84   313.08
                              378.87   401.11   428.48   446.05   493.93
                              533.81   591.03   619.82   681.99   729.32
                              768.11   870.74   943.21   987.41  1063.41
                             1102.13  1138.18  1192.66  1231.36  1244.73
                             1280.81  1322.58  1347.14  1373.33  1398.18
                             1422.29  1475.30  1482.94  1517.64  1556.94
                             1575.92  1586.52  1592.71  1627.61  1640.36
                             1704.83  1743.29  1758.41  1774.15  1794.69
                             1806.63  1857.16  1872.05  1907.57  1927.82
                             1950.72  1972.02  1987.37  2002.11  2012.33
                             2030.17  2032.68  2041.12  2059.61  2077.69
                             2132.48  2164.60  2167.25  2178.82  2194.95
                             2196.79  2205.51  2207.86  2220.32  2455.86
                             2597.77  4329.59  4336.89  4361.07  4369.54
                             4370.15  4380.49  4386.02  4399.17  4408.94
                             4416.67  4422.32  4436.69  4443.98  4466.72
                             4471.96  4474.97  4476.25  4483.08  4587.60
                             5409.84

 Zero-point correction=                           0.303965 (Hartree/Particle)
 Thermal correction to Energy=                    0.319526
 Thermal correction to Enthalpy=                  0.320470
 Thermal correction to Gibbs Free Energy=         0.259131
 Sum of electronic and zero-point Energies=           -619.509609
 Sum of electronic and thermal Energies=              -619.494047
 Sum of electronic and thermal Enthalpies=            -619.493103
 Sum of electronic and thermal Free Energies=         -619.554442

                     E (Thermal)             CV                S
                      KCal/Mol        Cal/Mol-Kelvin    Cal/Mol-Kelvin
 Total                  200.506             57.191            129.100
 Electronic               0.000              0.000              0.000
 Translational            0.889              2.981             41.726
 Rotational               0.889              2.981             32.451
 Vibrational            198.728             51.229             54.922
 Vibration     1          0.593              1.984              6.023
 Vibration     2          0.594              1.983              5.729
 Vibration     3          0.595              1.977              4.784
 Vibration     4          0.596              1.975              4.574
 Vibration     5          0.598              1.968              4.136
 Vibration     6          0.604              1.947              3.408
 Vibration     7          0.610              1.928              3.017
 Vibration     8          0.616              1.910              2.757
 Vibration     9          0.632              1.859              2.266
 Vibration    10          0.646              1.814              1.979
 Vibration    11          0.670              1.740              1.640
 Vibration    12          0.679              1.713              1.541
 Vibration    13          0.691              1.678              1.429
 Vibration    14          0.699              1.655              1.362
 Vibration    15          0.722              1.589              1.197
 Vibration    16          0.743              1.532              1.076
 Vibration    17          0.775              1.447              0.924
 Vibration    18          0.792              1.403              0.856
 Vibration    19          0.831              1.308              0.726
 Vibration    20          0.862              1.235              0.641
 Vibration    21          0.889              1.175              0.579
 Vibration    22          0.964              1.021              0.441

 Optimization completed.
    -- Stationary point found.
 Normal termination of Gaussian 16 at Thu Dec 10 10:23:55 2020.

 ----------------------------------------------------------------------
 # B3LYP/6-311++G(d,p) empiricaldispersion=gd3bj scf=xqc pop=npa geom=c
 heck
 ----------------------------------------------------------------------

 ---------------------------------------
 CID_100924903_JID_4598_Energie_neutraal
 ---------------------------------------
 Structure from the checkpoint file:  "JID_4598.chk"
 Charge =  0 Multiplicity = 1

 SCF Done:  E(RB3LYP) =  -619.998762964     A.U. after   15 cycles
 Normal termination of Gaussian 16 at Thu Dec 10 10:29:33 2020.

 ----------------------------------------------------------------------
 # B3LYP/6-311++G(d,p) empiricaldispersion=gd3bj scf=xqc pop=npa geom=c
 heck
 ----------------------------------------------------------------------

 -------------------------------------
 CID_100924903_JID_4598_Energie_kation
 -------------------------------------
 Structure from the checkpoint file:  "JID_4598.chk"
 Charge =  1 Multiplicity = 2

 SCF Done:  E(UB3LYP) =  -619.672521396     A.U. after   33 cycles
 SCF Done:  E(UB3LYP) =  -619.672521396     a.u. after    2 cycles
 Normal termination of Gaussian 16 at Thu Dec 10 11:00:10 2020.
 Gaussian 16:  ES64L-G16RevA.03 25-Dec-2016

 ----------------------------------------------------------------------
 # B3LYP/6-311++G(d,p) empiricaldispersion=gd3bj scf=xqc pop=npa geom=c
 heck
 ----------------------------------------------------------------------

 ------------------------------------
 CID_100924903_JID_4598_Energie_anion
 ------------------------------------
 Structure from the checkpoint file:  "JID_4598.chk"
 Charge = -1 Multiplicity = 2

                         Standard orientation:
 ---------------------------------------------------------------------
 Center     Atomic      Atomic             Coordinates (Angstroms)
 Number     Number       Type             X           Y           Z
 ---------------------------------------------------------------------
      1          6           0        4.308547   -1.754355   -0.286406
      2          6           0        2.883750   -1.711351    0.273326
      3          6           0        2.568465   -0.445830    1.084787
      4          6           0        2.729194    0.878273    0.324718
      5          6           0        1.873177    0.988401   -0.955619
      6          6           0        0.410405    0.819828   -0.684027
      7          6           0       -0.415572   -0.177460   -1.043025
      8          6           0       -1.833839   -0.027784   -0.544685
      9          6           0       -1.794701    1.297858    0.248763
     10          6           0       -0.358703    1.818022    0.103687
     11          8           0        0.069097    2.865633    0.554184
     12          6           0       -2.286381   -1.250320    0.273027
     13          6           0       -3.747445   -1.178310    0.723544
     14          8           0       -4.659467   -1.110134   -0.368022
     15          1           0        4.483805   -0.952728   -1.012629
     16          1           0        4.506876   -2.705939   -0.792090
     17          1           0        5.049217   -1.640607    0.514794
     18          1           0        2.164990   -1.810990   -0.550800
     19          1           0        2.722383   -2.585950    0.917103
     20          1           0        1.540589   -0.518609    1.463973
     21          1           0        3.219477   -0.418559    1.969428
     22          1           0        2.460479    1.706913    0.988161
     23          1           0        3.779868    1.027165    0.047613
     24          1           0        2.037505    1.982342   -1.390219
     25          1           0        2.198649    0.252013   -1.699134
     26          1           0       -0.118351   -1.042523   -1.631801
     27          1           0       -2.506642    0.053997   -1.411295
     28          1           0       -2.498777    2.053153   -0.115452
     29          1           0       -2.009152    1.153831    1.314208
     30          1           0       -2.153300   -2.156141   -0.331636
     31          1           0       -1.641587   -1.352431    1.157231
     32          1           0       -4.006623   -2.090192    1.270567
     33          1           0       -3.894737   -0.332713    1.413246
     34          1           0       -4.633096   -0.207853   -0.719102
 ---------------------------------------------------------------------

 SCF Done:  E(UB3LYP) =  -619.996487111     A.U. after   33 cycles
 SCF Done:  E(UB3LYP) =  -619.996487111     a.u. after    1 cycles

 The electronic state is 2-A.
 Alpha  occ. eigenvalues --  -19.03359 -18.93301 -10.12023 -10.07432 -10.05994
 Alpha  occ. eigenvalues --  -10.05743 -10.05447 -10.05153 -10.04664 -10.04041
 Alpha  occ. eigenvalues --  -10.03899 -10.03848 -10.01777 -10.01675  -0.93332
 Alpha  occ. eigenvalues --   -0.87120  -0.71727  -0.68980  -0.65581  -0.63162
 Alpha  occ. eigenvalues --   -0.58960  -0.55905  -0.55154  -0.50503  -0.48136
 Alpha  occ. eigenvalues --   -0.43903  -0.42746  -0.41969  -0.36838  -0.36050
 Alpha  occ. eigenvalues --   -0.35486  -0.34856  -0.34319  -0.32326  -0.30653
 Alpha  occ. eigenvalues --   -0.30093  -0.29659  -0.28673  -0.27610  -0.26373
 Alpha  occ. eigenvalues --   -0.25202  -0.24606  -0.24026  -0.23881  -0.23562
 Alpha  occ. eigenvalues --   -0.22215  -0.21943  -0.21565  -0.20237  -0.19995
 Alpha  occ. eigenvalues --   -0.19678  -0.18321  -0.11934  -0.08923   0.05150
 Alpha virt. eigenvalues --    0.06895   0.07295   0.08309   0.09052   0.09456
 Alpha virt. eigenvalues --    0.09806   0.10190   0.11633   0.11879   0.12205
 Alpha virt. eigenvalues --    0.12429   0.12485   0.13013   0.13675   0.14390

  Beta  occ. eigenvalues --  -19.03354 -18.92933 -10.12013 -10.07138 -10.05961
  Beta  occ. eigenvalues --  -10.05769 -10.05445 -10.05123 -10.04664 -10.04067
  Beta  occ. eigenvalues --  -10.03892 -10.03846 -10.01745 -10.01233  -0.93320
  Beta  occ. eigenvalues --   -0.86428  -0.71410  -0.68959  -0.65441  -0.63095
  Beta  occ. eigenvalues --   -0.58871  -0.55578  -0.55038  -0.50372  -0.47842
  Beta  occ. eigenvalues --   -0.43842  -0.42240  -0.41911  -0.36741  -0.35835
  Beta  occ. eigenvalues --   -0.35442  -0.34827  -0.34046  -0.32177  -0.30460
  Beta  occ. eigenvalues --   -0.29966  -0.29564  -0.28428  -0.27545  -0.26244
  Beta  occ. eigenvalues --   -0.25088  -0.24526  -0.23793  -0.23468  -0.23389
  Beta  occ. eigenvalues --   -0.22007  -0.21838  -0.21152  -0.20070  -0.19694
  Beta  occ. eigenvalues --   -0.19032  -0.18235  -0.10124  -0.08608
  Beta virt. eigenvalues --    0.07103   0.07372   0.08158   0.09118   0.09413
  Beta virt. eigenvalues --    0.09878   0.10243   0.11434   0.11715   0.11887
  Beta virt. eigenvalues --    0.12230   0.12523   0.12754   0.13067   0.13640

 Mulliken charges and spin densities:
               1          2
     1  C    0.422427  -1.096562
     2  C   -0.734138   0.588980
     3  C   -0.070637  -0.151205
     4  C   -0.027263  -0.200763
     5  C   -0.250553  -0.167483
     6  C    0.882678   0.120220
     7  C   -0.756932   0.354769
     8  C    0.415402  -0.121880
     9  C   -0.517830  -0.051711
    10  C   -0.481542   0.141889
    11  O   -0.388133   0.135039
    12  C   -0.326164   0.151588
    13  C   -0.368288  -0.207419
    14  O   -0.248097   0.001512
    15  H   -0.130489   0.279451
    16  H   -0.252321   0.377095
    17  H   -0.101334   0.227261
    18  H    0.219717  -0.083806
    19  H    0.105873   0.013996
    20  H    0.118806   0.002184
    21  H    0.136300  -0.000675
    22  H    0.221771  -0.024280
    23  H   -0.032740   0.165461
    24  H    0.095232   0.076746
    25  H   -0.038992   0.202674
    26  H    0.039661   0.061602
    27  H    0.127032   0.010011
    28  H    0.136060   0.004639
    29  H    0.093937   0.073489
    30  H    0.114810   0.021270
    31  H    0.130725   0.012441
    32  H    0.114200   0.046110
    33  H    0.104534   0.027866
    34  H    0.246288   0.009494
 Sum of Mulliken charges =  -1.00000   1.00000

 Dipole moment (field-independent basis, Debye):
    X=             -4.4492    Y=             -2.6089    Z=              1.6668  Tot=              5.4203
 Quadrupole moment (field-independent basis, Debye-Ang):
   XX=           -151.2132   YY=           -126.2775   ZZ=           -105.5353
   XY=             -0.0178   XZ=              4.6618   YZ=             -7.1145

 Summary of Natural Population Analysis:

                                       Natural Population
                Natural  -----------------------------------------------
    Atom  No    Charge         Core      Valence    Rydberg      Total
 -----------------------------------------------------------------------
      C    1   -0.28806      0.99967     2.28312    0.00527     3.28806
      C    2   -0.19372      0.99964     2.18593    0.00815     3.19372
      C    3   -0.19031      0.99963     2.18215    0.00852     3.19031
      C    4   -0.19052      0.99963     2.18187    0.00902     3.19052
      C    5   -0.20102      0.99960     2.19071    0.01072     3.20102
      C    6   -0.06900      0.99942     2.05798    0.01159     3.06900
      C    7    0.02685      0.99947     1.96314    0.01054     2.97315
      C    8   -0.13381      0.99960     2.12337    0.01084     3.13381
      C    9   -0.23453      0.99960     2.22595    0.00898     3.23453
      C   10    0.30490      0.99959     1.67155    0.02395     2.69510
      O   11   -0.28046      0.99987     3.27416    0.00643     4.28046
      C   12   -0.19229      0.99961     2.18474    0.00794     3.19229
      C   13   -0.00934      0.99960     1.99731    0.01243     3.00934
      O   14   -0.37287      0.99990     3.36626    0.00672     4.37287
      H   15    0.09898      0.00000     0.39991    0.00111     0.40102
      H   16    0.09575      0.00000     0.40337    0.00088     0.40425
      H   17    0.09286      0.00000     0.40614    0.00099     0.40714
      H   18    0.09820      0.00000     0.40052    0.00128     0.40180
      H   19    0.08961      0.00000     0.40937    0.00102     0.41039
      H   20    0.10177      0.00000     0.39737    0.00086     0.39823
      H   21    0.08929      0.00000     0.40984    0.00087     0.41071
      H   22    0.10755      0.00000     0.39140    0.00104     0.39245
      H   23    0.09090      0.00000     0.40814    0.00096     0.40910
      H   24    0.10544      0.00000     0.39341    0.00115     0.39456
      H   25    0.09365      0.00000     0.40475    0.00160     0.40635
      H   26    0.08420      0.00000     0.41469    0.00111     0.41580
      H   27    0.09268      0.00000     0.40548    0.00184     0.40732
      H   28    0.10279      0.00000     0.39640    0.00080     0.39721
      H   29    0.10203      0.00000     0.39637    0.00160     0.39797
      H   30    0.09641      0.00000     0.40252    0.00108     0.40359
      H   31    0.09864      0.00000     0.39980    0.00155     0.40136
      H   32    0.08066      0.00000     0.41778    0.00156     0.41934
      H   33    0.07525      0.00000     0.42301    0.00174     0.42475
      H   34    0.22750      0.00000     0.27009    0.00241     0.27250
 =======================================================================
   * Total *    0.00000     13.99483    39.83861    0.16656    54.00000

 Normal termination of Gaussian 16 at Thu Dec 10 11:18:26 2020.
