 Gaussian 16, Revision A.03,

 -----------------------------------------------------------
 # opt freq B3LYP/6-31G(d) empiricaldispersion=gd3bj scf=xqc
 -----------------------------------------------------------

 -----------------------------
 CID_11586312_JID_486_neutraal
 -----------------------------
 Symbolic Z-matrix:
 Charge =  0 Multiplicity = 1

 SCF Done:  E(RB3LYP) =  -477.374717905     A.U. after   14 cycles
 SCF Done:  E(RB3LYP) =  -477.378889738     A.U. after   12 cycles
 SCF Done:  E(RB3LYP) =  -477.379347524     A.U. after   12 cycles
 SCF Done:  E(RB3LYP) =  -477.379409129     A.U. after   11 cycles
 SCF Done:  E(RB3LYP) =  -477.379428252     A.U. after    9 cycles
 SCF Done:  E(RB3LYP) =  -477.379431178     A.U. after    9 cycles
 SCF Done:  E(RB3LYP) =  -477.379431855     A.U. after    7 cycles
 SCF Done:  E(RB3LYP) =  -477.379432031     A.U. after    8 cycles
 Optimization completed.
    -- Stationary point found.
 Normal termination of Gaussian 16 at Tue Dec  8 10:39:29 2020.

 --------------------------------------------------------------------
 #N Geom=AllCheck Guess=TCheck SCRF=Check GenChk RB3LYP/6-31G(d) Freq
 --------------------------------------------------------------------

 Structure from the checkpoint file:  "JID_486.chk"
 -----------------------------
 CID_11586312_JID_486_neutraal
 -----------------------------
 Charge =  0 Multiplicity = 1

 SCF Done:  E(RB3LYP) =  -477.379432031     A.U. after    1 cycles

  Exact polarizability: 112.954   4.562  94.821  -6.420   2.078  45.164
 Approx polarizability: 162.533  11.887 164.369 -13.643   4.336  65.303

                      1                      2                      3
                      A                      A                      A
 Frequencies --     65.8002                93.0797               167.9102
 Red. masses --      3.9356                 2.7874                 5.1642
 Frc consts  --      0.0100                 0.0142                 0.0858
 IR Inten    --      5.0965                 0.9457                 0.3533

                      4                      5                      6
                      A                      A                      A
 Frequencies --    197.1622               257.8247               297.6455
 Red. masses --      1.5423                 1.8563                 3.1434
 Frc consts  --      0.0353                 0.0727                 0.1641
 IR Inten    --      4.7372                 4.2329                12.2918

                      7                      8                      9
                      A                      A                      A
 Frequencies --    337.1112               361.8653               427.4518
 Red. masses --      3.0191                 1.2296                 3.3774
 Frc consts  --      0.2021                 0.0949                 0.3636
 IR Inten    --      4.6307               100.7299                 1.2753

                     10                     11                     12
                      A                      A                      A
 Frequencies --    484.0356               527.0858               559.2648
 Red. masses --      4.5791                 7.9777                 4.1083
 Frc consts  --      0.6321                 1.3058                 0.7571
 IR Inten    --      5.1932                 0.5679                 1.3845

                     13                     14                     15
                      A                      A                      A
 Frequencies --    584.0207               614.8022               745.6589
 Red. masses --      4.0743                 5.5089                 5.9441
 Frc consts  --      0.8188                 1.2268                 1.9472
 IR Inten    --      0.8940                 8.3664                13.5345

                     16                     17                     18
                      A                      A                      A
 Frequencies --    774.8444               792.2679               827.2190
 Red. masses --      2.6137                 1.3755                 1.5222
 Frc consts  --      0.9246                 0.5087                 0.6137
 IR Inten    --      9.5637                34.8952                 0.9391

                     19                     20                     21
                      A                      A                      A
 Frequencies --    866.7883               901.9982               926.4592
 Red. masses --      4.4718                 1.3364                 2.7462
 Frc consts  --      1.9795                 0.6406                 1.3888
 IR Inten    --      1.4655                 1.6094                16.5458

                     22                     23                     24
                      A                      A                      A
 Frequencies --    946.6703              1062.9276              1100.1843
 Red. masses --      1.2905                 4.4337                 2.1639
 Frc consts  --      0.6814                 2.9514                 1.5432
 IR Inten    --      0.9889                54.2604                 6.5778

                     25                     26                     27
                      A                      A                      A
 Frequencies --   1126.2827              1137.0189              1192.4773
 Red. masses --      1.8226                 1.8001                 1.5126
 Frc consts  --      1.3622                 1.3711                 1.2673
 IR Inten    --     33.1651               109.5899               130.0426

                     28                     29                     30
                      A                      A                      A
 Frequencies --   1204.4382              1299.9700              1309.8971
 Red. masses --      1.5695                 1.9546                 2.8500
 Frc consts  --      1.3415                 1.9461                 2.8812
 IR Inten    --      9.8556                52.9463               178.8507

                     31                     32                     33
                      A                      A                      A
 Frequencies --   1325.4329              1349.8030              1395.8214
 Red. masses --      1.8263                 1.2721                 2.4175
 Frc consts  --      1.8903                 1.3656                 2.7751
 IR Inten    --     66.9733                23.5964               108.7197

                     34                     35                     36
                      A                      A                      A
 Frequencies --   1423.4325              1442.2761              1501.8360
 Red. masses --      1.4626                 1.3616                 2.2896
 Frc consts  --      1.7460                 1.6688                 3.0427
 IR Inten    --     17.8905                21.4490                38.9964

                     37                     38                     39
                      A                      A                      A
 Frequencies --   1510.7585              1515.7219              1535.5994
 Red. masses --      1.3325                 1.0528                 1.2209
 Frc consts  --      1.7919                 1.4251                 1.6963
 IR Inten    --     50.4350                 4.3617                56.3277

                     40                     41                     42
                      A                      A                      A
 Frequencies --   1548.0686              1642.2215              1659.9929
 Red. masses --      1.7703                 7.0203                 5.8183
 Frc consts  --      2.4997                11.1549                 9.4463
 IR Inten    --    138.7202                17.2276                87.8538

                     43                     44                     45
                      A                      A                      A
 Frequencies --   3059.0640              3085.6127              3123.4627
 Red. masses --      1.0371                 1.0584                 1.1022
 Frc consts  --      5.7182                 5.9372                 6.3355
 IR Inten    --     21.9855                37.5466                26.6301

                     46                     47                     48
                      A                      A                      A
 Frequencies --   3134.1960              3157.0232              3172.5910
 Red. masses --      1.1052                 1.1046                 1.0895
 Frc consts  --      6.3962                 6.4864                 6.4613
 IR Inten    --     15.0290                32.6594                16.3151

                     49                     50                     51
                      A                      A                      A
 Frequencies --   3185.5816              3219.6197              3742.2514
 Red. masses --      1.0893                 1.0959                 1.0659
 Frc consts  --      6.5128                 6.6929                 8.7950
 IR Inten    --     20.9768                18.8280                35.6607

 - Thermochemistry -
 -------------------
 Temperature   298.150 Kelvin.  Pressure   1.00000 Atm.
 Atom     1 has atomic number  6 and mass  12.00000

 Molecular mass:   139.06333 amu.
 Principal axes and moments of inertia in atomic units:
                           1         2         3
     Eigenvalues --   808.801141666.936472323.87110
           X            0.99990  -0.01313   0.00435
           Y            0.01314   0.99991  -0.00171
           Z           -0.00433   0.00177   0.99999
 This molecule is an asymmetric top.
 Rotational symmetry number  1.
 Warning -- assumption of classical behavior for rotation
           may cause significant error
 Rotational temperatures (Kelvin)      0.10709     0.05196     0.03727
 Rotational constants (GHZ):           2.23138     1.08267     0.77661
 Zero-point vibrational energy     406255.0 (Joules/Mol)
                                   97.09727 (Kcal/Mol)
 Warning -- explicit consideration of  14 degrees of freedom as
           vibrations may cause significant error
 Vibrational temperatures:     94.67   133.92   241.59   283.67   370.95
          (Kelvin)            428.25   485.03   520.64   615.01   696.42
                              758.36   804.66   840.28   884.56  1072.84
                             1114.83  1139.90  1190.18  1247.12  1297.77
                             1332.97  1362.05  1529.32  1582.92  1620.47
                             1635.92  1715.71  1732.92  1870.37  1884.65
                             1907.00  1942.07  2008.28  2048.00  2075.11
                             2160.81  2173.64  2180.79  2209.39  2227.33
                             2362.79  2388.36  4401.31  4439.51  4493.97
                             4509.41  4542.25  4564.65  4583.34  4632.31
                             5384.27

 Zero-point correction=                           0.154734 (Hartree/Particle)
 Thermal correction to Energy=                    0.163910
 Thermal correction to Enthalpy=                  0.164854
 Thermal correction to Gibbs Free Energy=         0.120325
 Sum of electronic and zero-point Energies=           -477.224698
 Sum of electronic and thermal Energies=              -477.215522
 Sum of electronic and thermal Enthalpies=            -477.214578
 Sum of electronic and thermal Free Energies=         -477.259107

                     E (Thermal)             CV                S
                      KCal/Mol        Cal/Mol-Kelvin    Cal/Mol-Kelvin
 Total                  102.855             34.718             93.720
 Electronic               0.000              0.000              0.000
 Translational            0.889              2.981             40.701
 Rotational               0.889              2.981             29.528
 Vibrational            101.078             28.756             23.490
 Vibration     1          0.597              1.971              4.275
 Vibration     2          0.602              1.954              3.594
 Vibration     3          0.625              1.882              2.459
 Vibration     4          0.637              1.844              2.159
 Vibration     5          0.667              1.750              1.676
 Vibration     6          0.691              1.678              1.430
 Vibration     7          0.718              1.601              1.226
 Vibration     8          0.736              1.551              1.114
 Vibration     9          0.789              1.410              0.867
 Vibration    10          0.840              1.285              0.699
 Vibration    11          0.882              1.190              0.594
 Vibration    12          0.915              1.119              0.525
 Vibration    13          0.941              1.066              0.478
 Vibration    14          0.974              1.001              0.425

                           ! Non-Optimized Parameters !
 Normal termination of Gaussian 16 at Tue Dec  8 10:44:24 2020.

 ----------------------------------------------------------------------
 # B3LYP/6-311++G(d,p) empiricaldispersion=gd3bj scf=xqc pop=npa geom=c
 heck
 ----------------------------------------------------------------------

 -------------------------------------
 CID_11586312_JID_486_Energie_neutraal
 -------------------------------------
 Structure from the checkpoint file:  "JID_486.chk"
 Charge =  0 Multiplicity = 1

 SCF Done:  E(RB3LYP) =  -477.521225321     A.U. after   15 cycles
 Normal termination of Gaussian 16 at Tue Dec  8 10:47:46 2020.

 ----------------------------------------------------------------------
 # B3LYP/6-311++G(d,p) empiricaldispersion=gd3bj scf=xqc pop=npa geom=c
 heck
 ----------------------------------------------------------------------

 -----------------------------------
 CID_11586312_JID_486_Energie_kation
 -----------------------------------
 Structure from the checkpoint file:  "JID_486.chk"
 Charge =  1 Multiplicity = 2

 SCF Done:  E(UB3LYP) =  -477.224308493     A.U. after   19 cycles
 Normal termination of Gaussian 16 at Tue Dec  8 10:50:40 2020.
 Gaussian 16:  ES64L-G16RevA.03 25-Dec-2016

 ----------------------------------------------------------------------
 # B3LYP/6-311++G(d,p) empiricaldispersion=gd3bj scf=xqc pop=npa geom=c
 heck
 ----------------------------------------------------------------------

 ----------------------------------
 CID_11586312_JID_486_Energie_anion
 ----------------------------------
 Structure from the checkpoint file:  "JID_486.chk"
 Charge = -1 Multiplicity = 2

                         Standard orientation:
 ---------------------------------------------------------------------
 Center     Atomic      Atomic             Coordinates (Angstroms)
 Number     Number       Type             X           Y           Z
 ---------------------------------------------------------------------
      1          6           0        2.997287   -0.457648    0.771571
      2          6           0        2.431656    0.080494   -0.534151
      3          8           0        1.217852    0.825324   -0.323403
      4          6           0        0.073307    0.125562   -0.176534
      5          6           0       -1.101887    0.889180    0.047308
      6          6           0       -2.297228    0.203985    0.189694
      7          6           0       -2.305635   -1.196775    0.109450
      8          6           0       -1.103251   -1.846343   -0.110880
      9          7           0        0.066246   -1.193868   -0.249787
     10          8           0       -0.974827    2.245602    0.105539
     11          1           0        3.140556    0.354555    1.491646
     12          1           0        3.967558   -0.934377    0.589576
     13          1           0        2.322321   -1.200747    1.203417
     14          1           0        3.109640    0.807299   -0.989048
     15          1           0        2.241210   -0.729453   -1.243379
     16          1           0       -3.219149    0.756428    0.361699
     17          1           0       -3.229760   -1.754173    0.219725
     18          1           0       -1.053182   -2.930264   -0.179310
     19          1           0       -1.852603    2.629662    0.258347
 ---------------------------------------------------------------------

 SCF Done:  E(UB3LYP) =  -477.506995667     A.U. after   33 cycles
 SCF Done:  E(UB3LYP) =  -477.506995667     a.u. after    1 cycles

 The electronic state is 2-A.
 Alpha  occ. eigenvalues --  -19.04990 -19.04380 -14.20319 -10.15616 -10.13310
 Alpha  occ. eigenvalues --  -10.12440 -10.09558 -10.07533 -10.06917 -10.06554
 Alpha  occ. eigenvalues --   -0.97853  -0.95050  -0.83340  -0.69260  -0.67842
 Alpha  occ. eigenvalues --   -0.63450  -0.56050  -0.53432  -0.49917  -0.43978
 Alpha  occ. eigenvalues --   -0.42806  -0.40995  -0.36944  -0.36078  -0.34608
 Alpha  occ. eigenvalues --   -0.32116  -0.31381  -0.29937  -0.29187  -0.27597
 Alpha  occ. eigenvalues --   -0.26390  -0.25944  -0.23270  -0.22650  -0.16811
 Alpha  occ. eigenvalues --   -0.16558  -0.11293   0.04819
 Alpha virt. eigenvalues --    0.06439   0.07511   0.08266   0.09091   0.09308
 Alpha virt. eigenvalues --    0.09961   0.10416   0.11444   0.12146   0.13009
 Alpha virt. eigenvalues --    0.14398   0.15280   0.16237   0.16788   0.17675

  Beta  occ. eigenvalues --  -19.04989 -19.04320 -14.20309 -10.15605 -10.13313
  Beta  occ. eigenvalues --  -10.12430 -10.09550 -10.07480 -10.06901 -10.06533
  Beta  occ. eigenvalues --   -0.97832  -0.94950  -0.83319  -0.69199  -0.67812
  Beta  occ. eigenvalues --   -0.63408  -0.55994  -0.53366  -0.49863  -0.43865
  Beta  occ. eigenvalues --   -0.42760  -0.40956  -0.36882  -0.36044  -0.34582
  Beta  occ. eigenvalues --   -0.32052  -0.31339  -0.29868  -0.29151  -0.27568
  Beta  occ. eigenvalues --   -0.26335  -0.25900  -0.23252  -0.22625  -0.16772
  Beta  occ. eigenvalues --   -0.16512  -0.11264
  Beta virt. eigenvalues --    0.06879   0.07963   0.08353   0.08976   0.09159
  Beta virt. eigenvalues --    0.10135   0.10434   0.10485   0.11843   0.12781
  Beta virt. eigenvalues --    0.13299   0.14446   0.15299   0.16166   0.16775

 Mulliken charges and spin densities:
               1          2
     1  C    0.276625  -0.638807
     2  C    0.229822  -0.424380
     3  O   -0.048695  -0.008090
     4  C    1.825243  -2.631470
     5  C   -2.082524   2.547025
     6  C    1.866531  -2.007576
     7  C    0.685976  -0.638862
     8  C   -0.524280   0.277134
     9  N   -0.135756   0.098008
    10  O   -0.260279   0.006686
    11  H    0.052332   0.089936
    12  H   -0.188697   0.305684
    13  H   -0.005388   0.169512
    14  H   -0.136555   0.294347
    15  H    0.122886   0.046222
    16  H   -1.402531   1.594660
    17  H   -0.537264   0.716798
    18  H   -0.168005   0.333567
    19  H   -0.569440   0.869606
 Sum of Mulliken charges =  -1.00000   1.00000

 Dipole moment (field-independent basis, Debye):
    X=              6.6893    Y=             -3.2492    Z=             -1.3596  Tot=              7.5600
 Quadrupole moment (field-independent basis, Debye-Ang):
   XX=           -129.4078   YY=           -102.5097   ZZ=            -79.5860
   XY=             11.2919   XZ=              4.3874   YZ=             -2.2698

 Summary of Natural Population Analysis:

                                       Natural Population
                Natural  -----------------------------------------------
    Atom  No    Charge         Core      Valence    Rydberg      Total
 -----------------------------------------------------------------------
      C    1   -0.29923      0.99966     2.29539    0.00418     3.29923
      C    2   -0.01315      0.99958     2.00296    0.01061     3.01315
      O    3   -0.27082      0.99986     3.26152    0.00944     4.27082
      C    4    0.25096      0.99944     1.73140    0.01820     2.74904
      C    5    0.12834      0.99937     1.85822    0.01407     2.87166
      C    6   -0.11521      0.99952     2.10325    0.01244     3.11521
      C    7   -0.12748      0.99957     2.11724    0.01067     3.12748
      C    8    0.01233      0.99958     1.97316    0.01493     2.98767
      N    9   -0.26669      0.99966     2.75675    0.01028     3.76669
      O   10   -0.33212      0.99988     3.32446    0.00778     4.33212
      H   11    0.09864      0.00000     0.40008    0.00129     0.40136
      H   12    0.09793      0.00000     0.40049    0.00158     0.40207
      H   13    0.10701      0.00000     0.39143    0.00156     0.39299
      H   14    0.08697      0.00000     0.41164    0.00139     0.41303
      H   15    0.09264      0.00000     0.40549    0.00187     0.40736
      H   16    0.11173      0.00000     0.37611    0.01216     0.38827
      H   17    0.10622      0.00000     0.39193    0.00185     0.39378
      H   18    0.08924      0.00000     0.40958    0.00118     0.41076
      H   19    0.24270      0.00000     0.24096    0.01634     0.25730
 =======================================================================
   * Total *   -0.00000      9.99611    26.85206    0.15183    37.00000

 Normal termination of Gaussian 16 at Tue Dec  8 10:56:42 2020.
