 Gaussian 16, Revision A.03,

 -----------------------------------------------------------
 # opt freq B3LYP/6-31G(d) empiricaldispersion=gd3bj scf=xqc
 -----------------------------------------------------------

 -------------------------------
 CID_131035139_JID_4452_neutraal
 -------------------------------
 Symbolic Z-matrix:
 Charge =  0 Multiplicity = 1

 SCF Done:  E(RB3LYP) =  -972.450701397     A.U. after   16 cycles
 SCF Done:  E(RB3LYP) =  -972.453615025     A.U. after   12 cycles
 SCF Done:  E(RB3LYP) =  -972.453531598     A.U. after   12 cycles
 SCF Done:  E(RB3LYP) =  -972.453688020     A.U. after   12 cycles
 SCF Done:  E(RB3LYP) =  -972.454063771     A.U. after   12 cycles
 SCF Done:  E(RB3LYP) =  -972.454084817     A.U. after   11 cycles
 SCF Done:  E(RB3LYP) =  -972.454088870     A.U. after    9 cycles
 SCF Done:  E(RB3LYP) =  -972.454089188     A.U. after    9 cycles
 SCF Done:  E(RB3LYP) =  -972.454089453     A.U. after    8 cycles
 Optimization completed.
    -- Stationary point found.
 Normal termination of Gaussian 16 at Thu Dec 10 09:47:56 2020.

 --------------------------------------------------------------------
 #N Geom=AllCheck Guess=TCheck SCRF=Check GenChk RB3LYP/6-31G(d) Freq
 --------------------------------------------------------------------

 Structure from the checkpoint file:  "JID_4452.chk"
 -------------------------------
 CID_131035139_JID_4452_neutraal
 -------------------------------
 Charge =  0 Multiplicity = 1

 SCF Done:  E(RB3LYP) =  -972.454089453     A.U. after    1 cycles

  Exact polarizability: 171.423  -3.834 134.564  -1.558  -1.433  90.179
 Approx polarizability: 247.091  -4.109 227.238   0.213  -3.011 136.554

                      1                      2                      3
                      A                      A                      A
 Frequencies --     44.3253                51.7947                66.0184
 Red. masses --      5.9830                 3.9236                 4.4944
 Frc consts  --      0.0069                 0.0062                 0.0115
 IR Inten    --      2.0158                 0.1551                 0.4895

                      4                      5                      6
                      A                      A                      A
 Frequencies --    144.4025               146.8716               208.8648
 Red. masses --      5.6197                 4.8801                 1.5691
 Frc consts  --      0.0690                 0.0620                 0.0403
 IR Inten    --      1.6246                 1.3179                 1.0894

                      7                      8                      9
                      A                      A                      A
 Frequencies --    214.0213               236.0334               254.3330
 Red. masses --      3.7086                 3.7705                 4.1923
 Frc consts  --      0.1001                 0.1238                 0.1598
 IR Inten    --      0.6515                 7.3621                 0.0844

                     10                     11                     12
                      A                      A                      A
 Frequencies --    270.1007               360.0821               380.6905
 Red. masses --      1.5819                 3.6631                 2.0235
 Frc consts  --      0.0680                 0.2798                 0.1728
 IR Inten    --      1.8469                 1.7928                 0.6254

                     13                     14                     15
                      A                      A                      A
 Frequencies --    430.7866               443.1693               473.8088
 Red. masses --      2.8045                 2.5114                 3.6004
 Frc consts  --      0.3066                 0.2906                 0.4762
 IR Inten    --      0.5630                12.5643                 2.8816

                     16                     17                     18
                      A                      A                      A
 Frequencies --    484.3316               564.9814               611.7995
 Red. masses --      4.6183                 4.8024                 4.7341
 Frc consts  --      0.6383                 0.9032                 1.0440
 IR Inten    --      0.2092                 1.7591                13.4400

                     19                     20                     21
                      A                      A                      A
 Frequencies --    633.6545               644.4476               697.0242
 Red. masses --      9.8709                 6.0610                 2.8878
 Frc consts  --      2.3351                 1.4831                 0.8266
 IR Inten    --      2.8144                 0.9110                21.6030

                     22                     23                     24
                      A                      A                      A
 Frequencies --    754.1209               775.9857               782.9224
 Red. masses --      2.4768                 1.5234                 2.4577
 Frc consts  --      0.8299                 0.5405                 0.8876
 IR Inten    --     13.4566                 9.9584                36.1224

                     25                     26                     27
                      A                      A                      A
 Frequencies --    810.8698               813.2568               847.7760
 Red. masses --      2.8509                 1.7850                 1.4409
 Frc consts  --      1.1044                 0.6956                 0.6102
 IR Inten    --     24.3794                39.6605                29.1229

                     28                     29                     30
                      A                      A                      A
 Frequencies --    852.6188               874.1923               893.1900
 Red. masses --      2.1826                 2.2380                 3.9870
 Frc consts  --      0.9348                 1.0077                 1.8741
 IR Inten    --     78.3523                11.7757                48.4075

                     31                     32                     33
                      A                      A                      A
 Frequencies --    926.1824               942.1457               984.4422
 Red. masses --      2.7734                 3.2874                 1.5871
 Frc consts  --      1.4017                 1.7193                 0.9062
 IR Inten    --     41.4517                 5.5618                 1.9924

                     34                     35                     36
                      A                      A                      A
 Frequencies --   1007.7685              1027.9808              1036.3940
 Red. masses --      1.7172                 1.9081                 1.6793
 Frc consts  --      1.0275                 1.1880                 1.0628
 IR Inten    --      1.6756                11.1712                 9.2770

                     37                     38                     39
                      A                      A                      A
 Frequencies --   1073.0095              1092.3499              1110.6388
 Red. masses --      2.7496                 1.8042                 1.8781
 Frc consts  --      1.8652                 1.2684                 1.3649
 IR Inten    --     16.6881                 1.5573                 7.5441

                     40                     41                     42
                      A                      A                      A
 Frequencies --   1167.5218              1187.4668              1214.9756
 Red. masses --      2.0662                 2.1470                 1.5729
 Frc consts  --      1.6594                 1.7837                 1.3680
 IR Inten    --     36.2820                16.1270                14.5448

                     43                     44                     45
                      A                      A                      A
 Frequencies --   1223.8583              1255.4397              1282.8221
 Red. masses --      1.9409                 1.4395                 2.0127
 Frc consts  --      1.7128                 1.3368                 1.9515
 IR Inten    --     54.8184                11.9958                80.0662

                     46                     47                     48
                      A                      A                      A
 Frequencies --   1310.6837              1323.8696              1344.4148
 Red. masses --      1.3852                 1.2120                 1.2471
 Frc consts  --      1.4020                 1.2516                 1.3281
 IR Inten    --      9.8193                 6.7541                 1.7329

                     49                     50                     51
                      A                      A                      A
 Frequencies --   1362.8876              1371.7095              1386.8917
 Red. masses --      3.0319                 1.4041                 1.3407
 Frc consts  --      3.3181                 1.5566                 1.5194
 IR Inten    --      7.3328                 4.6318                 0.5403

                     52                     53                     54
                      A                      A                      A
 Frequencies --   1398.6133              1407.1123              1419.8246
 Red. masses --      1.2512                 1.3606                 1.4013
 Frc consts  --      1.4420                 1.5872                 1.6644
 IR Inten    --      7.6523                 1.9287                 1.2939

                     55                     56                     57
                      A                      A                      A
 Frequencies --   1438.1138              1498.9647              1506.7964
 Red. masses --      1.2593                 7.4053                 1.1315
 Frc consts  --      1.5345                 9.8034                 1.5136
 IR Inten    --     14.0302               132.7725                 7.1935

                     58                     59                     60
                      A                      A                      A
 Frequencies --   1516.6590              1520.5900              1524.1213
 Red. masses --      1.1659                 1.1283                 3.6290
 Frc consts  --      1.5801                 1.5371                 4.9668
 IR Inten    --      2.0289                 3.0949                16.0378

                     61                     62                     63
                      A                      A                      A
 Frequencies --   1528.6728              1541.4938              1549.4232
 Red. masses --      1.2271                 1.0982                 1.0603
 Frc consts  --      1.6895                 1.5375                 1.4998
 IR Inten    --      4.2266                 5.7973                 0.3384

                     64                     65                     66
                      A                      A                      A
 Frequencies --   1761.3956              3021.7578              3045.7307
 Red. masses --     11.7424                 1.0652                 1.0846
 Frc consts  --     21.4645                 5.7304                 5.9280
 IR Inten    --    175.1775                24.2319                 9.2530

                     67                     68                     69
                      A                      A                      A
 Frequencies --   3046.9504              3056.4312              3058.2094
 Red. masses --      1.0829                 1.0523                 1.0573
 Frc consts  --      5.9235                 5.7921                 5.8263
 IR Inten    --     74.7032                31.6037                13.5780

                     70                     71                     72
                      A                      A                      A
 Frequencies --   3068.6043              3071.1213              3120.7631
 Red. masses --      1.0915                 1.0700                 1.0987
 Frc consts  --      6.0554                 5.9461                 6.3044
 IR Inten    --     72.1954                 7.9767                28.3371

                     73                     74                     75
                      A                      A                      A
 Frequencies --   3125.5492              3133.5543              3141.3070
 Red. masses --      1.0985                 1.1015                 1.0993
 Frc consts  --      6.3229                 6.3722                 6.3914
 IR Inten    --     22.8928                17.2169                24.0599

                     76                     77                     78
                      A                      A                      A
 Frequencies --   3251.0013              3299.2592              3468.8298
 Red. masses --      1.0945                 1.0943                 1.0737
 Frc consts  --      6.8156                 7.0184                 7.6122
 IR Inten    --      0.3489                 7.4634                 2.6080

 - Thermochemistry -
 -------------------
 Temperature   298.150 Kelvin.  Pressure   1.00000 Atm.
 Atom     1 has atomic number  6 and mass  12.00000

 Molecular mass:   210.08268 amu.
 Principal axes and moments of inertia in atomic units:
                           1         2         3
     Eigenvalues --  1558.691154864.031505690.06199
           X            0.99990   0.01307  -0.00501
           Y           -0.01308   0.99991  -0.00158
           Z            0.00499   0.00164   0.99999
 This molecule is an asymmetric top.
 Rotational symmetry number  1.
 Warning -- assumption of classical behavior for rotation
           may cause significant error
 Rotational temperatures (Kelvin)      0.05557     0.01781     0.01522
 Rotational constants (GHZ):           1.15786     0.37104     0.31717
 Zero-point vibrational energy     615603.0 (Joules/Mol)
                                  147.13264 (Kcal/Mol)
 Warning -- explicit consideration of  18 degrees of freedom as
           vibrations may cause significant error
 Vibrational temperatures:     63.77    74.52    94.99   207.76   211.32
          (Kelvin)            300.51   307.93   339.60   365.93   388.61
                              518.08   547.73   619.81   637.62   681.71
                              696.85   812.88   880.24   911.69   927.22
                             1002.86  1085.01  1116.47  1126.45  1166.66
                             1170.10  1219.76  1226.73  1257.77  1285.10
                             1332.57  1355.54  1416.39  1449.95  1479.04
                             1491.14  1543.82  1571.65  1597.96  1679.80
                             1708.50  1748.08  1760.86  1806.30  1845.69
                             1885.78  1904.75  1934.31  1960.89  1973.58
                             1995.43  2012.29  2024.52  2042.81  2069.12
                             2156.68  2167.94  2182.13  2187.79  2192.87
                             2199.42  2217.87  2229.27  2534.26  4347.64
                             4382.13  4383.88  4397.52  4400.08  4415.04
                             4418.66  4490.08  4496.97  4508.49  4519.64
                             4677.47  4746.90  4990.87

 Zero-point correction=                           0.234471 (Hartree/Particle)
 Thermal correction to Energy=                    0.247236
 Thermal correction to Enthalpy=                  0.248180
 Thermal correction to Gibbs Free Energy=         0.194437
 Sum of electronic and zero-point Energies=           -972.219619
 Sum of electronic and thermal Energies=              -972.206854
 Sum of electronic and thermal Enthalpies=            -972.205910
 Sum of electronic and thermal Free Energies=         -972.259653

                     E (Thermal)             CV                S
                      KCal/Mol        Cal/Mol-Kelvin    Cal/Mol-Kelvin
 Total                  155.143             49.572            113.112
 Electronic               0.000              0.000              0.000
 Translational            0.889              2.981             41.931
 Rotational               0.889              2.981             32.134
 Vibrational            153.365             43.611             39.048
 Vibration     1          0.595              1.980              5.056
 Vibration     2          0.596              1.977              4.748
 Vibration     3          0.597              1.970              4.269
 Vibration     4          0.616              1.909              2.745
 Vibration     5          0.617              1.906              2.712
 Vibration     6          0.642              1.827              2.054
 Vibration     7          0.644              1.820              2.009
 Vibration     8          0.655              1.786              1.833
 Vibration     9          0.665              1.755              1.700
 Vibration    10          0.674              1.728              1.596
 Vibration    11          0.735              1.555              1.122
 Vibration    12          0.750              1.511              1.036
 Vibration    13          0.792              1.403              0.856
 Vibration    14          0.803              1.376              0.817
 Vibration    15          0.831              1.308              0.727
 Vibration    16          0.840              1.285              0.698
 Vibration    17          0.921              1.107              0.514
 Vibration    18          0.971              1.007              0.430

                           ! Non-Optimized Parameters !
 Normal termination of Gaussian 16 at Thu Dec 10 09:57:04 2020.

 ----------------------------------------------------------------------
 # B3LYP/6-311++G(d,p) empiricaldispersion=gd3bj scf=xqc pop=npa geom=c
 heck
 ----------------------------------------------------------------------

 ---------------------------------------
 CID_131035139_JID_4452_Energie_neutraal
 ---------------------------------------
 Structure from the checkpoint file:  "JID_4452.chk"
 Charge =  0 Multiplicity = 1

 SCF Done:  E(RB3LYP) =  -972.639863686     A.U. after   16 cycles
 Normal termination of Gaussian 16 at Thu Dec 10 10:01:39 2020.

 ----------------------------------------------------------------------
 # B3LYP/6-311++G(d,p) empiricaldispersion=gd3bj scf=xqc pop=npa geom=c
 heck
 ----------------------------------------------------------------------

 -------------------------------------
 CID_131035139_JID_4452_Energie_kation
 -------------------------------------
 Structure from the checkpoint file:  "JID_4452.chk"
 Charge =  1 Multiplicity = 2

 SCF Done:  E(UB3LYP) =  -972.346134955     A.U. after   27 cycles
 Normal termination of Gaussian 16 at Thu Dec 10 10:12:53 2020.
 Gaussian 16:  ES64L-G16RevA.03 25-Dec-2016

 ----------------------------------------------------------------------
 # B3LYP/6-311++G(d,p) empiricaldispersion=gd3bj scf=xqc pop=npa geom=c
 heck
 ----------------------------------------------------------------------

 ------------------------------------
 CID_131035139_JID_4452_Energie_anion
 ------------------------------------
 Structure from the checkpoint file:  "JID_4452.chk"
 Charge = -1 Multiplicity = 2

                         Standard orientation:
 ---------------------------------------------------------------------
 Center     Atomic      Atomic             Coordinates (Angstroms)
 Number     Number       Type             X           Y           Z
 ---------------------------------------------------------------------
      1          6           0       -2.754897   -2.072167   -0.073930
      2          6           0       -3.279322   -0.632049   -0.051883
      3          6           0       -2.896255    0.117144    1.241370
      4          6           0       -1.396799    0.437662    1.294757
      5          6           0       -0.963374    1.193442    0.018397
      6          6           0       -1.414026    0.419705   -1.252942
      7          7           0       -2.838240    0.090086   -1.261203
      8          6           0        0.516811    1.517994   -0.003241
      9          8           0        0.919127    2.673202   -0.042208
     10          6           0        1.519221    0.408905    0.006028
     11          6           0        2.870976    0.651430   -0.005309
     12         16           0        3.750932   -0.828617    0.002482
     13          6           0        2.221786   -1.688939    0.019618
     14          7           0        1.169181   -0.931145    0.020080
     15          1           0       -3.177427   -2.642488    0.760918
     16          1           0       -1.664575   -2.116548    0.010978
     17          1           0       -3.041551   -2.557753   -1.011590
     18          1           0       -4.374016   -0.678332   -0.112337
     19          1           0       -3.468131    1.055293    1.285471
     20          1           0       -3.185841   -0.471013    2.121711
     21          1           0       -0.817731   -0.484940    1.388223
     22          1           0       -1.173173    1.049522    2.177020
     23          1           0       -1.461919    2.171386    0.009413
     24          1           0       -0.841198   -0.506328   -1.337608
     25          1           0       -1.197908    1.018852   -2.144400
     26          1           0       -3.371780    0.956607   -1.328171
     27          1           0        3.351152    1.618680   -0.019314
     28          1           0        2.194852   -2.772012    0.028314
 ---------------------------------------------------------------------

 SCF Done:  E(UB3LYP) =  -972.651167243     A.U. after   29 cycles

 The electronic state is 2-A.
 Alpha  occ. eigenvalues --  -88.72257 -18.91335 -14.18078 -14.17001 -10.09055
 Alpha  occ. eigenvalues --  -10.07843 -10.05824 -10.05795 -10.05330 -10.05125
 Alpha  occ. eigenvalues --  -10.03694 -10.03070 -10.03050 -10.01558  -7.80937
 Alpha  occ. eigenvalues --   -5.77199  -5.76863  -5.76606  -0.85453  -0.80947
 Alpha  occ. eigenvalues --   -0.79676  -0.66693  -0.65334  -0.64209  -0.59453
 Alpha  occ. eigenvalues --   -0.58108  -0.51096  -0.50105  -0.44579  -0.44000
 Alpha  occ. eigenvalues --   -0.43468  -0.38329  -0.37110  -0.35190  -0.33859
 Alpha  occ. eigenvalues --   -0.31655  -0.31221  -0.29732  -0.29274  -0.27472
 Alpha  occ. eigenvalues --   -0.26664  -0.26033  -0.25384  -0.25130  -0.24340
 Alpha  occ. eigenvalues --   -0.23127  -0.22198  -0.21410  -0.21148  -0.19414
 Alpha  occ. eigenvalues --   -0.18777  -0.14072  -0.13329  -0.11048  -0.09692
 Alpha  occ. eigenvalues --   -0.07409   0.05229
 Alpha virt. eigenvalues --    0.07213   0.09080   0.09734   0.10004   0.11038
 Alpha virt. eigenvalues --    0.11696   0.11941   0.12126   0.12321   0.13307
 Alpha virt. eigenvalues --    0.13817   0.13945   0.14950   0.15484   0.15571

  Beta  occ. eigenvalues --  -88.72189 -18.90890 -14.18064 -14.17056 -10.09056
  Beta  occ. eigenvalues --  -10.07772 -10.05760 -10.05466 -10.05318 -10.05124
  Beta  occ. eigenvalues --  -10.03662 -10.03100 -10.03046 -10.00920  -7.80875
  Beta  occ. eigenvalues --   -5.77170  -5.76838  -5.76372  -0.84629  -0.80850
  Beta  occ. eigenvalues --   -0.79642  -0.66639  -0.65189  -0.63725  -0.59103
  Beta  occ. eigenvalues --   -0.57883  -0.50966  -0.49933  -0.44024  -0.43461
  Beta  occ. eigenvalues --   -0.43314  -0.38302  -0.36779  -0.35163  -0.33686
  Beta  occ. eigenvalues --   -0.31529  -0.30986  -0.29533  -0.29231  -0.27157
  Beta  occ. eigenvalues --   -0.26454  -0.25676  -0.25143  -0.24906  -0.23983
  Beta  occ. eigenvalues --   -0.22893  -0.22134  -0.21105  -0.20520  -0.18831
  Beta  occ. eigenvalues --   -0.17737  -0.13299  -0.12911  -0.10919  -0.07533
  Beta  occ. eigenvalues --   -0.07030
  Beta virt. eigenvalues --    0.07167   0.09035   0.09680   0.09959   0.10999
  Beta virt. eigenvalues --    0.11668   0.11938   0.12166   0.12292   0.13064
  Beta virt. eigenvalues --    0.13671   0.13846   0.13972   0.14923   0.15444

 Mulliken charges and spin densities:
               1          2
     1  C   -0.606003  -0.008580
     2  C   -0.029680   0.004491
     3  C   -0.425939  -0.009813
     4  C   -0.250436   0.023936
     5  C    0.533070  -0.050679
     6  C   -0.573534   0.028474
     7  N   -0.049734   0.002943
     8  C   -1.197448   0.247029
     9  O   -0.409043   0.164008
    10  C   -0.729335  -0.036689
    11  C    0.632909   0.511813
    12  S   -0.539742   0.114079
    13  C    0.225473   0.045309
    14  N    0.107301  -0.027083
    15  H    0.095403   0.005163
    16  H    0.167987   0.000237
    17  H    0.138111  -0.000458
    18  H    0.168464   0.005528
    19  H    0.108817   0.001232
    20  H    0.123604   0.015888
    21  H    0.124651  -0.001341
    22  H    0.165416  -0.000201
    23  H    0.180342  -0.002078
    24  H    0.159775   0.003905
    25  H    0.163110  -0.003389
    26  H    0.218511   0.000027
    27  H    0.280144  -0.031843
    28  H    0.217804  -0.001906
 Sum of Mulliken charges =  -1.00000   1.00000

 Dipole moment (field-independent basis, Debye):
    X=             -5.3114    Y=             -3.6942    Z=              0.9034  Tot=              6.5326
 Quadrupole moment (field-independent basis, Debye-Ang):
   XX=           -125.4468   YY=           -115.2418   ZZ=           -103.7227
   XY=             -6.3617   XZ=             -2.8482   YZ=             -1.4861

 Summary of Natural Population Analysis:

                                       Natural Population
                Natural  -----------------------------------------------
    Atom  No    Charge         Core      Valence    Rydberg      Total
 -----------------------------------------------------------------------
      C    1   -0.29548      0.99965     2.29026    0.00557     3.29548
      C    2   -0.00830      0.99961     1.99810    0.01059     3.00830
      C    3   -0.19336      0.99962     2.18677    0.00697     3.19336
      C    4   -0.19001      0.99961     2.18291    0.00749     3.19001
      C    5   -0.15051      0.99957     2.14027    0.01067     3.15051
      C    6   -0.08697      0.99961     2.07722    0.01015     3.08697
      N    7   -0.34489      0.99975     2.83006    0.01509     3.84489
      C    8    0.31522      0.99958     1.66323    0.02198     2.68478
      O    9   -0.26921      0.99988     3.26266    0.00667     4.26921
      C   10   -0.00051      0.99943     1.98589    0.01519     3.00051
      C   11   -0.05265      0.99950     2.04261    0.01054     3.05265
      S   12    0.17913      4.99947     2.79852    0.02288     7.82087
      C   13   -0.06859      0.99967     2.05095    0.01797     3.06859
      N   14   -0.25524      0.99967     2.74502    0.01055     3.75524
      H   15    0.09240      0.00000     0.40678    0.00082     0.40760
      H   16    0.10920      0.00000     0.38965    0.00115     0.39080
      H   17    0.09915      0.00000     0.39987    0.00098     0.40085
      H   18    0.08412      0.00000     0.41425    0.00163     0.41588
      H   19    0.08932      0.00000     0.40936    0.00132     0.41068
      H   20    0.09229      0.00000     0.40653    0.00119     0.40771
      H   21    0.10906      0.00000     0.38965    0.00129     0.39094
      H   22    0.09592      0.00000     0.40289    0.00119     0.40408
      H   23    0.09305      0.00000     0.40440    0.00255     0.40695
      H   24    0.10403      0.00000     0.39473    0.00124     0.39597
      H   25    0.09314      0.00000     0.40587    0.00098     0.40686
      H   26    0.16574      0.00000     0.33224    0.00202     0.33426
      H   27    0.10795      0.00000     0.39091    0.00114     0.39205
      H   28    0.08601      0.00000     0.41271    0.00128     0.41399
 =======================================================================
   * Total *   -0.00000     17.99461    37.81430    0.19109    56.00000

 Normal termination of Gaussian 16 at Thu Dec 10 10:24:44 2020.
