 Gaussian 16, Revision A.03,

 -----------------------------------------------------------
 # opt freq B3LYP/6-31G(d) empiricaldispersion=gd3bj scf=xqc
 -----------------------------------------------------------

 ------------------------------
 CID_20098827_JID_2614_neutraal
 ------------------------------
 Symbolic Z-matrix:
 Charge =  0 Multiplicity = 1

 SCF Done:  E(RB3LYP) =  -914.887255765     A.U. after   15 cycles
 SCF Done:  E(RB3LYP) =  -914.891039904     A.U. after   12 cycles
 SCF Done:  E(RB3LYP) =  -914.891422099     A.U. after   12 cycles
 SCF Done:  E(RB3LYP) =  -914.891537187     A.U. after   11 cycles
 SCF Done:  E(RB3LYP) =  -914.891635923     A.U. after   11 cycles
 SCF Done:  E(RB3LYP) =  -914.891715721     A.U. after   10 cycles
 SCF Done:  E(RB3LYP) =  -914.891754294     A.U. after   11 cycles
 SCF Done:  E(RB3LYP) =  -914.891774491     A.U. after   11 cycles
 SCF Done:  E(RB3LYP) =  -914.891798980     A.U. after   11 cycles
 SCF Done:  E(RB3LYP) =  -914.891806300     A.U. after   11 cycles
 SCF Done:  E(RB3LYP) =  -914.891807285     A.U. after    9 cycles
 SCF Done:  E(RB3LYP) =  -914.891807424     A.U. after    8 cycles
 Optimization completed.
    -- Stationary point found.
 Normal termination of Gaussian 16 at Wed Dec  9 17:41:15 2020.

 --------------------------------------------------------------------
 #N Geom=AllCheck Guess=TCheck SCRF=Check GenChk RB3LYP/6-31G(d) Freq
 --------------------------------------------------------------------

 Structure from the checkpoint file:  "JID_2614.chk"
 ------------------------------
 CID_20098827_JID_2614_neutraal
 ------------------------------
 Charge =  0 Multiplicity = 1

 SCF Done:  E(RB3LYP) =  -914.891807424     A.U. after    1 cycles

  Exact polarizability: 163.338   2.213 111.316  -3.993   7.695  71.404
 Approx polarizability: 219.976  11.199 204.113  -8.592  24.452 110.141

                      1                      2                      3
                      A                      A                      A
 Frequencies --     29.7452                56.7992                78.8786
 Red. masses --      3.6378                 4.1075                 4.3269
 Frc consts  --      0.0019                 0.0078                 0.0159
 IR Inten    --      1.1556                 0.4375                 0.2262

                      4                      5                      6
                      A                      A                      A
 Frequencies --     98.5452               124.1257               136.9432
 Red. masses --      3.0406                 2.0441                 2.6803
 Frc consts  --      0.0174                 0.0186                 0.0296
 IR Inten    --      0.2686                 2.1245                 2.7158

                      7                      8                      9
                      A                      A                      A
 Frequencies --    142.1835               199.8294               252.8520
 Red. masses --      1.5784                 3.5184                 1.6653
 Frc consts  --      0.0188                 0.0828                 0.0627
 IR Inten    --      0.9959                 1.3205                 2.5008

                     10                     11                     12
                      A                      A                      A
 Frequencies --    267.0010               299.8176               332.1469
 Red. masses --      2.9088                 6.7313                 3.9035
 Frc consts  --      0.1222                 0.3565                 0.2537
 IR Inten    --      0.3066                 9.3814                18.8034

                     13                     14                     15
                      A                      A                      A
 Frequencies --    364.4971               426.2592               467.5360
 Red. masses --      3.0884                 3.2542                 6.4857
 Frc consts  --      0.2418                 0.3484                 0.8353
 IR Inten    --      2.9531                 2.4444                 5.1853

                     16                     17                     18
                      A                      A                      A
 Frequencies --    527.4714               583.9769               660.7982
 Red. masses --      4.2922                 3.7013                 4.8613
 Frc consts  --      0.7036                 0.7437                 1.2507
 IR Inten    --      4.9734                 0.7650                 9.2000

                     19                     20                     21
                      A                      A                      A
 Frequencies --    698.9431               750.1467               754.3086
 Red. masses --      4.0374                 6.5804                 3.5523
 Frc consts  --      1.1621                 2.1817                 1.1908
 IR Inten    --     10.0578                31.5792                27.9575

                     22                     23                     24
                      A                      A                      A
 Frequencies --    783.5915               808.8336               830.7464
 Red. masses --      2.1107                 5.1412                 1.3895
 Frc consts  --      0.7636                 1.9817                 0.5650
 IR Inten    --    144.9925                13.3897                17.5224

                     25                     26                     27
                      A                      A                      A
 Frequencies --    915.0785               925.9586               963.3257
 Red. masses --      1.4266                 2.2348                 5.1184
 Frc consts  --      0.7038                 1.1290                 2.7985
 IR Inten    --      0.0503                 0.5505                22.9493

                     28                     29                     30
                      A                      A                      A
 Frequencies --    985.9293              1067.1889              1124.2249
 Red. masses --      1.6632                 1.5851                 2.1413
 Frc consts  --      0.9525                 1.0636                 1.5945
 IR Inten    --     13.7484                18.7553                13.1938

                     31                     32                     33
                      A                      A                      A
 Frequencies --   1136.8216              1149.5467              1173.4659
 Red. masses --      3.7823                 2.8488                 1.6629
 Frc consts  --      2.8800                 2.2180                 1.3491
 IR Inten    --    215.6645                30.9538                 9.8809

                     34                     35                     36
                      A                      A                      A
 Frequencies --   1185.7727              1201.6282              1221.3916
 Red. masses --      1.2706                 2.2032                 1.5532
 Frc consts  --      1.0526                 1.8743                 1.3652
 IR Inten    --      0.7448                21.9857                44.0363

                     37                     38                     39
                      A                      A                      A
 Frequencies --   1257.4552              1320.1869              1333.8401
 Red. masses --      1.5202                 2.7933                 2.2074
 Frc consts  --      1.4162                 2.8684                 2.3138
 IR Inten    --      3.9327               336.5826               224.1882

                     40                     41                     42
                      A                      A                      A
 Frequencies --   1379.0310              1393.4702              1480.4641
 Red. masses --      1.2891                 2.1529                 1.1578
 Frc consts  --      1.4443                 2.4631                 1.4952
 IR Inten    --     16.5556                 0.6401                 0.2483

                     43                     44                     45
                      A                      A                      A
 Frequencies --   1491.1141              1498.3661              1508.8216
 Red. masses --      1.3391                 1.0900                 3.9654
 Frc consts  --      1.7542                 1.4418                 5.3188
 IR Inten    --      3.8644                 2.8391               137.0135

                     46                     47                     48
                      A                      A                      A
 Frequencies --   1511.8370              1513.8429              1520.7519
 Red. masses --      1.0481                 1.2074                 1.0644
 Frc consts  --      1.4114                 1.6303                 1.4504
 IR Inten    --      5.6561                 7.8562                 9.9366

                     49                     50                     51
                      A                      A                      A
 Frequencies --   1526.3104              1551.7608              1594.0793
 Red. masses --      1.0744                 1.0479                 5.3313
 Frc consts  --      1.4747                 1.4867                 7.9819
 IR Inten    --      3.1137                12.5109                18.9224

                     52                     53                     54
                      A                      A                      A
 Frequencies --   1792.1403              2995.9325              3054.4429
 Red. masses --     11.7528                 1.0520                 1.0594
 Frc consts  --     22.2401                 5.5632                 5.8236
 IR Inten    --    262.1344                45.7130                34.5219

                     55                     56                     57
                      A                      A                      A
 Frequencies --   3074.9444              3078.7505              3098.5931
 Red. masses --      1.0296                 1.0825                 1.1059
 Frc consts  --      5.7355                 6.0453                 6.2557
 IR Inten    --     42.3610                45.7386                14.9480

                     58                     59                     60
                      A                      A                      A
 Frequencies --   3121.9687              3148.8951              3181.9237
 Red. masses --      1.1023                 1.1075                 1.1070
 Frc consts  --      6.3300                 6.4699                 6.6038
 IR Inten    --     30.7187                21.4249                18.2236

                     61                     62                     63
                      A                      A                      A
 Frequencies --   3210.4232              3247.4720              3495.3811
 Red. masses --      1.0915                 1.0951                 1.0740
 Frc consts  --      6.6281                 6.8042                 7.7310
 IR Inten    --      9.5599                 1.4030                 0.3619

 - Thermochemistry -
 -------------------
 Temperature   298.150 Kelvin.  Pressure   1.00000 Atm.
 Atom     1 has atomic number  6 and mass  12.00000

 Molecular mass:   185.05105 amu.
 Principal axes and moments of inertia in atomic units:
                           1         2         3
     Eigenvalues --   825.693004596.967115068.39188
           X            0.99997  -0.00832   0.00070
           Y            0.00833   0.99963  -0.02589
           Z           -0.00049   0.02589   0.99966
 This molecule is an asymmetric top.
 Rotational symmetry number  1.
 Warning -- assumption of classical behavior for rotation
           may cause significant error
 Rotational temperatures (Kelvin)      0.10490     0.01884     0.01709
 Rotational constants (GHZ):           2.18573     0.39259     0.35608
 Zero-point vibrational energy     485136.6 (Joules/Mol)
                                  115.95043 (Kcal/Mol)
 Warning -- explicit consideration of  17 degrees of freedom as
           vibrations may cause significant error
 Vibrational temperatures:     42.80    81.72   113.49   141.78   178.59
          (Kelvin)            197.03   204.57   287.51   363.80   384.15
                              431.37   477.89   524.43   613.29   672.68
                              758.91   840.21   950.74  1005.62  1079.29
                             1085.28  1127.41  1163.73  1195.26  1316.59
                             1332.25  1386.01  1418.53  1535.45  1617.51
                             1635.63  1653.94  1688.36  1706.06  1728.88
                             1757.31  1809.20  1899.45  1919.10  1984.12
                             2004.89  2130.06  2145.38  2155.81  2170.86
                             2175.20  2178.08  2188.02  2196.02  2232.64
                             2293.52  2578.49  4310.48  4394.66  4424.16
                             4429.64  4458.18  4491.82  4530.56  4578.08
                             4619.08  4672.39  5029.07

 Zero-point correction=                           0.184779 (Hartree/Particle)
 Thermal correction to Energy=                    0.197495
 Thermal correction to Enthalpy=                  0.198439
 Thermal correction to Gibbs Free Energy=         0.144209
 Sum of electronic and zero-point Energies=           -914.707029
 Sum of electronic and thermal Energies=              -914.694313
 Sum of electronic and thermal Enthalpies=            -914.693368
 Sum of electronic and thermal Free Energies=         -914.747598

                     E (Thermal)             CV                S
                      KCal/Mol        Cal/Mol-Kelvin    Cal/Mol-Kelvin
 Total                  123.930             44.903            114.137
 Electronic               0.000              0.000              0.000
 Translational            0.889              2.981             41.553
 Rotational               0.889              2.981             31.332
 Vibrational            122.152             38.942             41.253
 Vibration     1          0.594              1.984              5.846
 Vibration     2          0.596              1.975              4.565
 Vibration     3          0.600              1.963              3.919
 Vibration     4          0.604              1.950              3.483
 Vibration     5          0.610              1.929              3.035
 Vibration     6          0.614              1.916              2.846
 Vibration     7          0.616              1.911              2.774
 Vibration     8          0.638              1.840              2.135
 Vibration     9          0.664              1.758              1.711
 Vibration    10          0.672              1.734              1.616
 Vibration    11          0.692              1.674              1.418
 Vibration    12          0.714              1.611              1.250
 Vibration    13          0.738              1.545              1.103
 Vibration    14          0.788              1.413              0.871
 Vibration    15          0.825              1.322              0.744
 Vibration    16          0.882              1.189              0.593
 Vibration    17          0.941              1.066              0.478

                           ! Non-Optimized Parameters !
 Normal termination of Gaussian 16 at Wed Dec  9 17:46:09 2020.

 ----------------------------------------------------------------------
 # B3LYP/6-311++G(d,p) empiricaldispersion=gd3bj scf=xqc pop=npa geom=c
 heck
 ----------------------------------------------------------------------

 --------------------------------------
 CID_20098827_JID_2614_Energie_neutraal
 --------------------------------------
 Structure from the checkpoint file:  "JID_2614.chk"
 Charge =  0 Multiplicity = 1

 SCF Done:  E(RB3LYP) =  -915.069584706     A.U. after   15 cycles
 Normal termination of Gaussian 16 at Wed Dec  9 17:48:18 2020.

 ----------------------------------------------------------------------
 # B3LYP/6-311++G(d,p) empiricaldispersion=gd3bj scf=xqc pop=npa geom=c
 heck
 ----------------------------------------------------------------------

 ------------------------------------
 CID_20098827_JID_2614_Energie_kation
 ------------------------------------
 Structure from the checkpoint file:  "JID_2614.chk"
 Charge =  1 Multiplicity = 2

 SCF Done:  E(UB3LYP) =  -914.766538794     A.U. after   25 cycles
 Normal termination of Gaussian 16 at Wed Dec  9 17:52:26 2020.
 Gaussian 16:  ES64L-G16RevA.03 25-Dec-2016

 ----------------------------------------------------------------------
 # B3LYP/6-311++G(d,p) empiricaldispersion=gd3bj scf=xqc pop=npa geom=c
 heck
 ----------------------------------------------------------------------

 -----------------------------------
 CID_20098827_JID_2614_Energie_anion
 -----------------------------------
 Structure from the checkpoint file:  "JID_2614.chk"
 Charge = -1 Multiplicity = 2

                         Standard orientation:
 ---------------------------------------------------------------------
 Center     Atomic      Atomic             Coordinates (Angstroms)
 Number     Number       Type             X           Y           Z
 ---------------------------------------------------------------------
      1          6           0        3.591006   -1.332925    0.889398
      2          7           0        3.806533    0.061006    0.513305
      3          6           0        3.022795    0.516625   -0.637665
      4          6           0        1.533774    0.638478   -0.416477
      5          6           0        0.853195    1.759496    0.008568
      6          6           0       -0.535986    1.540498    0.189408
      7          6           0       -0.911140    0.247943   -0.100641
      8         16           0        0.453836   -0.712687   -0.600777
      9          6           0       -2.236218   -0.373617   -0.046126
     10          8           0       -2.467491   -1.536185   -0.321859
     11          8           0       -3.184593    0.507544    0.351632
     12          6           0       -4.512401   -0.031108    0.427507
     13          1           0        3.873920   -1.975423    0.047232
     14          1           0        2.556749   -1.587302    1.173786
     15          1           0        4.247640   -1.577809    1.730288
     16          1           0        3.601255    0.663220    1.308515
     17          1           0        3.398204    1.504525   -0.929042
     18          1           0        3.233504   -0.163189   -1.471346
     19          1           0        1.343380    2.713365    0.176005
     20          1           0       -1.244900    2.293103    0.512295
     21          1           0       -4.835857   -0.394749   -0.551409
     22          1           0       -4.551581   -0.857339    1.142287
     23          1           0       -5.142888    0.794346    0.758666
 ---------------------------------------------------------------------

 SCF Done:  E(UB3LYP) =  -915.074232903     A.U. after   28 cycles

 The electronic state is 2-A.
 Alpha  occ. eigenvalues --  -88.70445 -19.01454 -18.93392 -14.17763 -10.12038
 Alpha  occ. eigenvalues --  -10.10247 -10.07198 -10.07072 -10.03050 -10.02542
 Alpha  occ. eigenvalues --  -10.01934 -10.00984  -7.79119  -5.75409  -5.75055
 Alpha  occ. eigenvalues --   -5.74739  -0.95095  -0.85553  -0.78364  -0.71860
 Alpha  occ. eigenvalues --   -0.62126  -0.59681  -0.57654  -0.55342  -0.50714
 Alpha  occ. eigenvalues --   -0.45589  -0.40743  -0.39153  -0.36671  -0.36368
 Alpha  occ. eigenvalues --   -0.34805  -0.32889  -0.32532  -0.30643  -0.29582
 Alpha  occ. eigenvalues --   -0.26845  -0.26433  -0.25842  -0.25603  -0.24103
 Alpha  occ. eigenvalues --   -0.21776  -0.21474  -0.21008  -0.18378  -0.16320
 Alpha  occ. eigenvalues --   -0.12074  -0.11345  -0.10144  -0.08391   0.05421
 Alpha virt. eigenvalues --    0.08356   0.08528   0.09797   0.10357   0.11287
 Alpha virt. eigenvalues --    0.12013   0.12687   0.12983   0.13355   0.13902
 Alpha virt. eigenvalues --    0.14394   0.15919   0.16408   0.16724   0.17323

  Beta  occ. eigenvalues --  -88.70377 -19.01374 -18.93087 -14.17698 -10.11781
  Beta  occ. eigenvalues --  -10.10251 -10.07222 -10.07070 -10.02623 -10.02352
  Beta  occ. eigenvalues --  -10.02032 -10.00758  -7.79057  -5.75381  -5.75028
  Beta  occ. eigenvalues --   -5.74509  -0.94809  -0.85074  -0.78217  -0.71468
  Beta  occ. eigenvalues --   -0.61709  -0.59548  -0.57316  -0.55062  -0.50540
  Beta  occ. eigenvalues --   -0.45076  -0.40525  -0.38843  -0.36475  -0.36205
  Beta  occ. eigenvalues --   -0.34454  -0.32718  -0.32362  -0.30326  -0.29486
  Beta  occ. eigenvalues --   -0.26682  -0.25752  -0.25610  -0.25065  -0.23918
  Beta  occ. eigenvalues --   -0.21594  -0.21304  -0.20050  -0.18033  -0.15231
  Beta  occ. eigenvalues --   -0.11767  -0.11029  -0.08997  -0.06588
  Beta virt. eigenvalues --    0.08256   0.08481   0.09649   0.10280   0.11148
  Beta virt. eigenvalues --    0.11620   0.12084   0.12676   0.13066   0.13264
  Beta virt. eigenvalues --    0.13916   0.14316   0.15923   0.16573   0.17187

 Mulliken charges and spin densities:
               1          2
     1  C   -0.377115  -0.026368
     2  N   -0.035512   0.001349
     3  C   -0.414074  -0.581146
     4  C   -0.091173   0.614624
     5  C    0.107242  -0.131447
     6  C   -0.019298   0.225945
     7  C    0.309443   0.038628
     8  S   -0.586978   0.164690
     9  C   -0.230528   0.146274
    10  O   -0.383109   0.103979
    11  O   -0.135585   0.014978
    12  C   -0.224188  -0.005261
    13  H    0.119535   0.013181
    14  H    0.130502  -0.018528
    15  H    0.070292   0.031535
    16  H    0.170491   0.033319
    17  H    0.033408   0.122241
    18  H   -0.037029   0.188709
    19  H    0.038098   0.068261
    20  H    0.133698  -0.010132
    21  H    0.155170   0.001756
    22  H    0.152473   0.003771
    23  H    0.114236  -0.000357
 Sum of Mulliken charges =  -1.00000   1.00000

 Dipole moment (field-independent basis, Debye):
    X=             -0.6648    Y=              1.1596    Z=              1.9141  Tot=              2.3346
 Quadrupole moment (field-independent basis, Debye-Ang):
   XX=           -115.5223   YY=            -96.0523   ZZ=            -88.0322
   XY=             -6.8511   XZ=              0.0468   YZ=             -0.9734

 Summary of Natural Population Analysis:

                                       Natural Population
                Natural  -----------------------------------------------
    Atom  No    Charge         Core      Valence    Rydberg      Total
 -----------------------------------------------------------------------
      C    1   -0.18288      0.99966     2.17576    0.00745     3.18288
      N    2   -0.33449      0.99976     2.82108    0.01365     3.83449
      C    3   -0.10753      0.99957     2.09219    0.01577     3.10753
      C    4   -0.03909      0.99950     2.02671    0.01287     3.03909
      C    5   -0.16956      0.99948     2.15761    0.01247     3.16956
      C    6   -0.06710      0.99950     2.05853    0.00906     3.06710
      C    7   -0.12648      0.99944     2.11532    0.01172     3.12648
      S    8    0.23057      4.99938     2.74865    0.02139     7.76943
      C    9    0.41463      0.99958     1.56237    0.02342     2.58537
      O   10   -0.30217      0.99988     3.29649    0.00581     4.30217
      O   11   -0.28049      0.99986     3.27204    0.00859     4.28049
      C   12   -0.10509      0.99962     2.09665    0.00883     3.10509
      H   13    0.08758      0.00000     0.41125    0.00117     0.41242
      H   14    0.08858      0.00000     0.40945    0.00197     0.41142
      H   15    0.08599      0.00000     0.41302    0.00099     0.41401
      H   16    0.16905      0.00000     0.32863    0.00232     0.33095
      H   17    0.09697      0.00000     0.40176    0.00127     0.40303
      H   18    0.09456      0.00000     0.40417    0.00127     0.40544
      H   19    0.09448      0.00000     0.40431    0.00121     0.40552
      H   20    0.10007      0.00000     0.39895    0.00097     0.39993
      H   21    0.08598      0.00000     0.41268    0.00134     0.41402
      H   22    0.08598      0.00000     0.41267    0.00135     0.41402
      H   23    0.08043      0.00000     0.41867    0.00090     0.41957
 =======================================================================
   * Total *   -0.00000     15.99523    32.83897    0.16580    49.00000

 Normal termination of Gaussian 16 at Wed Dec  9 17:57:02 2020.
