 Gaussian 16, Revision A.03,

 -----------------------------------------------------------
 # opt freq B3LYP/6-31G(d) empiricaldispersion=gd3bj scf=xqc
 -----------------------------------------------------------

 -------------------------------
 CID_70988814_JID_10952_neutraal
 -------------------------------
 Symbolic Z-matrix:
 Charge =  0 Multiplicity = 1

 SCF Done:  E(RB3LYP) =  -876.742173578     A.U. after   16 cycles
 SCF Done:  E(RB3LYP) =  -876.747929245     A.U. after   13 cycles
 SCF Done:  E(RB3LYP) =  -876.747494644     A.U. after   13 cycles
 SCF Done:  E(RB3LYP) =  -876.748857384     A.U. after   12 cycles
 SCF Done:  E(RB3LYP) =  -876.749150710     A.U. after   12 cycles
 SCF Done:  E(RB3LYP) =  -876.749257686     A.U. after   11 cycles
 SCF Done:  E(RB3LYP) =  -876.749295535     A.U. after   11 cycles
 SCF Done:  E(RB3LYP) =  -876.749326508     A.U. after   12 cycles
 SCF Done:  E(RB3LYP) =  -876.749346038     A.U. after   10 cycles
 SCF Done:  E(RB3LYP) =  -876.749380981     A.U. after   11 cycles
 SCF Done:  E(RB3LYP) =  -876.749392969     A.U. after   11 cycles
 SCF Done:  E(RB3LYP) =  -876.749403143     A.U. after   11 cycles
 SCF Done:  E(RB3LYP) =  -876.749406318     A.U. after   11 cycles
 SCF Done:  E(RB3LYP) =  -876.749407697     A.U. after   10 cycles
 SCF Done:  E(RB3LYP) =  -876.749407737     A.U. after   10 cycles
 SCF Done:  E(RB3LYP) =  -876.749408402     A.U. after    9 cycles
 Optimization completed.
    -- Stationary point found.
 Normal termination of Gaussian 16 at Sun Dec 13 13:34:19 2020.

 --------------------------------------------------------------------
 #N Geom=AllCheck Guess=TCheck SCRF=Check GenChk RB3LYP/6-31G(d) Freq
 --------------------------------------------------------------------

 Structure from the checkpoint file:  "JID_10952.chk"
 -------------------------------
 CID_70988814_JID_10952_neutraal
 -------------------------------
 Charge =  0 Multiplicity = 1

 SCF Done:  E(RB3LYP) =  -876.749408402     A.U. after    1 cycles

  Exact polarizability: 299.249   1.038 166.240  -1.984  -7.705 108.908
 Approx polarizability: 376.767  -5.270 307.193   0.389 -16.683 170.038

                      1                      2                      3
                      A                      A                      A
 Frequencies --     20.8023                25.0738                49.3158
 Red. masses --      3.7255                 5.7566                 5.5806
 Frc consts  --      0.0009                 0.0021                 0.0080
 IR Inten    --      1.7279                 0.8000                 0.1447

                      4                      5                      6
                      A                      A                      A
 Frequencies --     55.7384                69.8137                99.4539
 Red. masses --      3.9399                 4.8771                 4.1183
 Frc consts  --      0.0072                 0.0140                 0.0240
 IR Inten    --      1.6191                 0.0829                 2.1288

                      7                      8                      9
                      A                      A                      A
 Frequencies --    143.3040               175.0337               180.2046
 Red. masses --      3.6840                 1.4608                 3.1995
 Frc consts  --      0.0446                 0.0264                 0.0612
 IR Inten    --      2.3200                 0.1802                 0.7080

                     10                     11                     12
                      A                      A                      A
 Frequencies --    199.1226               214.0524               238.3391
 Red. masses --      4.3871                 2.7136                 1.1615
 Frc consts  --      0.1025                 0.0733                 0.0389
 IR Inten    --      0.7881                 0.1071                 0.1999

                     13                     14                     15
                      A                      A                      A
 Frequencies --    269.0059               283.4826               289.7563
 Red. masses --      1.7635                 1.8772                 2.6154
 Frc consts  --      0.0752                 0.0889                 0.1294
 IR Inten    --      2.7985                 0.1169                 1.7464

                     16                     17                     18
                      A                      A                      A
 Frequencies --    325.4217               331.5081               335.0620
 Red. masses --      2.9483                 1.0517                 2.9683
 Frc consts  --      0.1840                 0.0681                 0.1963
 IR Inten    --      2.4372                 0.0602                 0.7624

                     19                     20                     21
                      A                      A                      A
 Frequencies --    364.1251               382.7746               388.1948
 Red. masses --      2.7461                 3.4269                 4.0299
 Frc consts  --      0.2145                 0.2958                 0.3578
 IR Inten    --      2.7081                 8.9057                 3.7737

                     22                     23                     24
                      A                      A                      A
 Frequencies --    421.8661               428.5646               450.2930
 Red. masses --      3.3827                 4.9574                 3.2818
 Frc consts  --      0.3547                 0.5365                 0.3921
 IR Inten    --      1.8042                16.9365                 4.3190

                     25                     26                     27
                      A                      A                      A
 Frequencies --    471.8961               477.6418               506.4532
 Red. masses --      3.8439                 3.8262                 4.0562
 Frc consts  --      0.5043                 0.5143                 0.6130
 IR Inten    --      0.4691                 4.7698                 0.9408

                     28                     29                     30
                      A                      A                      A
 Frequencies --    576.9638               589.5756               629.0471
 Red. masses --      3.7270                 2.8293                 9.2888
 Frc consts  --      0.7310                 0.5794                 2.1656
 IR Inten    --      3.8075                 1.9860                 1.4870

                     31                     32                     33
                      A                      A                      A
 Frequencies --    660.4394               666.7840               709.3521
 Red. masses --      5.4916                 8.0714                 6.3739
 Frc consts  --      1.4113                 2.1143                 1.8896
 IR Inten    --      7.7928                 5.4528                24.3521

                     34                     35                     36
                      A                      A                      A
 Frequencies --    732.5780               781.7081               784.6836
 Red. masses --      7.2657                 4.6667                 5.8896
 Frc consts  --      2.2974                 1.6802                 2.1366
 IR Inten    --      4.6396                 1.3274                 4.6643

                     37                     38                     39
                      A                      A                      A
 Frequencies --    791.5578               850.3342               872.0098
 Red. masses --      2.8053                 3.0162                 1.4923
 Frc consts  --      1.0356                 1.2850                 0.6686
 IR Inten    --      7.1839                 2.3670                25.9229

                     40                     41                     42
                      A                      A                      A
 Frequencies --    875.6120               884.7363               940.8754
 Red. masses --      2.1672                 2.6309                 1.7780
 Frc consts  --      0.9790                 1.2133                 0.9274
 IR Inten    --      8.0942                 2.4071                 0.5264

                     43                     44                     45
                      A                      A                      A
 Frequencies --    953.3368               957.6177               968.9236
 Red. masses --      1.7027                 1.3813                 1.3731
 Frc consts  --      0.9117                 0.7463                 0.7595
 IR Inten    --      0.8949                 1.9273                 0.8443

                     46                     47                     48
                      A                      A                      A
 Frequencies --    976.2732               988.3630               999.4605
 Red. masses --      1.2044                 1.4967                 1.3026
 Frc consts  --      0.6764                 0.8614                 0.7667
 IR Inten    --      0.2716                 0.1283                 0.0512

                     49                     50                     51
                      A                      A                      A
 Frequencies --   1038.1934              1041.0697              1057.4653
 Red. masses --      4.4726                 4.2870                 1.4067
 Frc consts  --      2.8403                 2.7375                 0.9268
 IR Inten    --     57.7530                16.4711                 1.3169

                     52                     53                     54
                      A                      A                      A
 Frequencies --   1065.3044              1069.9871              1102.6178
 Red. masses --      1.3927                 3.3327                 2.0980
 Frc consts  --      0.9312                 2.2480                 1.5028
 IR Inten    --      0.0140                88.5697               125.9157

                     55                     56                     57
                      A                      A                      A
 Frequencies --   1141.1885              1158.5014              1167.0058
 Red. masses --      2.3690                 1.6131                 1.7792
 Frc consts  --      1.8177                 1.2756                 1.4276
 IR Inten    --     31.3973                 1.0462                36.3800

                     58                     59                     60
                      A                      A                      A
 Frequencies --   1186.0252              1208.2941              1237.3604
 Red. masses --      1.6049                 1.7695                 2.3819
 Frc consts  --      1.3301                 1.5221                 2.1487
 IR Inten    --      4.6030                 8.2473                 3.6900

                     61                     62                     63
                      A                      A                      A
 Frequencies --   1243.9675              1249.9816              1254.4411
 Red. masses --      2.7088                 3.1426                 8.5053
 Frc consts  --      2.4697                 2.8930                 7.8857
 IR Inten    --      3.4404                 3.1916                 8.5755

                     64                     65                     66
                      A                      A                      A
 Frequencies --   1297.8809              1313.1306              1328.3098
 Red. masses --      4.2412                 2.6787                 1.4816
 Frc consts  --      4.2093                 2.7214                 1.5402
 IR Inten    --     57.2764                14.2233                 2.5141

                     67                     68                     69
                      A                      A                      A
 Frequencies --   1341.6217              1352.6723              1406.8692
 Red. masses --      6.7586                 1.6354                 2.2798
 Frc consts  --      7.1675                 1.7630                 2.6586
 IR Inten    --     31.9915               103.6988               409.5861

                     70                     71                     72
                      A                      A                      A
 Frequencies --   1425.8911              1427.7890              1440.7704
 Red. masses --      1.4833                 1.2122                 2.1446
 Frc consts  --      1.7769                 1.4560                 2.6230
 IR Inten    --     20.5942                 4.2552                28.7007

                     73                     74                     75
                      A                      A                      A
 Frequencies --   1450.3731              1460.3010              1489.1462
 Red. masses --      2.4221                 1.2277                 1.2822
 Frc consts  --      3.0020                 1.5425                 1.6753
 IR Inten    --     18.1978                 5.1279                52.6546

                     76                     77                     78
                      A                      A                      A
 Frequencies --   1508.9590              1512.9287              1516.6970
 Red. masses --      1.0910                 1.0493                 1.9904
 Frc consts  --      1.4636                 1.4151                 2.6977
 IR Inten    --     27.6018                 0.0104                 2.3244

                     79                     80                     81
                      A                      A                      A
 Frequencies --   1516.8086              1519.8528              1526.0494
 Red. masses --      1.0674                 1.1042                 1.4893
 Frc consts  --      1.4469                 1.5028                 2.0435
 IR Inten    --      0.0389                 9.0349                38.8449

                     82                     83                     84
                      A                      A                      A
 Frequencies --   1536.3127              1538.6206              1538.7971
 Red. masses --      1.1053                 1.0949                 1.2205
 Frc consts  --      1.5371                 1.5271                 1.7027
 IR Inten    --     56.4750                44.8046               131.3274

                     85                     86                     87
                      A                      A                      A
 Frequencies --   1551.5065              1590.7193              1615.7420
 Red. masses --      1.0898                 8.5983                 6.2865
 Frc consts  --      1.5456                12.8188                 9.6695
 IR Inten    --     38.6680                 0.5469                37.2682

                     88                     89                     90
                      A                      A                      A
 Frequencies --   1626.6112              1660.2743              1736.7172
 Red. masses --      4.9750                 5.6637                12.1362
 Frc consts  --      7.7555                 9.1983                21.5671
 IR Inten    --      3.1794                54.6213               233.9480

                     91                     92                     93
                      A                      A                      A
 Frequencies --   3045.6818              3045.9780              3053.3859
 Red. masses --      1.0348                 1.0350                 1.0363
 Frc consts  --      5.6554                 5.6579                 5.6922
 IR Inten    --     23.7145                26.1975                28.0118

                     94                     95                     96
                      A                      A                      A
 Frequencies --   3103.8976              3112.5024              3113.5379
 Red. masses --      1.0345                 1.1023                 1.1024
 Frc consts  --      5.8720                 6.2915                 6.2965
 IR Inten    --     22.6756                 2.7010                 5.9569

                     97                     98                     99
                      A                      A                      A
 Frequencies --   3117.2660              3121.2679              3124.5067
 Red. masses --      1.1028                 1.1015                 1.1025
 Frc consts  --      6.3138                 6.3226                 6.3413
 IR Inten    --     25.5036               102.2305                19.2044

                    100                    101                    102
                      A                      A                      A
 Frequencies --   3126.4693              3169.5682              3178.1261
 Red. masses --      1.1015                 1.0893                 1.1038
 Frc consts  --      6.3437                 6.4478                 6.5687
 IR Inten    --     40.9633                41.2874                10.8857

                    103                    104                    105
                      A                      A                      A
 Frequencies --   3180.7816              3198.6392              3205.4946
 Red. masses --      1.0877                 1.0964                 1.1046
 Frc consts  --      6.4839                 6.6091                 6.6871
 IR Inten    --      2.9470                50.4100                18.0886

                    106                    107                    108
                      A                      A                      A
 Frequencies --   3217.3985              3220.0767              3302.9467
 Red. masses --      1.0926                 1.0896                 1.0922
 Frc consts  --      6.6641                 6.6564                 7.0202
 IR Inten    --      1.7976                10.1055                 7.2379

 - Thermochemistry -
 -------------------
 Temperature   298.150 Kelvin.  Pressure   1.00000 Atm.
 Atom     1 has atomic number  6 and mass  12.00000

 Molecular mass:   270.14806 amu.
 Principal axes and moments of inertia in atomic units:
                           1         2         3
     Eigenvalues --  1461.75876********************
           X            0.99999   0.00445   0.00188
           Y           -0.00447   0.99996   0.00826
           Z           -0.00184  -0.00827   0.99996
 This molecule is an asymmetric top.
 Rotational symmetry number  1.
 Warning -- assumption of classical behavior for rotation
           may cause significant error
 Rotational temperatures (Kelvin)      0.05925     0.00625     0.00595
 Rotational constants (GHZ):           1.23464     0.13028     0.12395
 Zero-point vibrational energy     828275.3 (Joules/Mol)
                                  197.96254 (Kcal/Mol)
 Warning -- explicit consideration of  29 degrees of freedom as
           vibrations may cause significant error
 Vibrational temperatures:     29.93    36.08    70.95    80.20   100.45
          (Kelvin)            143.09   206.18   251.83   259.27   286.49
                              307.97   342.92   387.04   407.87   416.89
                              468.21   476.97   482.08   523.89   550.73
                              558.53   606.97   616.61   647.87   678.95
                              687.22   728.67   830.12   848.27   905.06
                              950.23   959.35  1020.60  1054.02  1124.70
                             1128.98  1138.88  1223.44  1254.63  1259.81
                             1272.94  1353.71  1371.64  1377.80  1394.06
                             1404.64  1422.03  1438.00  1493.73  1497.87
                             1521.46  1532.74  1539.47  1586.42  1641.92
                             1666.83  1679.06  1706.43  1738.47  1780.29
                             1789.79  1798.44  1804.86  1867.36  1889.30
                             1911.14  1930.29  1946.19  2024.17  2051.54
                             2054.27  2072.95  2086.76  2101.05  2142.55
                             2171.06  2176.77  2182.19  2182.35  2186.73
                             2195.64  2210.41  2213.73  2213.99  2232.27
                             2288.69  2324.69  2340.33  2388.76  2498.75
                             4382.06  4382.48  4393.14  4465.82  4478.20
                             4479.69  4485.05  4490.81  4495.47  4498.29
                             4560.30  4572.61  4576.44  4602.13  4611.99
                             4629.12  4632.97  4752.20

 Zero-point correction=                           0.315473 (Hartree/Particle)
 Thermal correction to Energy=                    0.333957
 Thermal correction to Enthalpy=                  0.334901
 Thermal correction to Gibbs Free Energy=         0.267463
 Sum of electronic and zero-point Energies=           -876.433935
 Sum of electronic and thermal Energies=              -876.415452
 Sum of electronic and thermal Enthalpies=            -876.414507
 Sum of electronic and thermal Free Energies=         -876.481946

                     E (Thermal)             CV                S
                      KCal/Mol        Cal/Mol-Kelvin    Cal/Mol-Kelvin
 Total                  209.561             70.959            141.936
 Electronic               0.000              0.000              0.000
 Translational            0.889              2.981             42.680
 Rotational               0.889              2.981             34.044
 Vibrational            207.784             64.998             65.212
 Vibration     1          0.593              1.986              6.556
 Vibration     2          0.593              1.985              6.185
 Vibration     3          0.595              1.978              4.845
 Vibration     4          0.596              1.975              4.603
 Vibration     5          0.598              1.969              4.159
 Vibration     6          0.604              1.949              3.465
 Vibration     7          0.616              1.910              2.759
 Vibration     8          0.627              1.873              2.381
 Vibration     9          0.629              1.867              2.326
 Vibration    10          0.637              1.841              2.141
 Vibration    11          0.644              1.820              2.009
 Vibration    12          0.656              1.782              1.815
 Vibration    13          0.673              1.730              1.603
 Vibration    14          0.682              1.704              1.513
 Vibration    15          0.686              1.693              1.475
 Vibration    16          0.710              1.625              1.283
 Vibration    17          0.714              1.613              1.253
 Vibration    18          0.716              1.605              1.236
 Vibration    19          0.738              1.546              1.104
 Vibration    20          0.752              1.507              1.028
 Vibration    21          0.756              1.495              1.007
 Vibration    22          0.784              1.423              0.886
 Vibration    23          0.790              1.408              0.863
 Vibration    24          0.809              1.360              0.795
 Vibration    25          0.829              1.312              0.732
 Vibration    26          0.834              1.300              0.716
 Vibration    27          0.862              1.236              0.642
 Vibration    28          0.933              1.081              0.491
 Vibration    29          0.947              1.054              0.468

                           ! Non-Optimized Parameters !
 Normal termination of Gaussian 16 at Sun Dec 13 13:51:00 2020.

 ----------------------------------------------------------------------
 # B3LYP/6-311++G(d,p) empiricaldispersion=gd3bj scf=xqc pop=npa geom=c
 heck
 ----------------------------------------------------------------------

 ---------------------------------------
 CID_70988814_JID_10952_Energie_neutraal
 ---------------------------------------
 Structure from the checkpoint file:  "JID_10952.chk"
 Charge =  0 Multiplicity = 1

 SCF Done:  E(RB3LYP) =  -876.978424708     A.U. after   16 cycles
 Normal termination of Gaussian 16 at Sun Dec 13 13:59:23 2020.

 ----------------------------------------------------------------------
 # B3LYP/6-311++G(d,p) empiricaldispersion=gd3bj scf=xqc pop=npa geom=c
 heck
 ----------------------------------------------------------------------

 -------------------------------------
 CID_70988814_JID_10952_Energie_kation
 -------------------------------------
 Structure from the checkpoint file:  "JID_10952.chk"
 Charge =  1 Multiplicity = 2

 SCF Done:  E(UB3LYP) =  -876.685934053     A.U. after   25 cycles
 Normal termination of Gaussian 16 at Sun Dec 13 14:17:56 2020.
 Gaussian 16:  ES64L-G16RevA.03 25-Dec-2016

 ----------------------------------------------------------------------
 # B3LYP/6-311++G(d,p) empiricaldispersion=gd3bj scf=xqc pop=npa geom=c
 heck
 ----------------------------------------------------------------------

 ------------------------------------
 CID_70988814_JID_10952_Energie_anion
 ------------------------------------
 Structure from the checkpoint file:  "JID_10952.chk"
 Charge = -1 Multiplicity = 2

                         Standard orientation:
 ---------------------------------------------------------------------
 Center     Atomic      Atomic             Coordinates (Angstroms)
 Number     Number       Type             X           Y           Z
 ---------------------------------------------------------------------
      1          6           0        5.229898    1.441451    0.460887
      2          6           0        4.672536    0.035725    0.184181
      3          6           0        5.317122   -0.497579   -1.113883
      4          6           0        5.058422   -0.882601    1.364328
      5          6           0        3.149759    0.046508    0.027728
      6          6           0        2.449980   -1.138394   -0.227513
      7          7           0        1.127866   -1.227479   -0.372076
      8          6           0        0.390712   -0.114576   -0.276099
      9          6           0        0.975973    1.138537   -0.036483
     10          6           0        2.357501    1.195650    0.117580
     11          7           0       -1.008357   -0.334542   -0.427326
     12          6           0       -1.407323   -1.681224   -0.871878
     13          6           0       -1.948513    0.640075   -0.171757
     14          8           0       -1.702208    1.837479   -0.047438
     15          6           0       -3.389192    0.222295    0.008400
     16          7           0       -3.685377   -0.880779    0.707553
     17          6           0       -4.982368   -1.109261    0.934194
     18          6           0       -5.977037   -0.259303    0.448748
     19          7           0       -5.687861    0.842696   -0.254369
     20          6           0       -4.391070    1.087491   -0.454771
     21          1           0        6.318660    1.391626    0.569132
     22          1           0        4.823051    1.863865    1.386378
     23          1           0        5.009260    2.133843   -0.359131
     24          1           0        6.409214   -0.513702   -1.017855
     25          1           0        4.986046   -1.515850   -1.341700
     26          1           0        5.057727    0.138551   -1.967228
     27          1           0        4.612661   -0.523946    2.298519
     28          1           0        4.719835   -1.911284    1.204578
     29          1           0        6.147429   -0.903620    1.489901
     30          1           0        2.983701   -2.082401   -0.320265
     31          1           0        0.369169    2.027144    0.020977
     32          1           0        2.810913    2.162869    0.303989
     33          1           0       -1.388388   -2.396520   -0.047929
     34          1           0       -2.410168   -1.636760   -1.289256
     35          1           0       -0.706377   -2.009577   -1.637775
     36          1           0       -5.233156   -1.994308    1.514578
     37          1           0       -7.029028   -0.468602    0.629470
     38          1           0       -4.125188    1.990817   -0.995317
 ---------------------------------------------------------------------

 SCF Done:  E(UB3LYP) =  -876.999948772     A.U. after   31 cycles

 The electronic state is 2-A.
 Alpha  occ. eigenvalues --  -18.94261 -14.22717 -14.19244 -14.15795 -14.14947
 Alpha  occ. eigenvalues --  -10.12834 -10.12126 -10.11319 -10.10050 -10.08764
 Alpha  occ. eigenvalues --  -10.08626 -10.08566 -10.07737 -10.07462 -10.07114
 Alpha  occ. eigenvalues --  -10.06192 -10.06147 -10.06039 -10.05067 -10.04815
 Alpha  occ. eigenvalues --   -0.90292  -0.85259  -0.82222  -0.79543  -0.75205
 Alpha  occ. eigenvalues --   -0.74877  -0.68661  -0.64968  -0.62493  -0.61595
 Alpha  occ. eigenvalues --   -0.61358  -0.58029  -0.55109  -0.52391  -0.50733
 Alpha  occ. eigenvalues --   -0.50231  -0.47163  -0.45342  -0.40313  -0.39775
 Alpha  occ. eigenvalues --   -0.37619  -0.36856  -0.36583  -0.36477  -0.35284
 Alpha  occ. eigenvalues --   -0.34388  -0.33762  -0.33200  -0.32500  -0.32199
 Alpha  occ. eigenvalues --   -0.31012  -0.30315  -0.29575  -0.29558  -0.28469
 Alpha  occ. eigenvalues --   -0.28063  -0.27482  -0.26672  -0.26138  -0.25916
 Alpha  occ. eigenvalues --   -0.24882  -0.24376  -0.23946  -0.18533  -0.18219
 Alpha  occ. eigenvalues --   -0.17287  -0.15523  -0.15228  -0.13671  -0.11503
 Alpha  occ. eigenvalues --   -0.10974  -0.09172   0.03590
 Alpha virt. eigenvalues --    0.05282   0.07457   0.07551   0.07902   0.08232
 Alpha virt. eigenvalues --    0.08914   0.09280   0.09863   0.10293   0.10450
 Alpha virt. eigenvalues --    0.10754   0.11161   0.11417   0.11887   0.12370

  Beta  occ. eigenvalues --  -18.93953 -14.22763 -14.19152 -14.15459 -14.14367
  Beta  occ. eigenvalues --  -10.12762 -10.11930 -10.11324 -10.10073 -10.08764
  Beta  occ. eigenvalues --  -10.08620 -10.08560 -10.07695 -10.07388 -10.07110
  Beta  occ. eigenvalues --  -10.06291 -10.06229 -10.06054 -10.04871 -10.04546
  Beta  occ. eigenvalues --   -0.89842  -0.85059  -0.81578  -0.79429  -0.75088
  Beta  occ. eigenvalues --   -0.74079  -0.68565  -0.64832  -0.62138  -0.61572
  Beta  occ. eigenvalues --   -0.61345  -0.57949  -0.54860  -0.52111  -0.50237
  Beta  occ. eigenvalues --   -0.50135  -0.47070  -0.45207  -0.40241  -0.39691
  Beta  occ. eigenvalues --   -0.37384  -0.36832  -0.36509  -0.36161  -0.35094
  Beta  occ. eigenvalues --   -0.34293  -0.33585  -0.33122  -0.32390  -0.32152
  Beta  occ. eigenvalues --   -0.30931  -0.30220  -0.29568  -0.29496  -0.28258
  Beta  occ. eigenvalues --   -0.27479  -0.27193  -0.26215  -0.26042  -0.25708
  Beta  occ. eigenvalues --   -0.24352  -0.23988  -0.23484  -0.18040  -0.16963
  Beta  occ. eigenvalues --   -0.15864  -0.15160  -0.14821  -0.13042  -0.10693
  Beta  occ. eigenvalues --   -0.10422  -0.08648
  Beta virt. eigenvalues --    0.05256   0.07514   0.07608   0.07932   0.08201
  Beta virt. eigenvalues --    0.08967   0.09228   0.09837   0.10279   0.10409
  Beta virt. eigenvalues --    0.10688   0.10930   0.11334   0.11593   0.11932

 Mulliken charges and spin densities:
               1          2
     1  C   -0.500008   0.001585
     2  C    0.453992  -0.002107
     3  C   -0.637268  -0.008333
     4  C   -0.646144  -0.004937
     5  C    0.326834   0.052200
     6  C   -0.363067  -0.017842
     7  N   -0.071775   0.044833
     8  C   -0.383279   0.044360
     9  C   -0.064341  -0.009768
    10  C   -0.138075   0.041372
    11  N    0.067561  -0.027603
    12  C   -0.428562  -0.005928
    13  C   -0.231445   0.102808
    14  O   -0.339564   0.108331
    15  C   -0.303244   0.132496
    16  N   -0.061461   0.262878
    17  C    0.100719  -0.050779
    18  C   -0.310758   0.225886
    19  N   -0.104751   0.137990
    20  C   -0.137720  -0.035047
    21  H    0.149685  -0.000030
    22  H    0.134280  -0.000139
    23  H    0.130819  -0.000150
    24  H    0.124858   0.005270
    25  H    0.135325   0.000235
    26  H    0.145427   0.000524
    27  H    0.147688   0.000452
    28  H    0.131728   0.000231
    29  H    0.127332   0.004119
    30  H    0.181335   0.000565
    31  H    0.247755  -0.000211
    32  H    0.156874  -0.002655
    33  H    0.206449  -0.003093
    34  H    0.178863   0.006700
    35  H    0.152631   0.005142
    36  H    0.123508   0.004907
    37  H    0.116511  -0.018264
    38  H    0.181290   0.004001
 Sum of Mulliken charges =  -1.00000   1.00000

 Dipole moment (field-independent basis, Debye):
    X=             12.8897    Y=             -2.0452    Z=             -0.4717  Tot=             13.0594
 Quadrupole moment (field-independent basis, Debye-Ang):
   XX=           -205.4461   YY=           -135.2291   ZZ=           -128.7246
   XY=             11.9674   XZ=              1.2035   YZ=              1.0906

 Summary of Natural Population Analysis:

                                       Natural Population
                Natural  -----------------------------------------------
    Atom  No    Charge         Core      Valence    Rydberg      Total
 -----------------------------------------------------------------------
      C    1   -0.28587      0.99965     2.28007    0.00615     3.28587
      C    2   -0.04953      0.99957     2.04267    0.00728     3.04953
      C    3   -0.27881      0.99964     2.27372    0.00545     3.27881
      C    4   -0.27890      0.99964     2.27380    0.00546     3.27890
      C    5   -0.05096      0.99950     2.03839    0.01307     3.05096
      C    6    0.02764      0.99954     1.95980    0.01301     2.97236
      N    7   -0.24004      0.99967     2.73012    0.01024     3.74004
      C    8    0.21501      0.99952     1.77259    0.01288     2.78499
      C    9   -0.13945      0.99956     2.12721    0.01268     3.13945
      C   10   -0.05498      0.99953     2.05032    0.00513     3.05498
      N   11   -0.25160      0.99961     2.74021    0.01179     3.75160
      C   12   -0.17156      0.99964     2.16474    0.00718     3.17156
      C   13    0.36498      0.99962     1.61390    0.02151     2.63502
      O   14   -0.29582      0.99988     3.28992    0.00603     4.29582
      C   15    0.06381      0.99950     1.92153    0.01515     2.93619
      N   16   -0.14760      0.99968     2.63682    0.01110     3.64760
      C   17   -0.02408      0.99960     2.01011    0.01437     3.02408
      C   18    0.04184      0.99961     1.94320    0.01535     2.95816
      N   19   -0.19142      0.99972     2.67826    0.01345     3.69142
      C   20    0.00730      0.99956     1.97912    0.01403     2.99270
      H   21    0.09614      0.00000     0.40305    0.00081     0.40386
      H   22    0.10107      0.00000     0.39806    0.00087     0.39893
      H   23    0.10056      0.00000     0.39856    0.00087     0.39944
      H   24    0.09241      0.00000     0.40669    0.00091     0.40759
      H   25    0.09964      0.00000     0.39952    0.00084     0.40036
      H   26    0.10104      0.00000     0.39827    0.00069     0.39896
      H   27    0.10164      0.00000     0.39768    0.00068     0.39836
      H   28    0.09980      0.00000     0.39936    0.00084     0.40020
      H   29    0.09230      0.00000     0.40679    0.00091     0.40770
      H   30    0.08258      0.00000     0.41625    0.00117     0.41742
      H   31    0.12940      0.00000     0.36904    0.00156     0.37060
      H   32    0.09325      0.00000     0.40549    0.00126     0.40675
      H   33    0.09901      0.00000     0.39988    0.00110     0.40099
      H   34    0.10481      0.00000     0.39436    0.00083     0.39519
      H   35    0.09627      0.00000     0.40271    0.00102     0.40373
      H   36    0.08047      0.00000     0.41802    0.00151     0.41953
      H   37    0.07724      0.00000     0.42128    0.00148     0.42276
      H   38    0.09243      0.00000     0.40615    0.00142     0.40757
 =======================================================================
   * Total *    0.00001     19.99223    51.76766    0.24010    71.99999

 Normal termination of Gaussian 16 at Sun Dec 13 14:40:36 2020.
