 Gaussian 16, Revision A.03,

 -----------------------------------------------------------
 # opt freq B3LYP/6-31G(d) empiricaldispersion=gd3bj scf=xqc
 -----------------------------------------------------------

 -------------------------------
 CID_154005759_JID_6911_neutraal
 -------------------------------
 Symbolic Z-matrix:
 Charge =  0 Multiplicity = 1

 SCF Done:  E(RB3LYP) =  -711.821854456     A.U. after   12 cycles
 SCF Done:  E(RB3LYP) =  -711.827103336     A.U. after   11 cycles
 SCF Done:  E(RB3LYP) =  -711.827505961     A.U. after   10 cycles
 SCF Done:  E(RB3LYP) =  -711.828270467     A.U. after   11 cycles
 SCF Done:  E(RB3LYP) =  -711.828456597     A.U. after   10 cycles
 SCF Done:  E(RB3LYP) =  -711.828580989     A.U. after   10 cycles
 SCF Done:  E(RB3LYP) =  -711.828646532     A.U. after   10 cycles
 SCF Done:  E(RB3LYP) =  -711.828694117     A.U. after   10 cycles
 SCF Done:  E(RB3LYP) =  -711.828735336     A.U. after   10 cycles
 SCF Done:  E(RB3LYP) =  -711.828742957     A.U. after   11 cycles
 SCF Done:  E(RB3LYP) =  -711.845181884     A.U. after   10 cycles
 SCF Done:  E(RB3LYP) =  -711.845233527     A.U. after   10 cycles
 SCF Done:  E(RB3LYP) =  -711.845250226     A.U. after    8 cycles
 SCF Done:  E(RB3LYP) =  -711.845255191     A.U. after    8 cycles
 SCF Done:  E(RB3LYP) =  -711.845256183     A.U. after    7 cycles
 SCF Done:  E(RB3LYP) =  -711.845256320     A.U. after    6 cycles
 Optimization completed.
    -- Stationary point found.
 Normal termination of Gaussian 16 at Fri Dec 11 00:48:59 2020.

 --------------------------------------------------------------------
 #N Geom=AllCheck Guess=TCheck SCRF=Check GenChk RB3LYP/6-31G(d) Freq
 --------------------------------------------------------------------

 Structure from the checkpoint file:  "JID_6911.chk"
 -------------------------------
 CID_154005759_JID_6911_neutraal
 -------------------------------
 Charge =  0 Multiplicity = 1

 SCF Done:  E(RB3LYP) =  -711.845256320     A.U. after    1 cycles

  Exact polarizability: 182.996   1.137 133.082   1.175   0.910 127.935
 Approx polarizability: 211.528  -2.783 196.297   0.586   3.832 201.780

                      1                      2                      3
                      A                      A                      A
 Frequencies --     39.8972                49.6383                58.8424
 Red. masses --      4.3615                 3.4264                 3.9652
 Frc consts  --      0.0041                 0.0050                 0.0081
 IR Inten    --      0.3071                 0.6421                 0.4996

                      4                      5                      6
                      A                      A                      A
 Frequencies --     88.5492               114.1436               133.6061
 Red. masses --      5.3040                 2.9858                 2.7004
 Frc consts  --      0.0245                 0.0229                 0.0284
 IR Inten    --      1.6263                 1.0337                 1.3824

                      7                      8                      9
                      A                      A                      A
 Frequencies --    188.4448               204.7148               225.2980
 Red. masses --      2.7564                 2.8591                 2.4486
 Frc consts  --      0.0577                 0.0706                 0.0732
 IR Inten    --      0.5540                 1.6971                 1.6750

                     10                     11                     12
                      A                      A                      A
 Frequencies --    248.0815               264.9130               293.6920
 Red. masses --      1.8444                 3.1471                 2.6936
 Frc consts  --      0.0669                 0.1301                 0.1369
 IR Inten    --      0.1716                 1.1053                 0.4933

                     13                     14                     15
                      A                      A                      A
 Frequencies --    310.6911               327.8127               371.9315
 Red. masses --      2.1714                 2.1042                 2.9292
 Frc consts  --      0.1235                 0.1332                 0.2387
 IR Inten    --      4.3810                 0.4478                 4.0390

                     16                     17                     18
                      A                      A                      A
 Frequencies --    392.8888               408.4238               446.9013
 Red. masses --      1.9946                 2.4947                 3.7571
 Frc consts  --      0.1814                 0.2452                 0.4421
 IR Inten    --      2.5067                 2.7840                 8.3637

                     19                     20                     21
                      A                      A                      A
 Frequencies --    462.3059               482.5690               490.3357
 Red. masses --      2.7440                 2.5963                 2.6993
 Frc consts  --      0.3455                 0.3562                 0.3824
 IR Inten    --      8.1961                 0.6643                 3.0500

                     22                     23                     24
                      A                      A                      A
 Frequencies --    526.4662               565.7808               604.8964
 Red. masses --      2.1650                 2.0161                 2.6146
 Frc consts  --      0.3535                 0.3802                 0.5637
 IR Inten    --      3.0397                26.3528                 3.4295

                     25                     26                     27
                      A                      A                      A
 Frequencies --    635.9855               700.6245               762.3594
 Red. masses --      2.1394                 1.1358                 1.5193
 Frc consts  --      0.5098                 0.3285                 0.5203
 IR Inten    --      5.4912               100.5051                 4.7339

                     28                     29                     30
                      A                      A                      A
 Frequencies --    786.3210               814.5512               828.7475
 Red. masses --      2.2374                 2.2182                 1.5722
 Frc consts  --      0.8151                 0.8671                 0.6362
 IR Inten    --     43.2037                11.0847                 5.5006

                     31                     32                     33
                      A                      A                      A
 Frequencies --    833.4666               853.1386               862.4761
 Red. masses --      1.9860                 1.6266                 2.1428
 Frc consts  --      0.8128                 0.6975                 0.9391
 IR Inten    --     24.7228                 0.8214                13.4616

                     34                     35                     36
                      A                      A                      A
 Frequencies --    876.0058               909.3956               929.0511
 Red. masses --      2.6552                 2.2145                 2.0510
 Frc consts  --      1.2005                 1.0790                 1.0430
 IR Inten    --      9.4297                 0.3122                 1.6555

                     37                     38                     39
                      A                      A                      A
 Frequencies --    941.5223               981.7813               985.7934
 Red. masses --      2.2755                 1.7147                 2.3843
 Frc consts  --      1.1885                 0.9738                 1.3651
 IR Inten    --      1.9124                 7.5231                 5.6395

                     40                     41                     42
                      A                      A                      A
 Frequencies --   1002.7296              1018.3685              1047.5045
 Red. masses --      1.4262                 2.2824                 2.1944
 Frc consts  --      0.8449                 1.3946                 1.4186
 IR Inten    --      0.9918                72.9211                23.5750

                     43                     44                     45
                      A                      A                      A
 Frequencies --   1053.1949              1068.7582              1086.3269
 Red. masses --      2.1728                 1.6405                 1.8803
 Frc consts  --      1.4200                 1.1041                 1.3074
 IR Inten    --     17.3511                 5.7371                14.8845

                     46                     47                     48
                      A                      A                      A
 Frequencies --   1095.7400              1107.1147              1112.5571
 Red. masses --      2.2830                 2.5207                 2.4824
 Frc consts  --      1.6150                 1.8203                 1.8104
 IR Inten    --     30.9434                13.6053                19.2653

                     49                     50                     51
                      A                      A                      A
 Frequencies --   1118.7866              1142.1024              1167.7985
 Red. masses --      2.6247                 2.6577                 2.8541
 Frc consts  --      1.9356                 2.0425                 2.2933
 IR Inten    --     29.4335                 4.2119                38.2091

                     52                     53                     54
                      A                      A                      A
 Frequencies --   1176.6691              1178.5057              1181.8123
 Red. masses --      2.9473                 2.5564                 1.2456
 Frc consts  --      2.4042                 2.0919                 1.0250
 IR Inten    --     37.2751                26.8608                 4.1680

                     55                     56                     57
                      A                      A                      A
 Frequencies --   1192.0108              1218.0220              1238.8845
 Red. masses --      1.8519                 2.0810                 1.2369
 Frc consts  --      1.5504                 1.8190                 1.1186
 IR Inten    --     15.6237                19.5667                 0.4131

                     58                     59                     60
                      A                      A                      A
 Frequencies --   1241.0539              1246.6714              1270.5118
 Red. masses --      1.3687                 1.1252                 1.2852
 Frc consts  --      1.2421                 1.0304                 1.2223
 IR Inten    --      2.1428                11.6496                 5.2889

                     61                     62                     63
                      A                      A                      A
 Frequencies --   1305.3059              1308.0796              1314.7351
 Red. masses --      1.3648                 1.2082                 1.2848
 Frc consts  --      1.3701                 1.2180                 1.3085
 IR Inten    --      6.8867                 4.6350                 7.0029

                     64                     65                     66
                      A                      A                      A
 Frequencies --   1323.5806              1342.0156              1343.9596
 Red. masses --      1.2964                 1.3009                 1.4229
 Frc consts  --      1.3381                 1.3804                 1.5143
 IR Inten    --      6.4689                10.5528                25.1803

                     67                     68                     69
                      A                      A                      A
 Frequencies --   1367.0396              1376.5983              1381.8808
 Red. masses --      1.3286                 1.2977                 1.3622
 Frc consts  --      1.4628                 1.4489                 1.5326
 IR Inten    --     37.2898                 1.4961                 0.5267

                     70                     71                     72
                      A                      A                      A
 Frequencies --   1392.0862              1393.4399              1401.3890
 Red. masses --      1.3663                 1.4179                 1.2428
 Frc consts  --      1.5600                 1.6221                 1.4380
 IR Inten    --      1.7388                 7.0705                19.8832

                     73                     74                     75
                      A                      A                      A
 Frequencies --   1408.7350              1417.0439              1426.0458
 Red. masses --      1.4480                 1.2815                 1.3733
 Frc consts  --      1.6930                 1.5161                 1.6454
 IR Inten    --      1.1049                 4.1386                18.9682

                     76                     77                     78
                      A                      A                      A
 Frequencies --   1428.4408              1442.5534              1448.5794
 Red. masses --      1.4835                 1.3728                 1.4504
 Frc consts  --      1.7834                 1.6831                 1.7932
 IR Inten    --     77.3353                 3.9354                 8.5904

                     79                     80                     81
                      A                      A                      A
 Frequencies --   1452.9768              1467.3914              1496.0542
 Red. masses --      1.3804                 1.2088                 1.2140
 Frc consts  --      1.7170                 1.5335                 1.6010
 IR Inten    --      4.7154                67.6718                 3.4267

                     82                     83                     84
                      A                      A                      A
 Frequencies --   1498.4345              1504.2590              1508.5281
 Red. masses --      1.0855                 1.1426                 1.1142
 Frc consts  --      1.4360                 1.5233                 1.4939
 IR Inten    --      3.7755                 0.9186                 4.4334

                     85                     86                     87
                      A                      A                      A
 Frequencies --   1517.0426              1517.2171              1521.0635
 Red. masses --      1.0788                 1.0855                 1.0956
 Frc consts  --      1.4628                 1.4723                 1.4935
 IR Inten    --      9.2855                 3.1280                 3.9612

                     88                     89                     90
                      A                      A                      A
 Frequencies --   1527.6720              1529.0984              1539.4401
 Red. masses --      1.1082                 1.1038                 1.1021
 Frc consts  --      1.5238                 1.5205                 1.5388
 IR Inten    --      0.7077                 2.4921                 4.2378

                     91                     92                     93
                      A                      A                      A
 Frequencies --   1540.6768              1545.8177              2908.1194
 Red. masses --      1.0850                 1.1084                 1.0744
 Frc consts  --      1.5175                 1.5605                 5.3533
 IR Inten    --      2.9073                 6.0346                35.1498

                     94                     95                     96
                      A                      A                      A
 Frequencies --   2915.8373              2946.9001              2952.8786
 Red. masses --      1.0728                 1.0730                 1.0727
 Frc consts  --      5.3740                 5.4903                 5.5108
 IR Inten    --    134.7773                25.7558                57.5214

                     97                     98                     99
                      A                      A                      A
 Frequencies --   2972.0024              2993.4267              3010.4042
 Red. masses --      1.0699                 1.0723                 1.0692
 Frc consts  --      5.5680                 5.6611                 5.7088
 IR Inten    --     89.4718                53.7148                34.5580

                    100                    101                    102
                      A                      A                      A
 Frequencies --   3015.1378              3019.2699              3047.8038
 Red. masses --      1.0745                 1.0804                 1.0623
 Frc consts  --      5.7551                 5.8026                 5.8137
 IR Inten    --     61.1418                44.7405                29.2899

                    103                    104                    105
                      A                      A                      A
 Frequencies --   3055.1070              3058.6992              3071.9704
 Red. masses --      1.0604                 1.0622                 1.0920
 Frc consts  --      5.8314                 5.8548                 6.0714
 IR Inten    --     12.1082                47.8217                36.7016

                    106                    107                    108
                      A                      A                      A
 Frequencies --   3078.0650              3079.5007              3082.8447
 Red. masses --      1.0963                 1.0862                 1.0867
 Frc consts  --      6.1198                 6.0689                 6.0852
 IR Inten    --      3.5246                69.3086                38.3483

                    109                    110                    111
                      A                      A                      A
 Frequencies --   3094.0495              3097.0248              3099.7560
 Red. masses --      1.0904                 1.0953                 1.0912
 Frc consts  --      6.1503                 6.1897                 6.1772
 IR Inten    --     44.4412                63.9537                46.3214

                    112                    113                    114
                      A                      A                      A
 Frequencies --   3103.0647              3104.4524              3106.8028
 Red. masses --      1.0934                 1.1032                 1.1026
 Frc consts  --      6.2030                 6.2644                 6.2703
 IR Inten    --     62.9711                18.0247                36.7627

                    115                    116                    117
                      A                      A                      A
 Frequencies --   3120.2176              3500.9467              3608.8975
 Red. masses --      1.0930                 1.0746                 1.0647
 Frc consts  --      6.2699                 7.7599                 8.1703
 IR Inten    --     41.4836                 2.5786               182.4830

 - Thermochemistry -
 -------------------
 Temperature   298.150 Kelvin.  Pressure   1.00000 Atm.
 Atom     1 has atomic number  6 and mass  12.00000

 Molecular mass:   227.19976 amu.
 Principal axes and moments of inertia in atomic units:
                           1         2         3
     Eigenvalues --  1250.476288052.079218369.72267
           X            0.99998   0.00594   0.00154
           Y           -0.00595   0.99996   0.00632
           Z           -0.00150  -0.00633   0.99998
 This molecule is an asymmetric top.
 Rotational symmetry number  1.
 Warning -- assumption of classical behavior for rotation
           may cause significant error
 Rotational temperatures (Kelvin)      0.06926     0.01076     0.01035
 Rotational constants (GHZ):           1.44324     0.22413     0.21563
 Zero-point vibrational energy     998867.0 (Joules/Mol)
                                  238.73495 (Kcal/Mol)
 Warning -- explicit consideration of  24 degrees of freedom as
           vibrations may cause significant error
 Vibrational temperatures:     57.40    71.42    84.66   127.40   164.23
          (Kelvin)            192.23   271.13   294.54   324.15   356.93
                              381.15   422.56   447.02   471.65   535.13
                              565.28   587.63   642.99   665.16   694.31
                              705.48   757.47   814.03   870.31   915.04
                             1008.04  1096.87  1131.34  1171.96  1192.38
                             1199.17  1227.48  1240.91  1260.38  1308.42
                             1336.70  1354.64  1412.56  1418.34  1442.70
                             1465.21  1507.13  1515.31  1537.70  1562.98
                             1576.53  1592.89  1600.72  1609.68  1643.23
                             1680.20  1692.96  1695.61  1700.36  1715.04
                             1752.46  1782.48  1785.60  1793.68  1827.98
                             1878.04  1882.03  1891.61  1904.34  1930.86
                             1933.66  1966.87  1980.62  1988.22  2002.90
                             2004.85  2016.29  2026.86  2038.81  2051.76
                             2055.21  2075.51  2084.18  2090.51  2111.25
                             2152.49  2155.91  2164.29  2170.44  2182.69
                             2182.94  2188.47  2197.98  2200.03  2214.91
                             2216.69  2224.09  4184.14  4195.24  4239.93
                             4248.53  4276.05  4306.87  4331.30  4338.11
                             4344.06  4385.11  4395.62  4400.79  4419.88
                             4428.65  4430.71  4435.53  4451.65  4455.93
                             4459.86  4464.62  4466.61  4470.00  4489.30
                             5037.08  5192.40

 Zero-point correction=                           0.380448 (Hartree/Particle)
 Thermal correction to Energy=                    0.395974
 Thermal correction to Enthalpy=                  0.396918
 Thermal correction to Gibbs Free Energy=         0.337530
 Sum of electronic and zero-point Energies=           -711.464808
 Sum of electronic and thermal Energies=              -711.449282
 Sum of electronic and thermal Enthalpies=            -711.448338
 Sum of electronic and thermal Free Energies=         -711.507726

                     E (Thermal)             CV                S
                      KCal/Mol        Cal/Mol-Kelvin    Cal/Mol-Kelvin
 Total                  248.477             61.939            124.993
 Electronic               0.000              0.000              0.000
 Translational            0.889              2.981             42.164
 Rotational               0.889              2.981             32.799
 Vibrational            246.700             55.977             50.029
 Vibration     1          0.594              1.981              5.264
 Vibration     2          0.595              1.978              4.832
 Vibration     3          0.596              1.974              4.496
 Vibration     4          0.601              1.957              3.692
 Vibration     5          0.607              1.938              3.197
 Vibration     6          0.613              1.920              2.893
 Vibration     7          0.633              1.856              2.243
 Vibration     8          0.640              1.833              2.090
 Vibration     9          0.650              1.803              1.916
 Vibration    10          0.662              1.766              1.744
 Vibration    11          0.671              1.737              1.629
 Vibration    12          0.688              1.685              1.453
 Vibration    13          0.700              1.653              1.359
 Vibration    14          0.711              1.620              1.271
 Vibration    15          0.744              1.530              1.072
 Vibration    16          0.760              1.485              0.989
 Vibration    17          0.773              1.452              0.932
 Vibration    18          0.806              1.368              0.805
 Vibration    19          0.820              1.334              0.759
 Vibration    20          0.839              1.289              0.703
 Vibration    21          0.846              1.271              0.683
 Vibration    22          0.881              1.191              0.595
 Vibration    23          0.922              1.105              0.512
 Vibration    24          0.963              1.021              0.441

 Optimization completed.
    -- Stationary point found.
 Normal termination of Gaussian 16 at Fri Dec 11 01:04:14 2020.

 ----------------------------------------------------------------------
 # B3LYP/6-311++G(d,p) empiricaldispersion=gd3bj scf=xqc pop=npa geom=c
 heck
 ----------------------------------------------------------------------

 ---------------------------------------
 CID_154005759_JID_6911_Energie_neutraal
 ---------------------------------------
 Structure from the checkpoint file:  "JID_6911.chk"
 Charge =  0 Multiplicity = 1

 SCF Done:  E(RB3LYP) =  -712.053661391     A.U. after   14 cycles
 Normal termination of Gaussian 16 at Fri Dec 11 01:11:24 2020.

 ----------------------------------------------------------------------
 # B3LYP/6-311++G(d,p) empiricaldispersion=gd3bj scf=xqc pop=npa geom=c
 heck
 ----------------------------------------------------------------------

 -------------------------------------
 CID_154005759_JID_6911_Energie_kation
 -------------------------------------
 Structure from the checkpoint file:  "JID_6911.chk"
 Charge =  1 Multiplicity = 2

 SCF Done:  E(UB3LYP) =  -711.782854984     A.U. after   26 cycles
 Normal termination of Gaussian 16 at Fri Dec 11 01:29:21 2020.
 Gaussian 16:  ES64L-G16RevA.03 25-Dec-2016

 ----------------------------------------------------------------------
 # B3LYP/6-311++G(d,p) empiricaldispersion=gd3bj scf=xqc pop=npa geom=c
 heck
 ----------------------------------------------------------------------

 ------------------------------------
 CID_154005759_JID_6911_Energie_anion
 ------------------------------------
 Structure from the checkpoint file:  "JID_6911.chk"
 Charge = -1 Multiplicity = 2

                         Standard orientation:
 ---------------------------------------------------------------------
 Center     Atomic      Atomic             Coordinates (Angstroms)
 Number     Number       Type             X           Y           Z
 ---------------------------------------------------------------------
      1          6           0       -2.167968    1.057636   -0.055693
      2          6           0       -3.589124    1.577420    0.182966
      3          7           0       -4.550871    0.686159   -0.462380
      4          6           0       -4.504613   -0.656786    0.114555
      5          6           0       -3.121356   -1.268771   -0.120913
      6          6           0       -2.016323   -0.383503    0.480404
      7          7           0       -0.706038   -1.019823    0.337736
      8          6           0       -0.108970   -1.110475   -0.988201
      9          6           0        0.846923    0.041923   -1.329252
     10          7           0        1.874655    0.173222   -0.291228
     11          6           0        1.242967    0.418383    1.008085
     12          6           0        0.301362   -0.743330    1.349919
     13          6           0        2.868034    1.193207   -0.644094
     14          6           0        4.106977    1.176038    0.264214
     15          6           0        4.577500   -0.255948    0.589579
     16          8           0        4.430602   -1.144448   -0.504958
     17          1           0       -1.444178    1.723832    0.426768
     18          1           0       -1.969844    1.072799   -1.133761
     19          1           0       -3.757561    1.663422    1.276302
     20          1           0       -3.701385    2.581334   -0.241861
     21          1           0       -5.489341    1.068314   -0.369769
     22          1           0       -5.275935   -1.270541   -0.363958
     23          1           0       -4.714306   -0.656329    1.203757
     24          1           0       -2.972068   -1.373720   -1.202173
     25          1           0       -3.060472   -2.268113    0.323039
     26          1           0       -2.200229   -0.343524    1.563718
     27          1           0        0.466509   -2.046644   -1.043403
     28          1           0       -0.897174   -1.170124   -1.743412
     29          1           0        0.286697    0.986257   -1.451438
     30          1           0        1.346278   -0.170079   -2.282399
     31          1           0        0.691693    1.377758    1.002326
     32          1           0        2.019825    0.491977    1.775266
     33          1           0       -0.194751   -0.553755    2.307363
     34          1           0        0.924943   -1.642075    1.472154
     35          1           0        3.189780    0.971037   -1.666458
     36          1           0        2.420706    2.204780   -0.658645
     37          1           0        4.898565    1.725535   -0.259047
     38          1           0        3.921411    1.716126    1.201623
     39          1           0        5.639470   -0.251629    0.856086
     40          1           0        4.028635   -0.632185    1.467626
     41          1           0        3.461240   -1.200551   -0.618352
 ---------------------------------------------------------------------

 SCF Done:  E(UB3LYP) =  -712.041148586     A.U. after   29 cycles

 The electronic state is 2-A.
 Alpha  occ. eigenvalues --  -19.02159 -14.22692 -14.20749 -14.19757 -10.12367
 Alpha  occ. eigenvalues --  -10.10889 -10.10710 -10.10688 -10.10465 -10.10207
 Alpha  occ. eigenvalues --  -10.10046 -10.09334 -10.09062 -10.08120 -10.06673
 Alpha  occ. eigenvalues --  -10.06505  -0.92709  -0.86021  -0.82285  -0.80885
 Alpha  occ. eigenvalues --   -0.69490  -0.67983  -0.67260  -0.65525  -0.61378
 Alpha  occ. eigenvalues --   -0.56766  -0.55942  -0.52986  -0.52520  -0.49475
 Alpha  occ. eigenvalues --   -0.47140  -0.45906  -0.42931  -0.41318  -0.39601
 Alpha  occ. eigenvalues --   -0.39312  -0.37849  -0.37604  -0.36957  -0.36114
 Alpha  occ. eigenvalues --   -0.35580  -0.34071  -0.33153  -0.33022  -0.31576
 Alpha  occ. eigenvalues --   -0.30496  -0.29932  -0.29592  -0.28814  -0.27943
 Alpha  occ. eigenvalues --   -0.27845  -0.26837  -0.26682  -0.25207  -0.24810
 Alpha  occ. eigenvalues --   -0.23861  -0.23577  -0.22568  -0.21876  -0.18170
 Alpha  occ. eigenvalues --   -0.14767  -0.13213  -0.11221   0.04129
 Alpha virt. eigenvalues --    0.05748   0.06764   0.06982   0.07306   0.08067
 Alpha virt. eigenvalues --    0.08270   0.09271   0.09536   0.09594   0.10060
 Alpha virt. eigenvalues --    0.10375   0.11160   0.11551   0.11920   0.12698

  Beta  occ. eigenvalues --  -19.02156 -14.22685 -14.20746 -14.19730 -10.12354
  Beta  occ. eigenvalues --  -10.10880 -10.10705 -10.10684 -10.10458 -10.10193
  Beta  occ. eigenvalues --  -10.10022 -10.09312 -10.09034 -10.08102 -10.06668
  Beta  occ. eigenvalues --  -10.06496  -0.92702  -0.86006  -0.82264  -0.80851
  Beta  occ. eigenvalues --   -0.69465  -0.67959  -0.67233  -0.65487  -0.61353
  Beta  occ. eigenvalues --   -0.56735  -0.55910  -0.52941  -0.52478  -0.49436
  Beta  occ. eigenvalues --   -0.47082  -0.45872  -0.42904  -0.41252  -0.39571
  Beta  occ. eigenvalues --   -0.39291  -0.37819  -0.37574  -0.36934  -0.36091
  Beta  occ. eigenvalues --   -0.35540  -0.34053  -0.33133  -0.32989  -0.31551
  Beta  occ. eigenvalues --   -0.30472  -0.29905  -0.29557  -0.28774  -0.27928
  Beta  occ. eigenvalues --   -0.27818  -0.26812  -0.26655  -0.25176  -0.24784
  Beta  occ. eigenvalues --   -0.23830  -0.23556  -0.22541  -0.21850  -0.18148
  Beta  occ. eigenvalues --   -0.14719  -0.13150  -0.11201
  Beta virt. eigenvalues --    0.06140   0.06710   0.07079   0.07336   0.07896
  Beta virt. eigenvalues --    0.08435   0.08711   0.09666   0.09770   0.09779
  Beta virt. eigenvalues --    0.10311   0.10816   0.11508   0.11873   0.12208

 Mulliken charges and spin densities:
               1          2
     1  C   -0.963936   1.093143
     2  C    1.802721  -2.541525
     3  N   -0.442691   0.327953
     4  C    0.527558  -1.059615
     5  C   -0.421064   0.524481
     6  C   -0.691710  -0.323140
     7  N    0.274029   0.112348
     8  C   -0.182120  -0.117818
     9  C   -0.320692   0.070863
    10  N   -0.029191   0.028536
    11  C   -0.571635   0.292593
    12  C    1.022667  -1.339054
    13  C   -0.137596   0.036105
    14  C   -0.081506  -0.241609
    15  C    0.216622  -0.621693
    16  O   -0.291809   0.017085
    17  H    0.122166  -0.004738
    18  H    0.152361  -0.012106
    19  H   -0.409204   0.537136
    20  H   -0.431065   0.617782
    21  H   -0.133340   0.391105
    22  H   -0.250350   0.428929
    23  H   -0.309103   0.416868
    24  H    0.115976  -0.005277
    25  H    0.029996   0.148374
    26  H    0.430186  -0.307606
    27  H    0.104039   0.062153
    28  H    0.104445   0.024571
    29  H    0.088739   0.090208
    30  H    0.096116   0.070678
    31  H   -0.162836   0.316791
    32  H   -0.001874   0.155199
    33  H   -0.462141   0.616392
    34  H    0.230787  -0.061717
    35  H    0.110936   0.070786
    36  H   -0.057733   0.170729
    37  H   -0.049511   0.205386
    38  H   -0.275182   0.439369
    39  H   -0.009812   0.178291
    40  H   -0.047521   0.188111
    41  H    0.304281   0.003932
 Sum of Mulliken charges =  -1.00000   1.00000

 Dipole moment (field-independent basis, Debye):
    X=              4.4121    Y=             -3.0038    Z=             -3.1841  Tot=              6.2151
 Quadrupole moment (field-independent basis, Debye-Ang):
   XX=           -222.9166   YY=           -144.8734   ZZ=           -137.1377
   XY=             11.6429   XZ=              0.3876   YZ=             -3.9544

 Summary of Natural Population Analysis:

                                       Natural Population
                Natural  -----------------------------------------------
    Atom  No    Charge         Core      Valence    Rydberg      Total
 -----------------------------------------------------------------------
      C    1   -0.20480      0.99960     2.19573    0.00948     3.20480
      C    2   -0.08637      0.99962     2.07442    0.01233     3.08637
      N    3   -0.34118      0.99974     2.82909    0.01235     3.84118
      C    4   -0.08642      0.99962     2.07501    0.01179     3.08642
      C    5   -0.19577      0.99960     2.18613    0.01004     3.19577
      C    6    0.00063      0.99955     1.98621    0.01360     2.99937
      N    7   -0.28180      0.99971     2.76881    0.01328     3.78180
      C    8   -0.08740      0.99961     2.07756    0.01022     3.08740
      C    9   -0.09209      0.99961     2.08373    0.00875     3.09209
      N   10   -0.29834      0.99971     2.78567    0.01295     3.79834
      C   11   -0.09660      0.99960     2.08441    0.01259     3.09660
      C   12   -0.08382      0.99961     2.07186    0.01236     3.08382
      C   13   -0.08632      0.99962     2.07475    0.01195     3.08632
      C   14   -0.20927      0.99963     2.20119    0.00845     3.20927
      C   15   -0.01293      0.99961     1.99913    0.01418     3.01293
      O   16   -0.37989      0.99990     3.37317    0.00682     4.37989
      H   17    0.10121      0.00000     0.39709    0.00171     0.39879
      H   18    0.09519      0.00000     0.40304    0.00177     0.40481
      H   19    0.07821      0.00000     0.41949    0.00230     0.42179
      H   20    0.09735      0.00000     0.40124    0.00141     0.40265
      H   21    0.17829      0.00000     0.31755    0.00417     0.32171
      H   22    0.09506      0.00000     0.40384    0.00110     0.40494
      H   23    0.07732      0.00000     0.42083    0.00185     0.42268
      H   24    0.09470      0.00000     0.40381    0.00149     0.40530
      H   25    0.10189      0.00000     0.39683    0.00128     0.39811
      H   26    0.09443      0.00000     0.40332    0.00225     0.40557
      H   27    0.09150      0.00000     0.40716    0.00134     0.40850
      H   28    0.09975      0.00000     0.39927    0.00097     0.40025
      H   29    0.08526      0.00000     0.41319    0.00155     0.41474
      H   30    0.09422      0.00000     0.40464    0.00113     0.40578
      H   31    0.08441      0.00000     0.41357    0.00202     0.41559
      H   32    0.09907      0.00000     0.39907    0.00186     0.40093
      H   33    0.10076      0.00000     0.39817    0.00108     0.39924
      H   34    0.09090      0.00000     0.40768    0.00142     0.40910
      H   35    0.09627      0.00000     0.40233    0.00140     0.40373
      H   36    0.08906      0.00000     0.40963    0.00131     0.41094
      H   37    0.09910      0.00000     0.40001    0.00089     0.40090
      H   38    0.10074      0.00000     0.39774    0.00152     0.39926
      H   39    0.08504      0.00000     0.41393    0.00103     0.41496
      H   40    0.07600      0.00000     0.42266    0.00134     0.42400
      H   41    0.23663      0.00000     0.25993    0.00344     0.26337
 =======================================================================
   * Total *   -0.00000     15.99434    46.78290    0.22276    63.00000

 Normal termination of Gaussian 16 at Fri Dec 11 01:49:14 2020.
