 Gaussian 16, Revision A.03,

 -----------------------------------------------------------
 # opt freq B3LYP/6-31G(d) empiricaldispersion=gd3bj scf=xqc
 -----------------------------------------------------------

 -------------------------------
 CID_102312238_JID_8220_neutraal
 -------------------------------
 Symbolic Z-matrix:
 Charge =  0 Multiplicity = 1

 SCF Done:  E(RB3LYP) =  -744.565155711     A.U. after   22 cycles
 SCF Done:  E(RB3LYP) =  -744.633280948     A.U. after   18 cycles
 SCF Done:  E(RB3LYP) =  -744.714996363     A.U. after   20 cycles
 SCF Done:  E(RB3LYP) =  -744.802804842     A.U. after   18 cycles
 SCF Done:  E(RB3LYP) =  -744.867513438     A.U. after   17 cycles
 SCF Done:  E(RB3LYP) =  -744.927560932     A.U. after   15 cycles
 SCF Done:  E(RB3LYP) =  -745.003299681     A.U. after   16 cycles
 SCF Done:  E(RB3LYP) =  -745.022647605     A.U. after   15 cycles
 SCF Done:  E(RB3LYP) =  -745.029561547     A.U. after   14 cycles
 SCF Done:  E(RB3LYP) =  -745.031653359     A.U. after   13 cycles
 SCF Done:  E(RB3LYP) =  -745.033300684     A.U. after   12 cycles
 SCF Done:  E(RB3LYP) =  -745.033330484     A.U. after   12 cycles
 SCF Done:  E(RB3LYP) =  -745.033344042     A.U. after   11 cycles
 SCF Done:  E(RB3LYP) =  -745.033351752     A.U. after   10 cycles
 SCF Done:  E(RB3LYP) =  -745.033352667     A.U. after    9 cycles
 Optimization completed.
    -- Stationary point found.
 Normal termination of Gaussian 16 at Fri Dec 11 19:43:52 2020.

 --------------------------------------------------------------------
 #N Geom=AllCheck Guess=TCheck SCRF=Check GenChk RB3LYP/6-31G(d) Freq
 --------------------------------------------------------------------

 Structure from the checkpoint file:  "JID_8220.chk"
 -------------------------------
 CID_102312238_JID_8220_neutraal
 -------------------------------
 Charge =  0 Multiplicity = 1

 SCF Done:  E(RB3LYP) =  -745.033352667     A.U. after    1 cycles

  Exact polarizability: 307.413  -2.122 177.898   4.455  -2.113  70.503
 Approx polarizability: 478.855 -12.596 364.775  14.024  -1.790 123.730

                      1                      2                      3
                      A                      A                      A
 Frequencies --     54.7569                91.9192               122.6066
 Red. masses --      5.2973                 4.3742                 5.0972
 Frc consts  --      0.0094                 0.0218                 0.0451
 IR Inten    --      1.8180                 1.5483                 2.6862

                      4                      5                      6
                      A                      A                      A
 Frequencies --    142.9690               154.7834               186.3795
 Red. masses --      5.7067                 6.1960                 3.7818
 Frc consts  --      0.0687                 0.0875                 0.0774
 IR Inten    --      0.2588                 3.1188                 0.6886

                      7                      8                      9
                      A                      A                      A
 Frequencies --    254.6953               269.8261               310.8755
 Red. masses --      7.4105                 4.0185                 5.3406
 Frc consts  --      0.2832                 0.1724                 0.3041
 IR Inten    --      6.1044                 3.9714                 4.1623

                     10                     11                     12
                      A                      A                      A
 Frequencies --    363.8081               378.5302               409.8377
 Red. masses --      3.8459                 5.0247                 4.3731
 Frc consts  --      0.2999                 0.4242                 0.4328
 IR Inten    --      0.0869                 0.9352                 3.8009

                     13                     14                     15
                      A                      A                      A
 Frequencies --    431.3177               488.9096               497.9751
 Red. masses --      4.2317                 3.8454                 4.3505
 Frc consts  --      0.4638                 0.5416                 0.6356
 IR Inten    --      1.7554                 4.3566                 5.6446

                     16                     17                     18
                      A                      A                      A
 Frequencies --    530.1552               552.7612               567.6738
 Red. masses --      4.4576                 8.3935                 3.2479
 Frc consts  --      0.7382                 1.5110                 0.6167
 IR Inten    --      1.9520                 6.2258                 5.4394

                     19                     20                     21
                      A                      A                      A
 Frequencies --    590.0621               642.4327               657.3558
 Red. masses --      5.7606                 6.6500                 4.0749
 Frc consts  --      1.1817                 1.6171                 1.0375
 IR Inten    --      4.4906                 1.3361                 4.6784

                     22                     23                     24
                      A                      A                      A
 Frequencies --    688.2570               711.3076               722.4529
 Red. masses --      5.7056                 5.0033                 2.8022
 Frc consts  --      1.5924                 1.4915                 0.8617
 IR Inten    --     24.8379                 5.3154                59.7823

                     25                     26                     27
                      A                      A                      A
 Frequencies --    751.2514               760.9900               789.8299
 Red. masses --      3.1457                 2.3739                 2.0165
 Frc consts  --      1.0460                 0.8100                 0.7412
 IR Inten    --     42.6749                 6.5995                62.0332

                     28                     29                     30
                      A                      A                      A
 Frequencies --    795.3129               810.8276               837.2840
 Red. masses --      3.6568                 4.0196                 2.3863
 Frc consts  --      1.3628                 1.5570                 0.9856
 IR Inten    --      3.4618                 5.6746                 0.5077

                     31                     32                     33
                      A                      A                      A
 Frequencies --    855.3015               873.4651               942.5364
 Red. masses --      3.9624                 1.7545                 5.4968
 Frc consts  --      1.7078                 0.7887                 2.8771
 IR Inten    --     16.2403                22.8601                 3.2686

                     34                     35                     36
                      A                      A                      A
 Frequencies --    963.5549               976.0319               979.2649
 Red. masses --      1.3512                 1.3855                 1.4627
 Frc consts  --      0.7392                 0.7776                 0.8264
 IR Inten    --      2.1587                 0.4658                22.5729

                     37                     38                     39
                      A                      A                      A
 Frequencies --    993.6145              1001.7746              1039.2054
 Red. masses --      1.3554                 5.3141                 2.1469
 Frc consts  --      0.7884                 3.1421                 1.3661
 IR Inten    --      0.3457                32.5301                15.7816

                     40                     41                     42
                      A                      A                      A
 Frequencies --   1068.8364              1089.1540              1109.8545
 Red. masses --      2.4569                 1.4648                 2.6173
 Frc consts  --      1.6537                 1.0238                 1.8995
 IR Inten    --      2.6206                 7.3433                29.5234

                     43                     44                     45
                      A                      A                      A
 Frequencies --   1132.0399              1152.3544              1164.2644
 Red. masses --      2.1764                 1.6203                 1.5913
 Frc consts  --      1.6433                 1.2677                 1.2709
 IR Inten    --      0.1898                 3.5144                 2.1335

                     46                     47                     48
                      A                      A                      A
 Frequencies --   1184.1652              1205.4467              1223.9371
 Red. masses --      2.4779                 2.2773                 2.4469
 Frc consts  --      2.0472                 1.9497                 2.1597
 IR Inten    --     13.2682                15.8510                12.3959

                     49                     50                     51
                      A                      A                      A
 Frequencies --   1257.0773              1277.5218              1312.8469
 Red. masses --      1.4117                 2.5493                 4.0466
 Frc consts  --      1.3144                 2.4514                 4.1093
 IR Inten    --      8.9108                 1.8938                33.0495

                     52                     53                     54
                      A                      A                      A
 Frequencies --   1325.5881              1376.5114              1383.9719
 Red. masses --      2.6065                 1.3442                 2.8632
 Frc consts  --      2.6985                 1.5006                 3.2311
 IR Inten    --      0.6290                 0.1134                 5.1453

                     55                     56                     57
                      A                      A                      A
 Frequencies --   1409.4791              1437.8577              1451.1036
 Red. masses --      1.7528                 2.9518                 2.6981
 Frc consts  --      2.0517                 3.5956                 3.3474
 IR Inten    --      0.8909                25.5237                79.6186

                     58                     59                     60
                      A                      A                      A
 Frequencies --   1490.6341              1519.6717              1541.2371
 Red. masses --      3.7451                 2.6882                 4.7022
 Frc consts  --      4.9030                 3.6578                 6.5810
 IR Inten    --     18.6128                33.1460                 3.9665

                     61                     62                     63
                      A                      A                      A
 Frequencies --   1562.6858              1621.1649              1642.3306
 Red. masses --      4.4213                 6.7897                 6.5927
 Frc consts  --      6.3613                10.5137                10.4770
 IR Inten    --      8.0392                79.8751                15.6914

                     64                     65                     66
                      A                      A                      A
 Frequencies --   1654.9766              1668.6920              1814.9490
 Red. masses --      6.8469                 9.6694                12.9752
 Frc consts  --     11.0492                15.8637                25.1822
 IR Inten    --     57.2658               139.1235               185.0692

                     67                     68                     69
                      A                      A                      A
 Frequencies --   3052.7141              3092.4489              3152.3088
 Red. masses --      1.0832                 1.0849                 1.0849
 Frc consts  --      5.9475                 6.1126                 6.3517
 IR Inten    --     25.0382                20.9933                 8.7879

                     70                     71                     72
                      A                      A                      A
 Frequencies --   3171.1467              3182.1352              3188.5090
 Red. masses --      1.0952                 1.0894                 1.0892
 Frc consts  --      6.4890                 6.4991                 6.5243
 IR Inten    --     56.9405                27.2455                18.2049

                     73                     74                     75
                      A                      A                      A
 Frequencies --   3206.5419              3220.9649              3221.4002
 Red. masses --      1.0898                 1.0930                 1.0964
 Frc consts  --      6.6022                 6.6808                 6.7034
 IR Inten    --      4.2808                 5.9360                22.2228

 - Thermochemistry -
 -------------------
 Temperature   298.150 Kelvin.  Pressure   1.00000 Atm.
 Atom     1 has atomic number  6 and mass  12.00000

 Molecular mass:   231.06841 amu.
 Principal axes and moments of inertia in atomic units:
                           1         2         3
     Eigenvalues --  1601.436036256.134457754.53835
           X            0.99998   0.00579   0.00102
           Y           -0.00579   0.99998  -0.00304
           Z           -0.00104   0.00304   0.99999
 This molecule is an asymmetric top.
 Rotational symmetry number  1.
 Warning -- assumption of classical behavior for rotation
           may cause significant error
 Rotational temperatures (Kelvin)      0.05409     0.01384     0.01117
 Rotational constants (GHZ):           1.12695     0.28848     0.23273
 Zero-point vibrational energy     530893.2 (Joules/Mol)
                                  126.88652 (Kcal/Mol)
 Warning -- explicit consideration of  19 degrees of freedom as
           vibrations may cause significant error
 Vibrational temperatures:     78.78   132.25   176.40   205.70   222.70
          (Kelvin)            268.16   366.45   388.22   447.28   523.44
                              544.62   589.67   620.57   703.43   716.48
                              762.78   795.30   816.76   848.97   924.32
                              945.79   990.25  1023.41  1039.45  1080.88
                             1094.89  1136.39  1144.28  1166.60  1204.66
                             1230.59  1256.72  1356.10  1386.34  1404.29
                             1408.94  1429.59  1441.33  1495.18  1537.82
                             1567.05  1596.83  1628.75  1657.98  1675.12
                             1703.75  1734.37  1760.97  1808.65  1838.07
                             1888.89  1907.23  1980.49  1991.23  2027.93
                             2068.76  2087.81  2144.69  2186.47  2217.50
                             2248.36  2332.49  2362.95  2381.14  2400.88
                             2611.31  4392.17  4449.34  4535.47  4562.57
                             4578.38  4587.55  4613.50  4634.25  4634.88

 Zero-point correction=                           0.202207 (Hartree/Particle)
 Thermal correction to Energy=                    0.214762
 Thermal correction to Enthalpy=                  0.215706
 Thermal correction to Gibbs Free Energy=         0.163147
 Sum of electronic and zero-point Energies=           -744.831146
 Sum of electronic and thermal Energies=              -744.818591
 Sum of electronic and thermal Enthalpies=            -744.817647
 Sum of electronic and thermal Free Energies=         -744.870206

                     E (Thermal)             CV                S
                      KCal/Mol        Cal/Mol-Kelvin    Cal/Mol-Kelvin
 Total                  134.765             51.499            110.620
 Electronic               0.000              0.000              0.000
 Translational            0.889              2.981             42.215
 Rotational               0.889              2.981             32.718
 Vibrational            132.988             45.537             35.687
 Vibration     1          0.596              1.976              4.638
 Vibration     2          0.602              1.955              3.619
 Vibration     3          0.610              1.930              3.059
 Vibration     4          0.616              1.910              2.764
 Vibration     5          0.620              1.897              2.613
 Vibration     6          0.632              1.858              2.264
 Vibration     7          0.665              1.755              1.698
 Vibration     8          0.674              1.729              1.597
 Vibration     9          0.700              1.653              1.358
 Vibration    10          0.737              1.547              1.106
 Vibration    11          0.749              1.516              1.045
 Vibration    12          0.774              1.449              0.927
 Vibration    13          0.792              1.402              0.854
 Vibration    14          0.845              1.275              0.686
 Vibration    15          0.853              1.255              0.663
 Vibration    16          0.885              1.183              0.587
 Vibration    17          0.908              1.134              0.538
 Vibration    18          0.924              1.101              0.509
 Vibration    19          0.947              1.053              0.467

 Optimization completed.
    -- Stationary point found.
 Normal termination of Gaussian 16 at Fri Dec 11 19:54:10 2020.

 ----------------------------------------------------------------------
 # B3LYP/6-311++G(d,p) empiricaldispersion=gd3bj scf=xqc pop=npa geom=c
 heck
 ----------------------------------------------------------------------

 ---------------------------------------
 CID_102312238_JID_8220_Energie_neutraal
 ---------------------------------------
 Structure from the checkpoint file:  "JID_8220.chk"
 Charge =  0 Multiplicity = 1

 SCF Done:  E(RB3LYP) =  -745.217267425     A.U. after   16 cycles
 Normal termination of Gaussian 16 at Fri Dec 11 19:59:03 2020.

 ----------------------------------------------------------------------
 # B3LYP/6-311++G(d,p) empiricaldispersion=gd3bj scf=xqc pop=npa geom=c
 heck
 ----------------------------------------------------------------------

 -------------------------------------
 CID_102312238_JID_8220_Energie_kation
 -------------------------------------
 Structure from the checkpoint file:  "JID_8220.chk"
 Charge =  1 Multiplicity = 2

 SCF Done:  E(UB3LYP) =  -744.932394950     A.U. after   29 cycles
 Normal termination of Gaussian 16 at Fri Dec 11 20:11:07 2020.
 Gaussian 16:  ES64L-G16RevA.03 25-Dec-2016

 ----------------------------------------------------------------------
 # B3LYP/6-311++G(d,p) empiricaldispersion=gd3bj scf=xqc pop=npa geom=c
 heck
 ----------------------------------------------------------------------

 ------------------------------------
 CID_102312238_JID_8220_Energie_anion
 ------------------------------------
 Structure from the checkpoint file:  "JID_8220.chk"
 Charge = -1 Multiplicity = 2

                         Standard orientation:
 ---------------------------------------------------------------------
 Center     Atomic      Atomic             Coordinates (Angstroms)
 Number     Number       Type             X           Y           Z
 ---------------------------------------------------------------------
      1          6           0        4.521372   -0.247248    0.315881
      2          6           0        3.598649   -1.376468    0.541051
      3          6           0        2.655364   -1.345808   -0.448211
      4          6           0        1.601495   -0.337951   -0.191420
      5          6           0        2.332247    0.917537   -0.151088
      6          6           0        3.815067    0.876910   -0.033884
      7          6           0        1.615124    2.117419   -0.130479
      8          6           0        0.210581    2.130550   -0.063665
      9          6           0       -0.464528    0.923228   -0.029285
     10          6           0        0.231385   -0.310288   -0.101488
     11          6           0       -0.759086   -1.438226   -0.096654
     12          8           0       -0.532136   -2.631725   -0.151896
     13          6           0       -2.096654   -0.768534   -0.008303
     14          6           0       -1.911181    0.628551    0.032174
     15          7           0       -2.897394    1.519833    0.106491
     16          6           0       -4.139042    0.999537    0.147665
     17          6           0       -4.429774   -0.367954    0.115570
     18          6           0       -3.378303   -1.289281    0.033576
     19          1           0        5.561553   -0.179565    0.632393
     20          1           0        3.296774   -1.538665    1.580744
     21          1           0        3.083435   -1.167095   -1.441180
     22          1           0        4.324464    1.839488   -0.072953
     23          1           0        2.154989    3.060809   -0.147815
     24          1           0       -0.338100    3.066204   -0.035408
     25          1           0       -4.949463    1.722768    0.209715
     26          1           0       -5.462440   -0.699256    0.153013
     27          1           0       -3.548643   -2.361555    0.002589
 ---------------------------------------------------------------------

 SCF Done:  E(UB3LYP) =  -745.267495462     A.U. after   33 cycles
 SCF Done:  E(UB3LYP) =  -745.267495561     a.u. after    3 cycles

 The electronic state is 2-A.
 Alpha  occ. eigenvalues --  -18.94620 -14.18607 -10.09082 -10.08108 -10.08029
 Alpha  occ. eigenvalues --  -10.07545 -10.07503 -10.07400 -10.06575 -10.06533
 Alpha  occ. eigenvalues --  -10.06477 -10.05862 -10.05805 -10.05308 -10.05202
 Alpha  occ. eigenvalues --  -10.04460 -10.04093 -10.03790  -0.88430  -0.82009
 Alpha  occ. eigenvalues --   -0.76386  -0.72286  -0.68511  -0.66847  -0.64356
 Alpha  occ. eigenvalues --   -0.61213  -0.59761  -0.54127  -0.52373  -0.49413
 Alpha  occ. eigenvalues --   -0.46720  -0.46308  -0.42084  -0.41967  -0.39103
 Alpha  occ. eigenvalues --   -0.37671  -0.36147  -0.35883  -0.33367  -0.31999
 Alpha  occ. eigenvalues --   -0.30889  -0.30542  -0.29918  -0.28984  -0.28420
 Alpha  occ. eigenvalues --   -0.27460  -0.26282  -0.25383  -0.25026  -0.24308
 Alpha  occ. eigenvalues --   -0.23530  -0.22342  -0.19507  -0.16579  -0.15113
 Alpha  occ. eigenvalues --   -0.14322  -0.13319  -0.10929  -0.09981  -0.09124
 Alpha  occ. eigenvalues --    0.00468
 Alpha virt. eigenvalues --    0.03620   0.07037   0.07810   0.08155   0.09387
 Alpha virt. eigenvalues --    0.10080   0.10236   0.10767   0.11190   0.11612
 Alpha virt. eigenvalues --    0.11982   0.12287   0.13892   0.14348   0.15098

  Beta  occ. eigenvalues --  -18.93999 -14.18673 -10.08895 -10.08118 -10.07886
  Beta  occ. eigenvalues --  -10.07518 -10.07462 -10.07249 -10.06515 -10.06468
  Beta  occ. eigenvalues --  -10.06456 -10.05922 -10.05770 -10.05274 -10.05110
  Beta  occ. eigenvalues --  -10.04264 -10.04023 -10.03664  -0.87350  -0.81864
  Beta  occ. eigenvalues --   -0.76235  -0.71998  -0.68273  -0.66555  -0.64228
  Beta  occ. eigenvalues --   -0.61080  -0.59529  -0.53644  -0.52137  -0.49267
  Beta  occ. eigenvalues --   -0.46463  -0.46143  -0.41907  -0.41726  -0.38943
  Beta  occ. eigenvalues --   -0.37447  -0.36062  -0.35744  -0.33260  -0.31791
  Beta  occ. eigenvalues --   -0.30728  -0.30295  -0.29283  -0.28571  -0.28270
  Beta  occ. eigenvalues --   -0.27244  -0.26053  -0.25036  -0.24452  -0.23656
  Beta  occ. eigenvalues --   -0.22499  -0.21996  -0.18758  -0.15985  -0.14269
  Beta  occ. eigenvalues --   -0.13727  -0.12673  -0.10622  -0.09403  -0.08632
  Beta virt. eigenvalues --    0.03910   0.06095   0.07370   0.07806   0.08141
  Beta virt. eigenvalues --    0.09391   0.10187   0.10777   0.10789   0.11418
  Beta virt. eigenvalues --    0.11872   0.12147   0.12432   0.13876   0.14627

 Mulliken charges and spin densities:
               1          2
     1  C   -0.246661   0.087786
     2  C   -0.294626  -0.055142
     3  C    0.308665   0.050681
     4  C   -0.252328  -0.027887
     5  C    0.708434   0.037478
     6  C   -0.262877  -0.035404
     7  C   -0.569160   0.166609
     8  C   -0.497782  -0.031073
     9  C   -0.197631   0.126190
    10  C    0.336811   0.046799
    11  C   -1.049170   0.115647
    12  O   -0.350171   0.227030
    13  C    2.374001   0.085302
    14  C   -1.955202   0.058332
    15  N    0.053096  -0.035009
    16  C    0.092578   0.109700
    17  C   -0.088423   0.021194
    18  C   -0.308281   0.065359
    19  H    0.127871  -0.003913
    20  H    0.125517   0.008313
    21  H    0.146393   0.002401
    22  H    0.120942  -0.001003
    23  H    0.110011  -0.011108
    24  H    0.137775   0.004018
    25  H    0.149632  -0.008104
    26  H    0.138113  -0.002772
    27  H    0.142473  -0.001424
 Sum of Mulliken charges =  -1.00000   1.00000

 Dipole moment (field-independent basis, Debye):
    X=              0.7852    Y=              3.2171    Z=              0.3768  Tot=              3.3329
 Quadrupole moment (field-independent basis, Debye-Ang):
   XX=           -135.0205   YY=           -131.1697   ZZ=           -110.9600
   XY=              9.1635   XZ=              1.2091   YZ=             -1.3742

 Summary of Natural Population Analysis:

                                       Natural Population
                Natural  -----------------------------------------------
    Atom  No    Charge         Core      Valence    Rydberg      Total
 -----------------------------------------------------------------------
      C    1   -0.10262      0.99951     2.09099    0.01212     3.10262
      C    2   -0.14155      0.99941     2.12946    0.01268     3.14155
      C    3   -0.03891      0.99934     2.02660    0.01297     3.03891
      C    4   -0.01556      0.99941     2.00454    0.01162     3.01556
      C    5   -0.03526      0.99948     2.02707    0.00871     3.03526
      C    6   -0.08398      0.99954     2.07539    0.00905     3.08398
      C    7   -0.05740      0.99954     2.04853    0.00932     3.05740
      C    8   -0.10538      0.99943     2.09618    0.00977     3.10538
      C    9    0.02447      0.99938     1.96649    0.00966     2.97553
      C   10   -0.03337      0.99932     2.02331    0.01073     3.03337
      C   11    0.28215      0.99958     1.69748    0.02079     2.71785
      O   12   -0.20972      0.99988     3.20385    0.00599     4.20972
      C   13   -0.04507      0.99944     2.03608    0.00955     3.04507
      C   14    0.13669      0.99947     1.85000    0.01384     2.86331
      N   15   -0.24750      0.99968     2.73687    0.01095     3.74750
      C   16    0.04478      0.99961     1.94100    0.01462     2.95522
      C   17   -0.13588      0.99960     2.12702    0.00926     3.13588
      C   18   -0.06634      0.99941     2.05624    0.01069     3.06634
      H   19    0.08967      0.00000     0.40862    0.00171     0.41033
      H   20    0.09269      0.00000     0.40557    0.00175     0.40731
      H   21    0.08332      0.00000     0.41486    0.00182     0.41668
      H   22    0.09418      0.00000     0.40469    0.00113     0.40582
      H   23    0.09019      0.00000     0.40810    0.00170     0.40981
      H   24    0.10311      0.00000     0.39610    0.00079     0.39689
      H   25    0.07934      0.00000     0.41940    0.00126     0.42066
      H   26    0.09399      0.00000     0.40488    0.00113     0.40601
      H   27    0.10568      0.00000     0.39370    0.00063     0.39432
 =======================================================================
   * Total *    0.00173     17.99102    41.79299    0.21426    59.99827

 Normal termination of Gaussian 16 at Fri Dec 11 20:52:00 2020.
