 Gaussian 16, Revision A.03,

 -----------------------------------------------------------
 # opt freq B3LYP/6-31G(d) empiricaldispersion=gd3bj scf=xqc
 -----------------------------------------------------------

 ------------------------------
 CID_60834454_JID_9717_neutraal
 ------------------------------
 Symbolic Z-matrix:
 Charge =  0 Multiplicity = 1

 SCF Done:  E(RB3LYP) =  -935.142374139     A.U. after   15 cycles
 SCF Done:  E(RB3LYP) =  -935.160526132     A.U. after   14 cycles
 SCF Done:  E(RB3LYP) =  -935.163200575     A.U. after   15 cycles
 SCF Done:  E(RB3LYP) =  -935.166286188     A.U. after   13 cycles
 SCF Done:  E(RB3LYP) =  -935.158838726     A.U. after   15 cycles
 SCF Done:  E(RB3LYP) =  -935.167022697     A.U. after   13 cycles
 SCF Done:  E(RB3LYP) =  -935.168279979     A.U. after   13 cycles
 SCF Done:  E(RB3LYP) =  -935.169523941     A.U. after   13 cycles
 SCF Done:  E(RB3LYP) =  -935.170606186     A.U. after   12 cycles
 SCF Done:  E(RB3LYP) =  -935.170869126     A.U. after   13 cycles
 SCF Done:  E(RB3LYP) =  -935.171596833     A.U. after    7 cycles
 SCF Done:  E(RB3LYP) =  -935.171596925     A.U. after    7 cycles
 SCF Done:  E(RB3LYP) =  -935.171597005     A.U. after    7 cycles
 SCF Done:  E(RB3LYP) =  -935.171597075     A.U. after    7 cycles
 SCF Done:  E(RB3LYP) =  -935.171597117     A.U. after    6 cycles
 SCF Done:  E(RB3LYP) =  -935.171597148     A.U. after    6 cycles
 Optimization completed.
    -- Stationary point found.
 Normal termination of Gaussian 16 at Mon Dec 14 19:33:37 2020.

 --------------------------------------------------------------------
 #N Geom=AllCheck Guess=TCheck SCRF=Check GenChk RB3LYP/6-31G(d) Freq
 --------------------------------------------------------------------

 Structure from the checkpoint file:  "JID_9717.chk"
 ------------------------------
 CID_60834454_JID_9717_neutraal
 ------------------------------
 Charge =  0 Multiplicity = 1

 SCF Done:  E(RB3LYP) =  -935.171597148     A.U. after    1 cycles

  Exact polarizability: 155.905   7.349 146.396   6.237  -0.510 146.009
 Approx polarizability: 201.135   4.891 217.144  18.853  -6.576 235.730

                      1                      2                      3
                      A                      A                      A
 Frequencies --     26.9352                31.4704                35.7885
 Red. masses --      5.9680                 6.2956                 3.9480
 Frc consts  --      0.0026                 0.0037                 0.0030
 IR Inten    --      2.6722                 1.2223                 0.3651

                      4                      5                      6
                      A                      A                      A
 Frequencies --     46.7695                60.7448                65.3392
 Red. masses --      2.1197                 4.2054                 5.6962
 Frc consts  --      0.0027                 0.0091                 0.0143
 IR Inten    --      0.2799                 0.3824                 0.1239

                      7                      8                      9
                      A                      A                      A
 Frequencies --     71.6768                97.3962               110.0133
 Red. masses --      5.7619                 3.2869                 5.6748
 Frc consts  --      0.0174                 0.0184                 0.0405
 IR Inten    --      2.4698                 0.6899                 6.5217

                     10                     11                     12
                      A                      A                      A
 Frequencies --    113.3472               115.1947               134.8917
 Red. masses --      4.7868                 1.2393                 5.8850
 Frc consts  --      0.0362                 0.0097                 0.0631
 IR Inten    --      0.4942                 1.3218                 0.5797

                     13                     14                     15
                      A                      A                      A
 Frequencies --    169.2668               176.3700               212.3900
 Red. masses --      2.3185                 2.7323                 3.6724
 Frc consts  --      0.0391                 0.0501                 0.0976
 IR Inten    --      2.4434                 0.0535                 1.4046

                     16                     17                     18
                      A                      A                      A
 Frequencies --    229.8295               287.2750               298.7227
 Red. masses --      4.2233                 3.8124                 3.4863
 Frc consts  --      0.1314                 0.1854                 0.1833
 IR Inten    --      2.1068                 0.3427                 0.9834

                     19                     20                     21
                      A                      A                      A
 Frequencies --    327.7735               372.3189               401.1700
 Red. masses --      3.3496                 2.8269                 3.5213
 Frc consts  --      0.2120                 0.2309                 0.3339
 IR Inten    --      2.8060                 5.0739                 1.7835

                     22                     23                     24
                      A                      A                      A
 Frequencies --    417.2642               453.4062               464.0459
 Red. masses --      2.7407                 4.9770                 2.1747
 Frc consts  --      0.2812                 0.6028                 0.2759
 IR Inten    --     10.8231                 6.2676                14.9897

                     25                     26                     27
                      A                      A                      A
 Frequencies --    506.5097               545.6597               563.9137
 Red. masses --      2.0911                 3.2351                 3.4449
 Frc consts  --      0.3161                 0.5675                 0.6454
 IR Inten    --      3.8384                 7.3366                51.7636

                     28                     29                     30
                      A                      A                      A
 Frequencies --    577.2433               592.5221               629.7953
 Red. masses --      3.8916                 1.9207                 2.3560
 Frc consts  --      0.7640                 0.3973                 0.5506
 IR Inten    --     17.0769                19.5499                23.2922

                     31                     32                     33
                      A                      A                      A
 Frequencies --    638.1902               657.2376               699.0955
 Red. masses --      1.5775                 1.6974                 2.2100
 Frc consts  --      0.3785                 0.4320                 0.6364
 IR Inten    --     71.1831                83.2743                26.4694

                     34                     35                     36
                      A                      A                      A
 Frequencies --    738.2340               750.8086               772.3613
 Red. masses --      2.7188                 3.6443                 1.7648
 Frc consts  --      0.8730                 1.2104                 0.6203
 IR Inten    --     63.3824                40.0891                51.2615

                     37                     38                     39
                      A                      A                      A
 Frequencies --    777.7110               808.5710               833.2538
 Red. masses --      1.8307                 3.0277                 1.6081
 Frc consts  --      0.6524                 1.1663                 0.6579
 IR Inten    --     50.9785                11.4664                 0.4657

                     40                     41                     42
                      A                      A                      A
 Frequencies --    858.0917               875.4228               887.1086
 Red. masses --      3.1683                 4.6111                 3.3413
 Frc consts  --      1.3745                 2.0820                 1.5492
 IR Inten    --      2.3614                15.2458                 0.4074

                     43                     44                     45
                      A                      A                      A
 Frequencies --    899.0539               931.0084               965.9424
 Red. masses --      2.4231                 2.8786                 2.5118
 Frc consts  --      1.1539                 1.4701                 1.3808
 IR Inten    --      0.8958                30.6251                 0.7914

                     46                     47                     48
                      A                      A                      A
 Frequencies --    976.9435               984.5040               991.1202
 Red. masses --      2.0380                 2.3348                 2.2706
 Frc consts  --      1.1460                 1.3333                 1.3142
 IR Inten    --      2.7100                 5.0255                21.2895

                     49                     50                     51
                      A                      A                      A
 Frequencies --    996.9181              1006.5198              1057.6926
 Red. masses --      1.2956                 1.6172                 2.3623
 Frc consts  --      0.7587                 0.9653                 1.5571
 IR Inten    --      4.0208                 4.4601                 4.6909

                     52                     53                     54
                      A                      A                      A
 Frequencies --   1068.1677              1115.2443              1117.8051
 Red. masses --      2.1225                 3.1822                 1.9933
 Frc consts  --      1.4268                 2.3319                 1.4674
 IR Inten    --     25.1362                11.2153                45.8792

                     55                     56                     57
                      A                      A                      A
 Frequencies --   1141.2725              1159.8143              1170.5893
 Red. masses --      2.1921                 1.3767                 1.7107
 Frc consts  --      1.6823                 1.0911                 1.3811
 IR Inten    --    126.0386                17.7923                10.3929

                     58                     59                     60
                      A                      A                      A
 Frequencies --   1182.1930              1201.6689              1217.9155
 Red. masses --      2.1184                 1.6212                 1.5409
 Frc consts  --      1.7443                 1.3793                 1.3466
 IR Inten    --     58.6111                43.8509                29.1629

                     61                     62                     63
                      A                      A                      A
 Frequencies --   1222.9817              1245.2407              1259.2542
 Red. masses --      1.6809                 1.5429                 1.4441
 Frc consts  --      1.4813                 1.4096                 1.3492
 IR Inten    --    117.5465                45.4283                 7.1307

                     64                     65                     66
                      A                      A                      A
 Frequencies --   1276.3965              1294.5491              1309.6811
 Red. masses --      1.2281                 1.6642                 1.6757
 Frc consts  --      1.1789                 1.6432                 1.6934
 IR Inten    --      4.2965                64.4070                68.7425

                     67                     68                     69
                      A                      A                      A
 Frequencies --   1319.7604              1346.6432              1355.8804
 Red. masses --      1.2888                 1.2836                 1.3913
 Frc consts  --      1.3226                 1.3715                 1.5070
 IR Inten    --      0.7347                 1.0178                 0.5748

                     70                     71                     72
                      A                      A                      A
 Frequencies --   1358.3993              1368.1927              1374.0425
 Red. masses --      1.7730                 1.3244                 1.5920
 Frc consts  --      1.9275                 1.4607                 1.7709
 IR Inten    --      4.3229                33.0815                10.4468

                     73                     74                     75
                      A                      A                      A
 Frequencies --   1380.6337              1395.4336              1397.4345
 Red. masses --      1.2755                 1.7075                 1.7931
 Frc consts  --      1.4325                 1.9590                 2.0631
 IR Inten    --      3.3634                55.6397               153.6323

                     76                     77                     78
                      A                      A                      A
 Frequencies --   1411.9469              1422.1121              1438.7702
 Red. masses --      1.6931                 1.5925                 1.4433
 Frc consts  --      1.9887                 1.8976                 1.7603
 IR Inten    --     16.0028                60.8949                18.2325

                     79                     80                     81
                      A                      A                      A
 Frequencies --   1449.7380              1484.8243              1495.1496
 Red. masses --      1.3608                 1.6662                 1.2384
 Frc consts  --      1.6851                 2.1643                 1.6311
 IR Inten    --     14.6484                35.6205                 6.7051

                     82                     83                     84
                      A                      A                      A
 Frequencies --   1504.2983              1508.6755              1514.6355
 Red. masses --      1.0822                 1.1415                 1.0811
 Frc consts  --      1.4428                 1.5308                 1.4613
 IR Inten    --     20.3590                15.7442                 0.7533

                     85                     86                     87
                      A                      A                      A
 Frequencies --   1524.6390              1526.1554              1533.6777
 Red. masses --      1.0895                 1.0462                 1.0870
 Frc consts  --      1.4922                 1.4357                 1.5065
 IR Inten    --      2.3536                 7.1919                 1.4395

                     88                     89                     90
                      A                      A                      A
 Frequencies --   1535.3981              1551.7522              1553.3684
 Red. masses --      1.0874                 1.1106                 1.1072
 Frc consts  --      1.5104                 1.5756                 1.5740
 IR Inten    --      6.2306                34.3520                 3.4067

                     91                     92                     93
                      A                      A                      A
 Frequencies --   1795.3173              1808.5357              1839.5387
 Red. masses --      8.4910                 7.2152                 9.3767
 Frc consts  --     16.1247                13.9044                18.6946
 IR Inten    --    275.9713               388.3841               238.8418

                     94                     95                     96
                      A                      A                      A
 Frequencies --   3013.5658              3051.3779              3052.8167
 Red. masses --      1.0838                 1.0384                 1.0650
 Frc consts  --      5.7992                 5.6965                 5.8480
 IR Inten    --     16.6820                56.7835                21.2502

                     97                     98                     99
                      A                      A                      A
 Frequencies --   3057.3812              3064.6050              3068.3642
 Red. masses --      1.0660                 1.0651                 1.0613
 Frc consts  --      5.8710                 5.8938                 5.8873
 IR Inten    --     20.4937                12.4018                59.2134

                    100                    101                    102
                      A                      A                      A
 Frequencies --   3074.2188              3076.1240              3093.8685
 Red. masses --      1.0646                 1.0635                 1.1018
 Frc consts  --      5.9282                 5.9292                 6.2137
 IR Inten    --     38.4545                12.4867                 9.6883

                    103                    104                    105
                      A                      A                      A
 Frequencies --   3098.5813              3103.1718              3110.2896
 Red. masses --      1.0666                 1.1060                 1.1030
 Frc consts  --      6.0339                 6.2752                 6.2868
 IR Inten    --     19.3836                28.8445                 7.3778

                    106                    107                    108
                      A                      A                      A
 Frequencies --   3119.4863              3123.6115              3139.3279
 Red. masses --      1.1000                 1.1032                 1.0999
 Frc consts  --      6.3069                 6.3421                 6.3869
 IR Inten    --     11.4166                62.1606                14.2631

                    109                    110                    111
                      A                      A                      A
 Frequencies --   3145.8150              3178.8358              3181.0147
 Red. masses --      1.0998                 1.0976                 1.0964
 Frc consts  --      6.4125                 6.5347                 6.5363
 IR Inten    --      9.1123                15.9846                 2.4650

                    112                    113                    114
                      A                      A                      A
 Frequencies --   3572.3210              3601.0052              3671.3224
 Red. masses --      1.0751                 1.0755                 1.0640
 Frc consts  --      8.0832                 8.2170                 8.4495
 IR Inten    --     37.1416                30.4384                40.4853

 - Thermochemistry -
 -------------------
 Temperature   298.150 Kelvin.  Pressure   1.00000 Atm.
 Atom     1 has atomic number  6 and mass  12.00000

 Molecular mass:   271.15321 amu.
 Principal axes and moments of inertia in atomic units:
                           1         2         3
     Eigenvalues --  3683.881456461.206217323.80491
           X            0.99827   0.05885  -0.00087
           Y           -0.05879   0.99765   0.03506
           Z            0.00293  -0.03495   0.99938
 This molecule is an asymmetric top.
 Rotational symmetry number  1.
 Warning -- assumption of classical behavior for rotation
           may cause significant error
 Rotational temperatures (Kelvin)      0.02351     0.01341     0.01183
 Rotational constants (GHZ):           0.48990     0.27932     0.24642
 Zero-point vibrational energy     903274.3 (Joules/Mol)
                                  215.88773 (Kcal/Mol)
 Warning -- explicit consideration of  29 degrees of freedom as
           vibrations may cause significant error
 Vibrational temperatures:     38.75    45.28    51.49    67.29    87.40
          (Kelvin)             94.01   103.13   140.13   158.28   163.08
                              165.74   194.08   243.54   253.76   305.58
                              330.67   413.32   429.80   471.59   535.68
                              577.19   600.35   652.35   667.66   728.75
                              785.08   811.35   830.52   852.51   906.13
                              918.21   945.62  1005.84  1062.15  1080.25
                             1111.26  1118.95  1163.35  1198.87  1234.60
                             1259.54  1276.35  1293.54  1339.51  1389.78
                             1405.60  1416.48  1426.00  1434.34  1448.16
                             1521.78  1536.86  1604.59  1608.27  1642.04
                             1668.71  1684.22  1700.91  1728.93  1752.31
                             1759.60  1791.62  1811.79  1836.45  1862.57
                             1884.34  1898.84  1937.52  1950.81  1954.43
                             1968.52  1976.94  1986.42  2007.72  2010.60
                             2031.48  2046.10  2070.07  2085.85  2136.33
                             2151.19  2164.35  2170.65  2179.22  2193.62
                             2195.80  2206.62  2209.10  2232.63  2234.95
                             2583.06  2602.08  2646.69  4335.85  4390.25
                             4392.32  4398.89  4409.28  4414.69  4423.12
                             4425.86  4451.39  4458.17  4464.77  4475.01
                             4488.24  4494.18  4516.79  4526.13  4573.64
                             4576.77  5139.77  5181.04  5282.21

 Zero-point correction=                           0.344039 (Hartree/Particle)
 Thermal correction to Energy=                    0.364175
 Thermal correction to Enthalpy=                  0.365120
 Thermal correction to Gibbs Free Energy=         0.292635
 Sum of electronic and zero-point Energies=           -934.827558
 Sum of electronic and thermal Energies=              -934.807422
 Sum of electronic and thermal Enthalpies=            -934.806478
 Sum of electronic and thermal Free Energies=         -934.878962

                     E (Thermal)             CV                S
                      KCal/Mol        Cal/Mol-Kelvin    Cal/Mol-Kelvin
 Total                  228.524             73.049            152.556
 Electronic               0.000              0.000              0.000
 Translational            0.889              2.981             42.691
 Rotational               0.889              2.981             33.521
 Vibrational            226.746             67.088             76.343
 Vibration     1          0.593              1.984              6.043
 Vibration     2          0.594              1.983              5.735
 Vibration     3          0.594              1.982              5.480
 Vibration     4          0.595              1.979              4.950
 Vibration     5          0.597              1.973              4.433
 Vibration     6          0.597              1.971              4.289
 Vibration     7          0.598              1.968              4.107
 Vibration     8          0.603              1.951              3.506
 Vibration     9          0.606              1.941              3.269
 Vibration    10          0.607              1.938              3.211
 Vibration    11          0.608              1.937              3.179
 Vibration    12          0.613              1.918              2.875
 Vibration    13          0.625              1.880              2.444
 Vibration    14          0.628              1.871              2.366
 Vibration    15          0.643              1.822              2.023
 Vibration    16          0.652              1.795              1.880
 Vibration    17          0.684              1.697              1.490
 Vibration    18          0.692              1.676              1.424
 Vibration    19          0.711              1.620              1.271
 Vibration    20          0.744              1.529              1.070
 Vibration    21          0.767              1.468              0.958
 Vibration    22          0.780              1.433              0.901
 Vibration    23          0.812              1.353              0.786
 Vibration    24          0.822              1.330              0.754
 Vibration    25          0.862              1.236              0.642
 Vibration    26          0.901              1.149              0.553
 Vibration    27          0.920              1.109              0.516
 Vibration    28          0.934              1.080              0.490
 Vibration    29          0.950              1.048              0.463

 Optimization completed.
    -- Stationary point found.
 Normal termination of Gaussian 16 at Mon Dec 14 19:58:50 2020.

 ----------------------------------------------------------------------
 # B3LYP/6-311++G(d,p) empiricaldispersion=gd3bj scf=xqc pop=npa geom=c
 heck
 ----------------------------------------------------------------------

 --------------------------------------
 CID_60834454_JID_9717_Energie_neutraal
 --------------------------------------
 Structure from the checkpoint file:  "JID_9717.chk"
 Charge =  0 Multiplicity = 1

 SCF Done:  E(RB3LYP) =  -935.456499302     A.U. after   14 cycles
 Normal termination of Gaussian 16 at Mon Dec 14 20:09:06 2020.

 ----------------------------------------------------------------------
 # B3LYP/6-311++G(d,p) empiricaldispersion=gd3bj scf=xqc pop=npa geom=c
 heck
 ----------------------------------------------------------------------

 ------------------------------------
 CID_60834454_JID_9717_Energie_kation
 ------------------------------------
 Structure from the checkpoint file:  "JID_9717.chk"
 Charge =  1 Multiplicity = 2

 SCF Done:  E(UB3LYP) =  -935.174239703     A.U. after   21 cycles
 Normal termination of Gaussian 16 at Mon Dec 14 20:31:10 2020.
 Gaussian 16:  ES64L-G16RevA.03 25-Dec-2016

 ----------------------------------------------------------------------
 # B3LYP/6-311++G(d,p) empiricaldispersion=gd3bj scf=xqc pop=npa geom=c
 heck
 ----------------------------------------------------------------------

 -----------------------------------
 CID_60834454_JID_9717_Energie_anion
 -----------------------------------
 Structure from the checkpoint file:  "JID_9717.chk"
 Charge = -1 Multiplicity = 2

                         Standard orientation:
 ---------------------------------------------------------------------
 Center     Atomic      Atomic             Coordinates (Angstroms)
 Number     Number       Type             X           Y           Z
 ---------------------------------------------------------------------
      1          6           0       -4.090165   -1.144805    0.488978
      2          7           0       -2.840752   -0.853655    1.183845
      3          6           0       -2.233573    0.375185    1.258915
      4          8           0       -1.588419    0.732382    2.232125
      5          7           0       -2.436526    1.240597    0.154872
      6          6           0       -2.110941    1.062949   -1.195520
      7          8           0       -2.062566    2.042596   -1.920578
      8          6           0       -1.719217   -0.311091   -1.702639
      9          6           0       -0.175541   -0.390539   -1.712858
     10          7           0        0.359157   -0.233802   -0.366639
     11          6           0        0.484720   -1.438673    0.427322
     12          6           0        1.754350   -2.250776    0.183344
     13          8           0        2.671322   -2.384785    0.963477
     14          8           0        1.775147   -2.801231   -1.060456
     15          6           0        1.322066    0.848971   -0.180537
     16          6           0        1.698378    1.151343    1.276001
     17          6           0        2.819715    2.197185    1.130841
     18          6           0        3.524911    1.874493   -0.225050
     19          6           0        2.704830    0.730027   -0.863560
     20          1           0       -4.351440   -0.301704   -0.150424
     21          1           0       -4.904955   -1.298111    1.206202
     22          1           0       -3.999124   -2.041297   -0.134184
     23          1           0       -2.659029   -1.390658    2.022671
     24          1           0       -2.326133    2.213097    0.424769
     25          1           0       -2.119259   -1.122700   -1.096982
     26          1           0       -2.101471   -0.405769   -2.723430
     27          1           0        0.141150   -1.330569   -2.181250
     28          1           0        0.203724    0.422079   -2.338094
     29          1           0        0.459704   -1.189692    1.489709
     30          1           0       -0.379315   -2.077179    0.213901
     31          1           0        2.640596   -3.245269   -1.144728
     32          1           0        0.831620    1.746533   -0.585081
     33          1           0        0.841744    1.486826    1.865633
     34          1           0        2.101068    0.246519    1.746396
     35          1           0        3.513755    2.170506    1.976075
     36          1           0        2.392173    3.205864    1.103049
     37          1           0        4.570256    1.583872   -0.082929
     38          1           0        3.528982    2.757215   -0.873353
     39          1           0        3.153230   -0.237354   -0.615361
     40          1           0        2.648504    0.798494   -1.955104
 ---------------------------------------------------------------------

 SCF Done:  E(UB3LYP) =  -935.452164249     A.U. after   30 cycles

 The electronic state is 2-A.
 Alpha  occ. eigenvalues --  -19.07925 -19.02775 -19.00683 -19.00301 -14.25700
 Alpha  occ. eigenvalues --  -14.24763 -14.21757 -10.21464 -10.21292 -10.18907
 Alpha  occ. eigenvalues --  -10.11452 -10.11003 -10.10999 -10.10818 -10.08398
 Alpha  occ. eigenvalues --  -10.08292 -10.08211 -10.07395 -10.06871  -1.01926
 Alpha  occ. eigenvalues --   -0.97260  -0.95335  -0.93115  -0.84564  -0.84139
 Alpha  occ. eigenvalues --   -0.81547  -0.74400  -0.68615  -0.64738  -0.62402
 Alpha  occ. eigenvalues --   -0.61855  -0.60267  -0.55879  -0.54398  -0.51959
 Alpha  occ. eigenvalues --   -0.48958  -0.47944  -0.47131  -0.43176  -0.42838
 Alpha  occ. eigenvalues --   -0.40754  -0.40300  -0.39896  -0.39301  -0.38483
 Alpha  occ. eigenvalues --   -0.38421  -0.36568  -0.35572  -0.34710  -0.34595
 Alpha  occ. eigenvalues --   -0.33798  -0.32787  -0.32247  -0.31871  -0.31487
 Alpha  occ. eigenvalues --   -0.30781  -0.30569  -0.29346  -0.28287  -0.27010
 Alpha  occ. eigenvalues --   -0.26629  -0.25716  -0.25321  -0.24823  -0.24025
 Alpha  occ. eigenvalues --   -0.23456  -0.23158  -0.21296  -0.20034  -0.18213
 Alpha  occ. eigenvalues --   -0.17458  -0.16510  -0.11912   0.03762
 Alpha virt. eigenvalues --    0.05723   0.06551   0.07102   0.07764   0.07979
 Alpha virt. eigenvalues --    0.08555   0.08610   0.08696   0.09412   0.10014
 Alpha virt. eigenvalues --    0.10706   0.11019   0.11766   0.11917   0.12183

  Beta  occ. eigenvalues --  -19.07882 -19.02762 -19.00628 -19.00269 -14.25713
  Beta  occ. eigenvalues --  -14.24746 -14.21759 -10.21430 -10.21282 -10.18828
  Beta  occ. eigenvalues --  -10.11429 -10.11001 -10.10930 -10.10803 -10.08397
  Beta  occ. eigenvalues --  -10.08281 -10.08211 -10.07388 -10.06869  -1.01870
  Beta  occ. eigenvalues --   -0.97187  -0.95233  -0.93067  -0.84522  -0.84124
  Beta  occ. eigenvalues --   -0.81511  -0.74393  -0.68562  -0.64698  -0.62391
  Beta  occ. eigenvalues --   -0.61745  -0.60229  -0.55788  -0.54335  -0.51897
  Beta  occ. eigenvalues --   -0.48923  -0.47931  -0.47086  -0.43141  -0.42790
  Beta  occ. eigenvalues --   -0.40680  -0.40252  -0.39867  -0.39217  -0.38457
  Beta  occ. eigenvalues --   -0.38389  -0.36448  -0.35488  -0.34654  -0.34553
  Beta  occ. eigenvalues --   -0.33758  -0.32753  -0.32220  -0.31802  -0.31435
  Beta  occ. eigenvalues --   -0.30690  -0.30513  -0.29285  -0.28176  -0.26938
  Beta  occ. eigenvalues --   -0.26606  -0.25708  -0.25317  -0.24807  -0.23993
  Beta  occ. eigenvalues --   -0.23450  -0.23136  -0.21231  -0.20001  -0.18150
  Beta  occ. eigenvalues --   -0.17389  -0.16434  -0.11898
  Beta virt. eigenvalues --    0.06158   0.06655   0.07070   0.07724   0.07971
  Beta virt. eigenvalues --    0.08194   0.08718   0.08908   0.09418   0.09648
  Beta virt. eigenvalues --    0.10289   0.10876   0.11362   0.11824   0.12069

 Mulliken charges and spin densities:
               1          2
     1  C    1.322770  -1.707920
     2  N   -0.258289   0.128742
     3  C   -0.167110  -0.032057
     4  O   -0.288746   0.025945
     5  N   -0.107358  -0.018812
     6  C   -0.452391   0.268960
     7  O   -0.280248   0.022479
     8  C    0.029881  -0.184788
     9  C   -0.186686  -0.119337
    10  N    0.660290  -0.046059
    11  C    0.249485  -0.320820
    12  C   -0.359206  -0.173047
    13  O   -0.195975   0.018523
    14  O   -0.135656   0.039997
    15  C    0.015558  -0.270615
    16  C   -0.072489  -0.251601
    17  C   -0.611732   0.070290
    18  C   -0.353797  -0.145408
    19  C   -0.408140   0.181642
    20  H   -0.000767   0.180626
    21  H   -0.713792   0.871510
    22  H   -0.794136   0.983802
    23  H    0.020956   0.307719
    24  H    0.336198   0.004647
    25  H    1.114000  -0.957334
    26  H   -0.120686   0.346043
    27  H   -0.142995   0.359331
    28  H    0.252560  -0.094840
    29  H    0.243282  -0.016739
    30  H   -0.581069   0.755343
    31  H   -0.263696   0.548289
    32  H    0.228686  -0.024136
    33  H    0.221532  -0.003083
    34  H    0.135094   0.017197
    35  H    0.151140  -0.005930
    36  H    0.127176   0.009313
    37  H    0.114655   0.032514
    38  H    0.138701  -0.007904
    39  H    0.082354   0.104102
    40  H    0.050644   0.103416
 Sum of Mulliken charges =  -1.00000   1.00000

 Dipole moment (field-independent basis, Debye):
    X=              5.6533    Y=              6.2676    Z=             -0.0623  Tot=              8.4408
 Quadrupole moment (field-independent basis, Debye-Ang):
   XX=           -189.7920   YY=           -167.4491   ZZ=           -156.5801
   XY=             -1.9772   XZ=              2.6599   YZ=              2.5579

 Summary of Natural Population Analysis:

                                       Natural Population
                Natural  -----------------------------------------------
    Atom  No    Charge         Core      Valence    Rydberg      Total
 -----------------------------------------------------------------------
      C    1   -0.18117      0.99964     2.17308    0.00846     3.18117
      N    2   -0.32499      0.99968     2.81421    0.01109     3.82499
      C    3    0.41534      0.99969     1.56013    0.02484     2.58466
      O    4   -0.32152      0.99987     3.31629    0.00536     4.32152
      N    5   -0.34453      0.99963     2.83616    0.00873     3.84453
      C    6    0.36352      0.99967     1.61321    0.02360     2.63648
      O    7   -0.31025      0.99987     3.30464    0.00574     4.31025
      C    8   -0.24148      0.99957     2.23313    0.00878     3.24148
      C    9   -0.07580      0.99959     2.06547    0.01073     3.07580
      N   10   -0.28942      0.99969     2.77284    0.01689     3.78942
      C   11   -0.13396      0.99955     2.12109    0.01332     3.13396
      C   12    0.39969      0.99972     1.57517    0.02542     2.60031
      O   13   -0.30784      0.99987     3.30196    0.00601     4.30784
      O   14   -0.34581      0.99988     3.33916    0.00678     4.34581
      C   15    0.00285      0.99957     1.98542    0.01216     2.99715
      C   16   -0.20316      0.99961     2.19626    0.00729     3.20316
      C   17   -0.18939      0.99965     2.18394    0.00580     3.18939
      C   18   -0.19298      0.99965     2.18657    0.00676     3.19298
      C   19   -0.20302      0.99961     2.19458    0.00883     3.20302
      H   20    0.10167      0.00000     0.39645    0.00188     0.39833
      H   21    0.09987      0.00000     0.39730    0.00283     0.40013
      H   22    0.09957      0.00000     0.39712    0.00331     0.40043
      H   23    0.19791      0.00000     0.29956    0.00252     0.30209
      H   24    0.20140      0.00000     0.29682    0.00178     0.29860
      H   25    0.11111      0.00000     0.38594    0.00295     0.38889
      H   26    0.11230      0.00000     0.38663    0.00107     0.38770
      H   27    0.10271      0.00000     0.39557    0.00172     0.39729
      H   28    0.09889      0.00000     0.39991    0.00120     0.40111
      H   29    0.11116      0.00000     0.38740    0.00144     0.38884
      H   30    0.11438      0.00000     0.38344    0.00218     0.38562
      H   31    0.24183      0.00000     0.24925    0.00892     0.25817
      H   32    0.09385      0.00000     0.40460    0.00155     0.40615
      H   33    0.11565      0.00000     0.38330    0.00105     0.38435
      H   34    0.10138      0.00000     0.39735    0.00127     0.39862
      H   35    0.09661      0.00000     0.40254    0.00085     0.40339
      H   36    0.09364      0.00000     0.40545    0.00091     0.40636
      H   37    0.09716      0.00000     0.40189    0.00095     0.40284
      H   38    0.09402      0.00000     0.40501    0.00097     0.40598
      H   39    0.09986      0.00000     0.39883    0.00132     0.40014
      H   40    0.09895      0.00000     0.40014    0.00091     0.40105
 =======================================================================
   * Total *    0.00000     18.99402    53.74782    0.25817    73.00000

 Normal termination of Gaussian 16 at Mon Dec 14 21:01:51 2020.
