 Gaussian 16, Revision A.03,

 -----------------------------------------------------------
 # opt freq B3LYP/6-31G(d) empiricaldispersion=gd3bj scf=xqc
 -----------------------------------------------------------

 ------------------------------
 CID_15006477_JID_8977_neutraal
 ------------------------------
 Symbolic Z-matrix:
 Charge =  0 Multiplicity = 1

 SCF Done:  E(RB3LYP) =  -825.415482947     A.U. after   15 cycles
 SCF Done:  E(RB3LYP) =  -825.420594742     A.U. after   12 cycles
 SCF Done:  E(RB3LYP) =  -825.421248199     A.U. after   11 cycles
 SCF Done:  E(RB3LYP) =  -825.421662346     A.U. after   11 cycles
 SCF Done:  E(RB3LYP) =  -825.421789749     A.U. after   11 cycles
 SCF Done:  E(RB3LYP) =  -825.421930965     A.U. after   11 cycles
 SCF Done:  E(RB3LYP) =  -825.422039784     A.U. after   11 cycles
 SCF Done:  E(RB3LYP) =  -825.422045922     A.U. after    9 cycles
 SCF Done:  E(RB3LYP) =  -825.422049034     A.U. after    9 cycles
 SCF Done:  E(RB3LYP) =  -825.422049501     A.U. after    9 cycles
 SCF Done:  E(RB3LYP) =  -825.422049807     A.U. after    7 cycles
 SCF Done:  E(RB3LYP) =  -825.422049822     A.U. after    6 cycles
 Optimization completed.
    -- Stationary point found.
 Normal termination of Gaussian 16 at Fri Dec 11 23:10:23 2020.

 --------------------------------------------------------------------
 #N Geom=AllCheck Guess=TCheck SCRF=Check GenChk RB3LYP/6-31G(d) Freq
 --------------------------------------------------------------------

 Structure from the checkpoint file:  "JID_8977.chk"
 ------------------------------
 CID_15006477_JID_8977_neutraal
 ------------------------------
 Charge =  0 Multiplicity = 1

 SCF Done:  E(RB3LYP) =  -825.422049822     A.U. after    1 cycles

  Exact polarizability: 194.784  -1.300 169.262  13.093  -2.386 107.594
 Approx polarizability: 270.218   5.361 257.236  27.227  -5.836 163.030

                      1                      2                      3
                      A                      A                      A
 Frequencies --     26.3034                31.7744                65.1580
 Red. masses --      3.8129                 3.4014                 5.8737
 Frc consts  --      0.0016                 0.0020                 0.0147
 IR Inten    --      0.0598                 0.0428                 0.9004

                      4                      5                      6
                      A                      A                      A
 Frequencies --     72.7808                80.5156                92.7338
 Red. masses --      3.2539                 3.7549                 3.3553
 Frc consts  --      0.0102                 0.0143                 0.0170
 IR Inten    --      0.6287                 0.5260                 3.7507

                      7                      8                      9
                      A                      A                      A
 Frequencies --    113.3086               140.1517               185.0982
 Red. masses --      2.5069                 3.0996                 2.9353
 Frc consts  --      0.0190                 0.0359                 0.0593
 IR Inten    --      0.9375                 3.7170                 0.8593

                     10                     11                     12
                      A                      A                      A
 Frequencies --    187.5618               227.9680               238.8224
 Red. masses --      1.9187                 3.7678                 1.5948
 Frc consts  --      0.0398                 0.1154                 0.0536
 IR Inten    --      5.1334                 2.5724                 0.6084

                     13                     14                     15
                      A                      A                      A
 Frequencies --    254.0939               278.3835               288.0360
 Red. masses --      1.5693                 2.8298                 2.6489
 Frc consts  --      0.0597                 0.1292                 0.1295
 IR Inten    --      0.3373                 0.9617                 2.4482

                     16                     17                     18
                      A                      A                      A
 Frequencies --    312.2308               334.3909               363.6929
 Red. masses --      3.3390                 3.5634                 3.5753
 Frc consts  --      0.1918                 0.2348                 0.2786
 IR Inten    --      0.4301                 2.1105                13.2684

                     19                     20                     21
                      A                      A                      A
 Frequencies --    394.0266               451.8859               495.4738
 Red. masses --      2.6217                 3.4328                 4.0812
 Frc consts  --      0.2398                 0.4130                 0.5903
 IR Inten    --      1.2258                 0.1362                 5.7571

                     22                     23                     24
                      A                      A                      A
 Frequencies --    511.5790               528.1346               530.0140
 Red. masses --      2.7240                 4.7044                 4.2743
 Frc consts  --      0.4200                 0.7731                 0.7074
 IR Inten    --      5.1439                 3.5909                 9.8138

                     25                     26                     27
                      A                      A                      A
 Frequencies --    574.3850               579.5401               593.4884
 Red. masses --      3.8939                 3.4003                 4.4514
 Frc consts  --      0.7569                 0.6729                 0.9238
 IR Inten    --      2.1186                 8.7593                 5.6040

                     28                     29                     30
                      A                      A                      A
 Frequencies --    621.0495               687.2849               735.1571
 Red. masses --      5.2651                 3.5704                 3.6577
 Frc consts  --      1.1965                 0.9937                 1.1647
 IR Inten    --      9.9859                 9.0528                 0.8468

                     31                     32                     33
                      A                      A                      A
 Frequencies --    757.8202               768.3398               802.7849
 Red. masses --      3.2958                 1.3400                 1.5463
 Frc consts  --      1.1152                 0.4661                 0.5872
 IR Inten    --      1.2003                51.1109                 5.4155

                     34                     35                     36
                      A                      A                      A
 Frequencies --    812.8108               861.3722               873.2636
 Red. masses --      5.0972                 1.4754                 2.7269
 Frc consts  --      1.9841                 0.6450                 1.2252
 IR Inten    --     13.9767                 0.7903                 2.5386

                     37                     38                     39
                      A                      A                      A
 Frequencies --    888.2299               914.4745               929.0622
 Red. masses --      2.3036                 1.6896                 2.2748
 Frc consts  --      1.0708                 0.8325                 1.1569
 IR Inten    --      3.7087                 2.2312                 5.3848

                     40                     41                     42
                      A                      A                      A
 Frequencies --    946.1303               978.7912              1015.5950
 Red. masses --      1.3761                 1.2516                 1.9899
 Frc consts  --      0.7258                 0.7065                 1.2093
 IR Inten    --      2.1581                 0.2666                 7.3595

                     43                     44                     45
                      A                      A                      A
 Frequencies --   1045.3618              1058.4902              1073.1048
 Red. masses --      2.0544                 3.2266                 3.2872
 Frc consts  --      1.3227                 2.1299                 2.2303
 IR Inten    --      3.0569                13.8426                 8.5608

                     46                     47                     48
                      A                      A                      A
 Frequencies --   1078.0293              1086.5325              1104.9197
 Red. masses --      3.0753                 2.4795                 2.7828
 Frc consts  --      2.1057                 1.7247                 2.0017
 IR Inten    --     39.6560                22.6313                 4.6538

                     49                     50                     51
                      A                      A                      A
 Frequencies --   1122.3766              1142.7899              1149.4691
 Red. masses --      1.8769                 2.8731                 2.5472
 Frc consts  --      1.3931                 2.2107                 1.9829
 IR Inten    --      5.7061                93.1385                 8.1923

                     52                     53                     54
                      A                      A                      A
 Frequencies --   1177.0952              1186.7793              1198.7467
 Red. masses --      2.8857                 1.2705                 1.0988
 Frc consts  --      2.3557                 1.0543                 0.9303
 IR Inten    --    116.0707                 0.9201                 2.6990

                     55                     56                     57
                      A                      A                      A
 Frequencies --   1212.0888              1231.4961              1242.8532
 Red. masses --      1.6515                 1.6226                 2.1620
 Frc consts  --      1.4296                 1.4498                 1.9676
 IR Inten    --      2.6870                 7.2217                25.7103

                     58                     59                     60
                      A                      A                      A
 Frequencies --   1273.8945              1281.7038              1292.8410
 Red. masses --      1.1578                 1.2711                 3.2378
 Frc consts  --      1.1070                 1.2303                 3.1885
 IR Inten    --     12.0188                33.2041               147.1890

                     61                     62                     63
                      A                      A                      A
 Frequencies --   1305.9671              1312.2410              1327.0642
 Red. masses --      1.6369                 1.2120                 1.5148
 Frc consts  --      1.6449                 1.2296                 1.5718
 IR Inten    --     58.3582                 3.1445                24.7314

                     64                     65                     66
                      A                      A                      A
 Frequencies --   1345.6303              1367.3312              1383.4776
 Red. masses --      1.7341                 4.0623                 1.3832
 Frc consts  --      1.8500                 4.4748                 1.5598
 IR Inten    --     27.5987                14.8120                59.0617

                     67                     68                     69
                      A                      A                      A
 Frequencies --   1395.1452              1401.8859              1417.3503
 Red. masses --      1.4366                 1.4600                 1.4031
 Frc consts  --      1.6475                 1.6906                 1.6607
 IR Inten    --     25.9026                 6.3063                 6.3035

                     70                     71                     72
                      A                      A                      A
 Frequencies --   1421.7130              1446.6027              1485.7546
 Red. masses --      1.4831                 1.2682                 1.7034
 Frc consts  --      1.7663                 1.5636                 2.2154
 IR Inten    --     12.6182                 7.4212                54.1669

                     73                     74                     75
                      A                      A                      A
 Frequencies --   1492.0583              1500.1765              1508.2185
 Red. masses --      1.4169                 1.0993                 1.1342
 Frc consts  --      1.8585                 1.4577                 1.5201
 IR Inten    --     34.1362                 7.0786                 5.4425

                     76                     77                     78
                      A                      A                      A
 Frequencies --   1512.0907              1516.4398              1520.8773
 Red. masses --      1.7767                 1.1302                 1.0482
 Frc consts  --      2.3934                 1.5313                 1.4285
 IR Inten    --      4.5799                 4.3633                 5.5741

                     79                     80                     81
                      A                      A                      A
 Frequencies --   1526.9100              1533.9563              1537.6899
 Red. masses --      1.0558                 1.1647                 1.0612
 Frc consts  --      1.4503                 1.6146                 1.4784
 IR Inten    --      9.5672                62.3362                 4.8860

                     82                     83                     84
                      A                      A                      A
 Frequencies --   1547.7432              1551.5076              1651.5989
 Red. masses --      1.3635                 1.8717                 6.4393
 Frc consts  --      1.9244                 2.6546                10.3490
 IR Inten    --     44.5799                20.6159                12.9564

                     85                     86                     87
                      A                      A                      A
 Frequencies --   1665.2009              1766.1274              2997.8515
 Red. masses --      6.1015                10.3527                 1.0811
 Frc consts  --      9.9683                19.0260                 5.7246
 IR Inten    --     24.1199               327.7280                 8.6416

                     88                     89                     90
                      A                      A                      A
 Frequencies --   3003.2068              3030.9287              3031.5486
 Red. masses --      1.0729                 1.0345                 1.0636
 Frc consts  --      5.7013                 5.5992                 5.7592
 IR Inten    --     44.6515                54.2863                13.0549

                     91                     92                     93
                      A                      A                      A
 Frequencies --   3032.1440              3046.4231              3056.6788
 Red. masses --      1.0684                 1.0703                 1.0358
 Frc consts  --      5.7876                 5.8522                 5.7019
 IR Inten    --     40.7328                71.0281                17.1692

                     94                     95                     96
                      A                      A                      A
 Frequencies --   3067.0346              3091.8646              3118.3717
 Red. masses --      1.0999                 1.1068                 1.0943
 Frc consts  --      6.0962                 6.2340                 6.2699
 IR Inten    --     36.4448                37.0096                12.8166

                     97                     98                     99
                      A                      A                      A
 Frequencies --   3121.0125              3131.9415              3136.2679
 Red. masses --      1.1021                 1.1026                 1.0915
 Frc consts  --      6.3252                 6.3725                 6.3256
 IR Inten    --     46.1196                21.9108                14.0350

                    100                    101                    102
                      A                      A                      A
 Frequencies --   3144.7760              3161.0721              3190.3601
 Red. masses --      1.0949                 1.1005                 1.0865
 Frc consts  --      6.3797                 6.4791                 6.5155
 IR Inten    --     13.0237                20.5496                 4.1873

                    103                    104                    105
                      A                      A                      A
 Frequencies --   3207.9936              3229.5102              3233.9251
 Red. masses --      1.0926                 1.0914                 1.0929
 Frc consts  --      6.6249                 6.7067                 6.7342
 IR Inten    --     25.3828                13.6184                 3.1991

 - Thermochemistry -
 -------------------
 Temperature   298.150 Kelvin.  Pressure   1.00000 Atm.
 Atom     1 has atomic number  6 and mass  12.00000

 Molecular mass:   249.13649 amu.
 Principal axes and moments of inertia in atomic units:
                           1         2         3
     Eigenvalues --  2573.649656764.034778509.95644
           X            0.99990  -0.01436  -0.00052
           Y            0.01436   0.99988  -0.00645
           Z            0.00061   0.00644   0.99998
 This molecule is an asymmetric top.
 Rotational symmetry number  1.
 Warning -- assumption of classical behavior for rotation
           may cause significant error
 Rotational temperatures (Kelvin)      0.03365     0.01281     0.01018
 Rotational constants (GHZ):           0.70124     0.26681     0.21207
 Zero-point vibrational energy     831260.7 (Joules/Mol)
                                  198.67608 (Kcal/Mol)
 Warning -- explicit consideration of  27 degrees of freedom as
           vibrations may cause significant error
 Vibrational temperatures:     37.84    45.72    93.75   104.72   115.84
          (Kelvin)            133.42   163.03   201.65   266.32   269.86
                              328.00   343.61   365.58   400.53   414.42
                              449.23   481.11   523.27   566.92   650.16
                              712.88   736.05   759.87   762.57   826.41
                              833.83   853.90   893.55   988.85  1057.73
                             1090.33  1105.47  1155.03  1169.45  1239.32
                             1256.43  1277.96  1315.72  1336.71  1361.27
                             1408.26  1461.21  1504.04  1522.93  1543.96
                             1551.04  1563.28  1589.73  1614.85  1644.22
                             1653.83  1693.58  1707.51  1724.73  1743.93
                             1771.85  1788.19  1832.85  1844.09  1860.11
                             1879.00  1888.02  1909.35  1936.06  1967.28
                             1990.52  2007.30  2017.00  2039.25  2045.53
                             2081.34  2137.67  2146.74  2158.42  2169.99
                             2175.56  2181.82  2188.20  2196.88  2207.02
                             2212.39  2226.86  2232.27  2376.28  2395.85
                             2541.06  4313.24  4320.94  4360.83  4361.72
                             4362.58  4383.12  4397.88  4412.78  4448.50
                             4486.64  4490.44  4506.17  4512.39  4524.63
                             4548.08  4590.22  4615.59  4646.54  4652.90

 Zero-point correction=                           0.316610 (Hartree/Particle)
 Thermal correction to Energy=                    0.333916
 Thermal correction to Enthalpy=                  0.334860
 Thermal correction to Gibbs Free Energy=         0.270236
 Sum of electronic and zero-point Energies=           -825.105439
 Sum of electronic and thermal Energies=              -825.088134
 Sum of electronic and thermal Enthalpies=            -825.087190
 Sum of electronic and thermal Free Energies=         -825.151814

                     E (Thermal)             CV                S
                      KCal/Mol        Cal/Mol-Kelvin    Cal/Mol-Kelvin
 Total                  209.535             65.340            136.013
 Electronic               0.000              0.000              0.000
 Translational            0.889              2.981             42.439
 Rotational               0.889              2.981             33.360
 Vibrational            207.758             59.378             60.214
 Vibration     1          0.593              1.985              6.090
 Vibration     2          0.594              1.983              5.715
 Vibration     3          0.597              1.971              4.295
 Vibration     4          0.599              1.967              4.077
 Vibration     5          0.600              1.962              3.878
 Vibration     6          0.602              1.954              3.602
 Vibration     7          0.607              1.938              3.211
 Vibration     8          0.615              1.913              2.802
 Vibration     9          0.631              1.860              2.276
 Vibration    10          0.632              1.857              2.252
 Vibration    11          0.651              1.798              1.895
 Vibration    12          0.657              1.781              1.812
 Vibration    13          0.665              1.756              1.702
 Vibration    14          0.679              1.713              1.544
 Vibration    15          0.685              1.696              1.485
 Vibration    16          0.701              1.650              1.350
 Vibration    17          0.716              1.607              1.239
 Vibration    18          0.737              1.547              1.106
 Vibration    19          0.761              1.483              0.985
 Vibration    20          0.811              1.357              0.790
 Vibration    21          0.851              1.260              0.670
 Vibration    22          0.867              1.224              0.630
 Vibration    23          0.883              1.188              0.591
 Vibration    24          0.885              1.184              0.587
 Vibration    25          0.931              1.087              0.496
 Vibration    26          0.936              1.076              0.486
 Vibration    27          0.951              1.046              0.461

                           ! Non-Optimized Parameters !
 Normal termination of Gaussian 16 at Fri Dec 11 23:26:38 2020.

 ----------------------------------------------------------------------
 # B3LYP/6-311++G(d,p) empiricaldispersion=gd3bj scf=xqc pop=npa geom=c
 heck
 ----------------------------------------------------------------------

 --------------------------------------
 CID_15006477_JID_8977_Energie_neutraal
 --------------------------------------
 Structure from the checkpoint file:  "JID_8977.chk"
 Charge =  0 Multiplicity = 1

 SCF Done:  E(RB3LYP) =  -825.651389795     A.U. after   15 cycles
 Normal termination of Gaussian 16 at Fri Dec 11 23:32:57 2020.

 ----------------------------------------------------------------------
 # B3LYP/6-311++G(d,p) empiricaldispersion=gd3bj scf=xqc pop=npa geom=c
 heck
 ----------------------------------------------------------------------

 ------------------------------------
 CID_15006477_JID_8977_Energie_kation
 ------------------------------------
 Structure from the checkpoint file:  "JID_8977.chk"
 Charge =  1 Multiplicity = 2

 SCF Done:  E(UB3LYP) =  -825.357066779     A.U. after   29 cycles
 Normal termination of Gaussian 16 at Fri Dec 11 23:49:22 2020.
 Gaussian 16:  ES64L-G16RevA.03 25-Dec-2016

 ----------------------------------------------------------------------
 # B3LYP/6-311++G(d,p) empiricaldispersion=gd3bj scf=xqc pop=npa geom=c
 heck
 ----------------------------------------------------------------------

 -----------------------------------
 CID_15006477_JID_8977_Energie_anion
 -----------------------------------
 Structure from the checkpoint file:  "JID_8977.chk"
 Charge = -1 Multiplicity = 2

                         Standard orientation:
 ---------------------------------------------------------------------
 Center     Atomic      Atomic             Coordinates (Angstroms)
 Number     Number       Type             X           Y           Z
 ---------------------------------------------------------------------
      1          6           0       -3.593884    1.933868   -0.673347
      2          6           0       -3.128340    1.916741    0.783863
      3          6           0       -2.983146    0.498784    1.351292
      4          7           0       -2.042147   -0.327218    0.598080
      5          6           0       -0.615569   -0.108815    0.821480
      6          6           0        0.207666   -0.660475   -0.341553
      7          8           0       -0.145742   -2.025077   -0.525900
      8          6           0       -1.483428   -2.143525   -0.973819
      9          6           0       -2.518805   -1.301837   -0.228244
     10          8           0       -3.712631   -1.505167   -0.431992
     11          6           0        1.688602   -0.555502   -0.074222
     12          6           0        2.443877   -1.665432    0.295036
     13          6           0        3.811792   -1.549494    0.555084
     14          6           0        4.428208   -0.307041    0.444700
     15          6           0        3.690211    0.821476    0.076819
     16          6           0        2.323046    0.696764   -0.178578
     17          8           0        1.509963    1.740396   -0.538029
     18          6           0        2.098399    3.018721   -0.714537
     19          1           0       -2.850246    1.463199   -1.325161
     20          1           0       -3.747988    2.959767   -1.025235
     21          1           0       -4.530203    1.379806   -0.794540
     22          1           0       -2.175095    2.455489    0.876289
     23          1           0       -3.844828    2.455289    1.418047
     24          1           0       -2.643748    0.539380    2.394678
     25          1           0       -3.944520   -0.017547    1.321867
     26          1           0       -0.292479   -0.598202    1.751090
     27          1           0       -0.430356    0.964332    0.917214
     28          1           0       -0.042727   -0.086413   -1.247913
     29          1           0       -1.769340   -3.192447   -0.868928
     30          1           0       -1.563187   -1.877816   -2.040758
     31          1           0        1.946013   -2.625852    0.361914
     32          1           0        4.387200   -2.425467    0.838265
     33          1           0        5.491248   -0.202626    0.642679
     34          1           0        4.184333    1.782057   -0.006344
     35          1           0        2.868580    3.000064   -1.495965
     36          1           0        1.287276    3.681856   -1.019497
     37          1           0        2.540595    3.389046    0.219271
 ---------------------------------------------------------------------

 SCF Done:  E(UB3LYP) =  -825.642010196     A.U. after   33 cycles
 SCF Done:  E(UB3LYP) =  -825.642010196     a.u. after    1 cycles

 The electronic state is 2-A.
 Alpha  occ. eigenvalues --  -19.06625 -19.05594 -19.00332 -14.26285 -10.18816
 Alpha  occ. eigenvalues --  -10.15267 -10.14959 -10.14952 -10.12507 -10.12335
 Alpha  occ. eigenvalues --  -10.11776 -10.09598 -10.08937 -10.08827 -10.08472
 Alpha  occ. eigenvalues --  -10.08335 -10.08308 -10.06876  -0.98267  -0.97939
 Alpha  occ. eigenvalues --   -0.95122  -0.85781  -0.77372  -0.71329  -0.69996
 Alpha  occ. eigenvalues --   -0.66644  -0.65353  -0.63616  -0.60689  -0.59659
 Alpha  occ. eigenvalues --   -0.56849  -0.52333  -0.50809  -0.49967  -0.46125
 Alpha  occ. eigenvalues --   -0.45074  -0.44426  -0.41882  -0.40079  -0.39498
 Alpha  occ. eigenvalues --   -0.38308  -0.38172  -0.37669  -0.37315  -0.36128
 Alpha  occ. eigenvalues --   -0.35520  -0.34648  -0.33104  -0.32905  -0.32519
 Alpha  occ. eigenvalues --   -0.32333  -0.30572  -0.29256  -0.28815  -0.27496
 Alpha  occ. eigenvalues --   -0.27447  -0.26715  -0.26434  -0.25393  -0.25102
 Alpha  occ. eigenvalues --   -0.23979  -0.23544  -0.20751  -0.16864  -0.16751
 Alpha  occ. eigenvalues --   -0.16152  -0.13949   0.03952
 Alpha virt. eigenvalues --    0.05920   0.06550   0.06931   0.07262   0.07635
 Alpha virt. eigenvalues --    0.08113   0.08437   0.08662   0.09210   0.09299
 Alpha virt. eigenvalues --    0.09806   0.10213   0.10362   0.11271   0.11743

  Beta  occ. eigenvalues --  -19.06616 -19.05591 -19.00325 -14.26288 -10.18805
  Beta  occ. eigenvalues --  -10.15264 -10.14957 -10.14953 -10.12495 -10.12266
  Beta  occ. eigenvalues --  -10.11769 -10.09598 -10.08925 -10.08823 -10.08451
  Beta  occ. eigenvalues --  -10.08330 -10.08286 -10.06861  -0.98253  -0.97926
  Beta  occ. eigenvalues --   -0.95109  -0.85776  -0.77359  -0.71313  -0.69970
  Beta  occ. eigenvalues --   -0.66615  -0.65330  -0.63596  -0.60620  -0.59632
  Beta  occ. eigenvalues --   -0.56828  -0.52293  -0.50762  -0.49935  -0.46106
  Beta  occ. eigenvalues --   -0.45035  -0.44415  -0.41850  -0.40053  -0.39473
  Beta  occ. eigenvalues --   -0.38284  -0.38143  -0.37631  -0.37284  -0.36112
  Beta  occ. eigenvalues --   -0.35491  -0.34626  -0.33078  -0.32872  -0.32501
  Beta  occ. eigenvalues --   -0.32303  -0.30555  -0.29225  -0.28791  -0.27465
  Beta  occ. eigenvalues --   -0.27420  -0.26686  -0.26403  -0.25375  -0.25076
  Beta  occ. eigenvalues --   -0.23943  -0.23516  -0.20739  -0.16854  -0.16740
  Beta  occ. eigenvalues --   -0.16139  -0.13936
  Beta virt. eigenvalues --    0.06077   0.06541   0.06965   0.07314   0.07425
  Beta virt. eigenvalues --    0.08003   0.08435   0.08617   0.08762   0.09459
  Beta virt. eigenvalues --    0.09749   0.10128   0.10674   0.10769   0.11392

 Mulliken charges and spin densities:
               1          2
     1  C    0.031069  -0.559340
     2  C   -0.014924  -0.100090
     3  C   -0.030486  -0.253070
     4  N    0.196587   0.032034
     5  C   -0.148276  -0.460367
     6  C    0.273354  -0.762662
     7  O   -0.009862  -0.003201
     8  C    0.069172  -0.165539
     9  C    0.005949   0.015832
    10  O   -0.352315   0.004968
    11  C    0.313443   0.584309
    12  C   -0.630595   0.331046
    13  C    0.070431  -0.565102
    14  C    0.879337  -1.396906
    15  C    0.196089  -0.372811
    16  C   -1.459245   1.333162
    17  O   -0.176641   0.068738
    18  C    1.509761  -1.776012
    19  H    0.093125   0.068916
    20  H   -0.192755   0.334788
    21  H    0.176481  -0.030492
    22  H   -0.084583   0.224902
    23  H   -0.244943   0.400302
    24  H   -0.107347   0.248453
    25  H    0.172353   0.035789
    26  H   -0.004020   0.187903
    27  H    0.404403  -0.218637
    28  H    0.146783   0.118678
    29  H    0.193414   0.014593
    30  H    0.135348   0.057524
    31  H    0.103226   0.083522
    32  H   -0.000957   0.155207
    33  H   -0.502891   0.668608
    34  H   -0.410304   0.605915
    35  H   -0.383022   0.527289
    36  H   -0.642105   0.822892
    37  H   -0.575053   0.738862
 Sum of Mulliken charges =  -1.00000   1.00000

 Dipole moment (field-independent basis, Debye):
    X=             -3.5065    Y=             -7.8328    Z=              0.4225  Tot=              8.5922
 Quadrupole moment (field-independent basis, Debye-Ang):
   XX=           -202.9218   YY=           -174.7113   ZZ=           -138.7333
   XY=            -14.4786   XZ=             -0.8394   YZ=              1.5918

 Summary of Natural Population Analysis:

                                       Natural Population
                Natural  -----------------------------------------------
    Atom  No    Charge         Core      Valence    Rydberg      Total
 -----------------------------------------------------------------------
      C    1   -0.28831      0.99967     2.28259    0.00605     3.28831
      C    2   -0.19566      0.99964     2.18836    0.00767     3.19566
      C    3   -0.08630      0.99961     2.07555    0.01115     3.08630
      N    4   -0.25173      0.99963     2.74187    0.01023     3.75173
      C    5   -0.08780      0.99957     2.07816    0.01007     3.08780
      C    6    0.05511      0.99951     1.92995    0.01544     2.94489
      O    7   -0.29726      0.99988     3.28885    0.00853     4.29726
      C    8   -0.04665      0.99955     2.03500    0.01209     3.04665
      C    9    0.33196      0.99964     1.64689    0.02151     2.66804
      O   10   -0.33074      0.99988     3.32526    0.00560     4.33074
      C   11   -0.04904      0.99945     2.03725    0.01234     3.04904
      C   12   -0.09092      0.99952     2.08282    0.00859     3.09092
      C   13   -0.11608      0.99956     2.10717    0.00935     3.11608
      C   14   -0.09119      0.99957     2.08084    0.01077     3.09119
      C   15   -0.13822      0.99952     2.12925    0.00945     3.13822
      C   16    0.16822      0.99934     1.81939    0.01306     2.83178
      O   17   -0.27794      0.99986     3.26784    0.01024     4.27794
      C   18   -0.10002      0.99960     2.09125    0.00917     3.10002
      H   19    0.09791      0.00000     0.40094    0.00115     0.40209
      H   20    0.10036      0.00000     0.39884    0.00080     0.39964
      H   21    0.09993      0.00000     0.39924    0.00083     0.40007
      H   22    0.09792      0.00000     0.40040    0.00167     0.40208
      H   23    0.09782      0.00000     0.40109    0.00108     0.40218
      H   24    0.09558      0.00000     0.40350    0.00092     0.40442
      H   25    0.11087      0.00000     0.38790    0.00123     0.38913
      H   26    0.09505      0.00000     0.40373    0.00121     0.40495
      H   27    0.11084      0.00000     0.38720    0.00196     0.38916
      H   28    0.09480      0.00000     0.40288    0.00232     0.40520
      H   29    0.10262      0.00000     0.39626    0.00112     0.39738
      H   30    0.09168      0.00000     0.40689    0.00142     0.40832
      H   31    0.10959      0.00000     0.38915    0.00126     0.39041
      H   32    0.09963      0.00000     0.39960    0.00076     0.40037
      H   33    0.10216      0.00000     0.39668    0.00117     0.39784
      H   34    0.11195      0.00000     0.38588    0.00217     0.38805
      H   35    0.08681      0.00000     0.41074    0.00245     0.41319
      H   36    0.09862      0.00000     0.39914    0.00224     0.40138
      H   37    0.08843      0.00000     0.40845    0.00313     0.41157
 =======================================================================
   * Total *   -0.00000     17.99299    48.78681    0.22020    67.00000

 Normal termination of Gaussian 16 at Sat Dec 12 00:08:03 2020.
