 Gaussian 16, Revision A.03,

 -----------------------------------------------------------
 # opt freq B3LYP/6-31G(d) empiricaldispersion=gd3bj scf=xqc
 -----------------------------------------------------------

 ------------------------------
 CID_79673503_JID_3647_neutraal
 ------------------------------
 Symbolic Z-matrix:
 Charge =  0 Multiplicity = 1

 SCF Done:  E(RB3LYP) =  -972.558027379     A.U. after   15 cycles
 SCF Done:  E(RB3LYP) =  -972.565308542     A.U. after   12 cycles
 SCF Done:  E(RB3LYP) =  -972.567318560     A.U. after   12 cycles
 SCF Done:  E(RB3LYP) =  -972.567977771     A.U. after   13 cycles
 SCF Done:  E(RB3LYP) =  -972.568800578     A.U. after   12 cycles
 SCF Done:  E(RB3LYP) =  -972.569013158     A.U. after   12 cycles
 SCF Done:  E(RB3LYP) =  -972.569244480     A.U. after   12 cycles
 SCF Done:  E(RB3LYP) =  -972.569284951     A.U. after   12 cycles
 SCF Done:  E(RB3LYP) =  -972.569358654     A.U. after   11 cycles
 SCF Done:  E(RB3LYP) =  -972.569381276     A.U. after   11 cycles
 SCF Done:  E(RB3LYP) =  -972.569859259     A.U. after    9 cycles
 SCF Done:  E(RB3LYP) =  -972.569858648     A.U. after   11 cycles
 SCF Done:  E(RB3LYP) =  -972.569859758     A.U. after   10 cycles
 SCF Done:  E(RB3LYP) =  -972.569859865     A.U. after    8 cycles
 SCF Done:  E(RB3LYP) =  -972.569859808     A.U. after    8 cycles
 Optimization completed.
    -- Stationary point found.
 Normal termination of Gaussian 16 at Wed Dec  9 23:29:35 2020.

 --------------------------------------------------------------------
 #N Geom=AllCheck Guess=TCheck SCRF=Check GenChk RB3LYP/6-31G(d) Freq
 --------------------------------------------------------------------

 Structure from the checkpoint file:  "JID_3647.chk"
 ------------------------------
 CID_79673503_JID_3647_neutraal
 ------------------------------
 Charge =  0 Multiplicity = 1

 SCF Done:  E(RB3LYP) =  -972.569859808     A.U. after    1 cycles

  Exact polarizability: 125.786  -3.361 117.507  -4.019   1.015 101.143
 Approx polarizability: 157.865   3.068 184.696 -13.164   3.317 162.351

                      1                      2                      3
                      A                      A                      A
 Frequencies --     15.1812                44.6112                47.7538
 Red. masses --      4.2913                 2.8751                 3.3981
 Frc consts  --      0.0006                 0.0034                 0.0046
 IR Inten    --      1.2850                 1.7100                 1.7227

                      4                      5                      6
                      A                      A                      A
 Frequencies --     75.1104                83.5924               155.3346
 Red. masses --      2.8537                 3.1512                 1.2637
 Frc consts  --      0.0095                 0.0130                 0.0180
 IR Inten    --      1.9823                 2.1905                 1.0536

                      7                      8                      9
                      A                      A                      A
 Frequencies --    184.8421               204.4132               218.3420
 Red. masses --      2.7221                 3.5881                 2.6195
 Frc consts  --      0.0548                 0.0883                 0.0736
 IR Inten    --      1.7947                 3.6329                 2.0672

                     10                     11                     12
                      A                      A                      A
 Frequencies --    251.5805               283.4540               308.7486
 Red. masses --      3.6084                 2.2032                 4.2010
 Frc consts  --      0.1346                 0.1043                 0.2359
 IR Inten    --      0.9175                 2.7090                 1.2569

                     13                     14                     15
                      A                      A                      A
 Frequencies --    328.9143               336.6346               407.6033
 Red. masses --      2.7243                 3.8158                 2.3783
 Frc consts  --      0.1736                 0.2548                 0.2328
 IR Inten    --      2.4506                 5.0430                 0.7913

                     16                     17                     18
                      A                      A                      A
 Frequencies --    418.6617               453.4839               491.1862
 Red. masses --      3.4185                 5.1101                 2.8674
 Frc consts  --      0.3530                 0.6192                 0.4076
 IR Inten    --      4.5380                 6.5758                27.0234

                     19                     20                     21
                      A                      A                      A
 Frequencies --    511.4638               601.9113               633.3452
 Red. masses --      4.1359                 2.4404                 2.8063
 Frc consts  --      0.6375                 0.5209                 0.6632
 IR Inten    --     36.5777                 8.1691                82.9611

                     22                     23                     24
                      A                      A                      A
 Frequencies --    664.7697               718.4977               790.1191
 Red. masses --      2.6043                 3.2069                 3.0935
 Frc consts  --      0.6781                 0.9754                 1.1379
 IR Inten    --      3.6220                27.2358                12.8603

                     25                     26                     27
                      A                      A                      A
 Frequencies --    839.8219               847.0266               874.8053
 Red. masses --      2.5729                 1.6101                 2.3617
 Frc consts  --      1.0692                 0.6806                 1.0649
 IR Inten    --    164.1195                70.0919                29.8768

                     28                     29                     30
                      A                      A                      A
 Frequencies --    907.1651               932.6623               945.4893
 Red. masses --      1.5160                 2.3692                 2.2672
 Frc consts  --      0.7351                 1.2142                 1.1941
 IR Inten    --     16.5764                16.6364                 0.2625

                     31                     32                     33
                      A                      A                      A
 Frequencies --    954.0972               962.3915               987.1101
 Red. masses --      1.3638                 2.0937                 2.3518
 Frc consts  --      0.7314                 1.1425                 1.3502
 IR Inten    --     41.9754                 1.0613               117.2690

                     34                     35                     36
                      A                      A                      A
 Frequencies --   1026.2401              1033.8661              1053.1305
 Red. masses --      1.8088                 1.1028                 1.8102
 Frc consts  --      1.1224                 0.6945                 1.1829
 IR Inten    --      8.7758                16.2329                 8.8153

                     37                     38                     39
                      A                      A                      A
 Frequencies --   1078.8314              1098.1355              1114.0857
 Red. masses --      2.2343                 2.3209                 2.8399
 Frc consts  --      1.5322                 1.6490                 2.0768
 IR Inten    --      5.2100                63.6610                17.6543

                     40                     41                     42
                      A                      A                      A
 Frequencies --   1125.6482              1132.5055              1163.2648
 Red. masses --      2.5658                 2.4849                 1.3507
 Frc consts  --      1.9155                 1.8777                 1.0769
 IR Inten    --     60.5414                51.5611                 8.9061

                     43                     44                     45
                      A                      A                      A
 Frequencies --   1227.5503              1234.7730              1238.2452
 Red. masses --      1.2944                 1.5080                 1.5083
 Frc consts  --      1.1492                 1.3547                 1.3626
 IR Inten    --      4.3203                 0.3345                10.6747

                     46                     47                     48
                      A                      A                      A
 Frequencies --   1245.5199              1277.5612              1290.9841
 Red. masses --      2.1850                 1.5680                 1.4622
 Frc consts  --      1.9971                 1.5079                 1.4358
 IR Inten    --     40.7720                24.4393                 2.1312

                     49                     50                     51
                      A                      A                      A
 Frequencies --   1322.6299              1323.9997              1334.4596
 Red. masses --      1.3742                 2.1939                 1.2621
 Frc consts  --      1.4164                 2.2659                 1.3242
 IR Inten    --     11.2409                88.4827                 9.0365

                     52                     53                     54
                      A                      A                      A
 Frequencies --   1345.0816              1359.2504              1383.5257
 Red. masses --      1.7200                 1.2955                 1.3475
 Frc consts  --      1.8335                 1.4102                 1.5196
 IR Inten    --     52.6539                 2.1533                 2.7578

                     55                     56                     57
                      A                      A                      A
 Frequencies --   1439.4877              1463.8257              1484.5049
 Red. masses --      1.2566                 1.1322                 1.1508
 Frc consts  --      1.5341                 1.4294                 1.4943
 IR Inten    --      5.1100                 2.6745                 2.1323

                     58                     59                     60
                      A                      A                      A
 Frequencies --   1488.3498              1490.1805              1509.8591
 Red. masses --      1.1468                 1.1632                 1.0711
 Frc consts  --      1.4967                 1.5219                 1.4387
 IR Inten    --      8.5638                 8.7670                 0.4357

                     61                     62                     63
                      A                      A                      A
 Frequencies --   1522.6421              1528.6277              1539.0199
 Red. masses --      1.0669                 1.0708                 1.0781
 Frc consts  --      1.4574                 1.4743                 1.5046
 IR Inten    --      4.0056                 8.3630                 5.0312

                     64                     65                     66
                      A                      A                      A
 Frequencies --   1544.3652              1729.4280              3048.9077
 Red. masses --      1.0767                 4.3678                 1.0681
 Frc consts  --      1.5130                 7.6969                 5.8502
 IR Inten    --      7.2887                 2.8922                27.3195

                     67                     68                     69
                      A                      A                      A
 Frequencies --   3059.1181              3064.7037              3072.4948
 Red. masses --      1.0461                 1.0631                 1.0647
 Frc consts  --      5.7678                 5.8831                 5.9221
 IR Inten    --     45.9484                35.4937                14.0190

                     70                     71                     72
                      A                      A                      A
 Frequencies --   3080.1774              3114.9670              3116.8847
 Red. masses --      1.0604                 1.1010                 1.0960
 Frc consts  --      5.9274                 6.2942                 6.2735
 IR Inten    --      4.5100                31.2526                13.9916

                     73                     74                     75
                      A                      A                      A
 Frequencies --   3124.7536              3135.4226              3146.9645
 Red. masses --      1.1035                 1.0962                 1.1043
 Frc consts  --      6.3480                 6.3494                 6.4436
 IR Inten    --     37.4532                17.4306                 1.3200

                     76                     77                     78
                      A                      A                      A
 Frequencies --   3162.5970              3164.5236              3187.1439
 Red. masses --      1.0869                 1.0595                 1.1003
 Frc consts  --      6.4054                 6.2514                 6.5852
 IR Inten    --      7.8507                 5.6134                 8.1861

                     79                     80                     81
                      A                      A                      A
 Frequencies --   3189.8746              3248.0715              3475.8717
 Red. masses --      1.0927                 1.1161                 1.0745
 Frc consts  --      6.5511                 6.9373                 7.6488
 IR Inten    --      3.0892                12.7283                 1.3861

 - Thermochemistry -
 -------------------
 Temperature   298.150 Kelvin.  Pressure   1.00000 Atm.
 Atom     1 has atomic number  6 and mass  12.00000

 Molecular mass:   204.09325 amu.
 Principal axes and moments of inertia in atomic units:
                           1         2         3
     Eigenvalues --  1524.591273823.715034395.27603
           X            0.99966  -0.02554   0.00435
           Y            0.02553   0.99967   0.00152
           Z           -0.00438  -0.00141   0.99999
 This molecule is an asymmetric top.
 Rotational symmetry number  1.
 Warning -- assumption of classical behavior for rotation
           may cause significant error
 Rotational temperatures (Kelvin)      0.05681     0.02265     0.01971
 Rotational constants (GHZ):           1.18375     0.47199     0.41061
 Zero-point vibrational energy     652097.4 (Joules/Mol)
                                  155.85503 (Kcal/Mol)
 Warning -- explicit consideration of  20 degrees of freedom as
           vibrations may cause significant error
 Vibrational temperatures:     21.84    64.19    68.71   108.07   120.27
          (Kelvin)            223.49   265.95   294.10   314.15   361.97
                              407.83   444.22   473.23   484.34   586.45
                              602.36   652.46   706.71   735.88   866.02
                              911.24   956.46  1033.76  1136.81  1208.32
                             1218.68  1258.65  1305.21  1341.89  1360.35
                             1372.73  1384.67  1420.23  1476.53  1487.50
                             1515.22  1552.20  1579.97  1602.92  1619.56
                             1629.42  1673.68  1766.17  1776.56  1781.56
                             1792.03  1838.13  1857.44  1902.97  1904.94
                             1919.99  1935.27  1955.66  1990.58  2071.10
                             2106.12  2135.87  2141.40  2144.04  2172.35
                             2190.74  2199.35  2214.31  2222.00  2488.26
                             4386.70  4401.39  4409.43  4420.63  4431.69
                             4481.74  4484.50  4495.82  4511.17  4527.78
                             4550.27  4553.04  4585.59  4589.52  4673.25
                             5001.00

 Zero-point correction=                           0.248371 (Hartree/Particle)
 Thermal correction to Energy=                    0.262556
 Thermal correction to Enthalpy=                  0.263500
 Thermal correction to Gibbs Free Energy=         0.205378
 Sum of electronic and zero-point Energies=           -972.321489
 Sum of electronic and thermal Energies=              -972.307304
 Sum of electronic and thermal Enthalpies=            -972.306360
 Sum of electronic and thermal Free Energies=         -972.364481

                     E (Thermal)             CV                S
                      KCal/Mol        Cal/Mol-Kelvin    Cal/Mol-Kelvin
 Total                  164.756             52.184            122.327
 Electronic               0.000              0.000              0.000
 Translational            0.889              2.981             41.845
 Rotational               0.889              2.981             31.616
 Vibrational            162.979             46.222             48.866
 Vibration     1          0.593              1.986              7.182
 Vibration     2          0.595              1.980              5.043
 Vibration     3          0.595              1.978              4.908
 Vibration     4          0.599              1.966              4.015
 Vibration     5          0.600              1.960              3.805
 Vibration     6          0.620              1.897              2.606
 Vibration     7          0.631              1.861              2.279
 Vibration     8          0.640              1.834              2.093
 Vibration     9          0.646              1.813              1.973
 Vibration    10          0.664              1.760              1.719
 Vibration    11          0.682              1.704              1.513
 Vibration    12          0.698              1.657              1.369
 Vibration    13          0.712              1.618              1.265
 Vibration    14          0.717              1.602              1.228
 Vibration    15          0.772              1.454              0.935
 Vibration    16          0.782              1.430              0.897
 Vibration    17          0.812              1.353              0.785
 Vibration    18          0.847              1.270              0.681
 Vibration    19          0.867              1.225              0.630
 Vibration    20          0.960              1.028              0.446

 Optimization completed.
    -- Stationary point found.
 Normal termination of Gaussian 16 at Wed Dec  9 23:37:31 2020.

 ----------------------------------------------------------------------
 # B3LYP/6-311++G(d,p) empiricaldispersion=gd3bj scf=xqc pop=npa geom=c
 heck
 ----------------------------------------------------------------------

 --------------------------------------
 CID_79673503_JID_3647_Energie_neutraal
 --------------------------------------
 Structure from the checkpoint file:  "JID_3647.chk"
 Charge =  0 Multiplicity = 1

 SCF Done:  E(RB3LYP) =  -972.766590492     A.U. after   15 cycles
 Normal termination of Gaussian 16 at Wed Dec  9 23:40:51 2020.

 ----------------------------------------------------------------------
 # B3LYP/6-311++G(d,p) empiricaldispersion=gd3bj scf=xqc pop=npa geom=c
 heck
 ----------------------------------------------------------------------

 ------------------------------------
 CID_79673503_JID_3647_Energie_kation
 ------------------------------------
 Structure from the checkpoint file:  "JID_3647.chk"
 Charge =  1 Multiplicity = 2

 SCF Done:  E(UB3LYP) =  -972.455502593     A.U. after   26 cycles
 Normal termination of Gaussian 16 at Wed Dec  9 23:48:31 2020.
 Gaussian 16:  ES64L-G16RevA.03 25-Dec-2016

 ----------------------------------------------------------------------
 # B3LYP/6-311++G(d,p) empiricaldispersion=gd3bj scf=xqc pop=npa geom=c
 heck
 ----------------------------------------------------------------------

 -----------------------------------
 CID_79673503_JID_3647_Energie_anion
 -----------------------------------
 Structure from the checkpoint file:  "JID_3647.chk"
 Charge = -1 Multiplicity = 2

                         Standard orientation:
 ---------------------------------------------------------------------
 Center     Atomic      Atomic             Coordinates (Angstroms)
 Number     Number       Type             X           Y           Z
 ---------------------------------------------------------------------
      1          6           0        0.132246    0.556643    1.601346
      2          7           0        0.054364    0.088884    0.212626
      3          6           0        1.323020   -0.146438   -0.502632
      4          6           0        2.386408   -0.978152    0.267931
      5          6           0        3.490186    0.046279    0.596761
      6          7           0        3.473531    1.028363   -0.500785
      7          6           0        2.051902    1.197714   -0.824669
      8         16           0       -1.211979   -0.987623   -0.103275
      9          8           0       -0.774935   -1.931101   -1.139723
     10          8           0       -1.766214   -1.464850    1.169712
     11          6           0       -2.465166    0.092531   -0.877088
     12          6           0       -2.979991    1.134424    0.062456
     13          6           0       -2.691236    2.431437   -0.047110
     14          1           0        0.818598    1.405755    1.633952
     15          1           0        0.483888   -0.216692    2.293713
     16          1           0       -0.847624    0.899794    1.929411
     17          1           0        1.054210   -0.658293   -1.424160
     18          1           0        2.781466   -1.758984   -0.390814
     19          1           0        1.968268   -1.479604    1.145413
     20          1           0        3.262636    0.571245    1.533526
     21          1           0        4.485987   -0.393488    0.701420
     22          1           0        3.941001    0.610901   -1.304739
     23          1           0        1.927263    1.495476   -1.869487
     24          1           0        1.633367    2.003529   -0.210761
     25          1           0       -1.980677    0.521010   -1.757732
     26          1           0       -3.247667   -0.602982   -1.199952
     27          1           0       -3.600866    0.773206    0.879141
     28          1           0       -3.078496    3.162294    0.656747
     29          1           0       -2.059990    2.809054   -0.848043
 ---------------------------------------------------------------------

 SCF Done:  E(UB3LYP) =  -972.754978444     A.U. after   33 cycles
 SCF Done:  E(UB3LYP) =  -972.754985520     a.u. after    4 cycles

 The electronic state is 2-A.
 Alpha  occ. eigenvalues --  -88.96624 -19.02484 -19.02457 -14.25092 -14.19948
 Alpha  occ. eigenvalues --  -10.12264 -10.11274 -10.10819 -10.09978 -10.09412
 Alpha  occ. eigenvalues --  -10.09158 -10.08619 -10.07005  -8.02850  -5.99126
 Alpha  occ. eigenvalues --   -5.99108  -5.98908  -1.02490  -0.91675  -0.84825
 Alpha  occ. eigenvalues --   -0.81478  -0.72950  -0.66365  -0.64610  -0.63127
 Alpha  occ. eigenvalues --   -0.60440  -0.52894  -0.50921  -0.48881  -0.45997
 Alpha  occ. eigenvalues --   -0.43925  -0.41474  -0.40800  -0.39347  -0.39056
 Alpha  occ. eigenvalues --   -0.37070  -0.35376  -0.34535  -0.33314  -0.32754
 Alpha  occ. eigenvalues --   -0.31654  -0.31087  -0.29836  -0.28091  -0.27910
 Alpha  occ. eigenvalues --   -0.26378  -0.25604  -0.25290  -0.24091  -0.22995
 Alpha  occ. eigenvalues --   -0.22686  -0.21307  -0.18076  -0.16265  -0.13528
 Alpha  occ. eigenvalues --    0.04228
 Alpha virt. eigenvalues --    0.06111   0.06544   0.07184   0.07906   0.08221
 Alpha virt. eigenvalues --    0.09038   0.09590   0.10444   0.10993   0.11454
 Alpha virt. eigenvalues --    0.11675   0.12157   0.12862   0.13515   0.14147

  Beta  occ. eigenvalues --  -88.96624 -19.02480 -19.02450 -14.25091 -14.19923
  Beta  occ. eigenvalues --  -10.12246 -10.11269 -10.10795 -10.09967 -10.09390
  Beta  occ. eigenvalues --  -10.09128 -10.08573 -10.06988  -8.02849  -5.99125
  Beta  occ. eigenvalues --   -5.99107  -5.98907  -1.02479  -0.91663  -0.84808
  Beta  occ. eigenvalues --   -0.81441  -0.72919  -0.66327  -0.64570  -0.63077
  Beta  occ. eigenvalues --   -0.60397  -0.52852  -0.50841  -0.48801  -0.45961
  Beta  occ. eigenvalues --   -0.43895  -0.41420  -0.40758  -0.39309  -0.39027
  Beta  occ. eigenvalues --   -0.37038  -0.35337  -0.34501  -0.33279  -0.32719
  Beta  occ. eigenvalues --   -0.31618  -0.31057  -0.29802  -0.28045  -0.27868
  Beta  occ. eigenvalues --   -0.26336  -0.25578  -0.25258  -0.24062  -0.22981
  Beta  occ. eigenvalues --   -0.22663  -0.21296  -0.18030  -0.16250  -0.13500
  Beta virt. eigenvalues --    0.06543   0.06682   0.07235   0.07745   0.08447
  Beta virt. eigenvalues --    0.08940   0.09612   0.09813   0.10948   0.11339
  Beta virt. eigenvalues --    0.11977   0.12035   0.12381   0.13196   0.13787

 Mulliken charges and spin densities:
               1          2
     1  C    0.125506  -0.539581
     2  N    0.073355   0.057551
     3  C   -1.522037   1.203187
     4  C   -0.479033   0.141730
     5  C    0.889971  -1.294969
     6  N   -0.195718   0.167385
     7  C    1.153220  -1.806663
     8  S    0.655788  -0.395822
     9  O   -0.146740   0.004338
    10  O   -0.186051   0.018428
    11  C    0.608974  -1.382640
    12  C   -1.454489   1.817708
    13  C    1.261119  -1.780124
    14  H   -0.044799   0.188808
    15  H   -0.021482   0.220982
    16  H    0.307124  -0.114778
    17  H    0.030930   0.194442
    18  H   -0.268026   0.435780
    19  H    0.200524  -0.057097
    20  H   -0.046855   0.192239
    21  H   -0.291369   0.486251
    22  H   -0.110101   0.358358
    23  H   -0.421540   0.611105
    24  H   -0.000719   0.178609
    25  H   -0.314483   0.573007
    26  H    0.214107   0.004968
    27  H   -0.229660   0.434542
    28  H   -0.551859   0.688811
    29  H   -0.235655   0.393445
 Sum of Mulliken charges =  -1.00000   1.00000

 Dipole moment (field-independent basis, Debye):
    X=             -2.5260    Y=             -2.6552    Z=              2.3234  Tot=              4.3392
 Quadrupole moment (field-independent basis, Debye-Ang):
   XX=           -156.9004   YY=           -139.0849   ZZ=           -124.3741
   XY=              5.0698   XZ=              9.4509   YZ=              2.1496

 Summary of Natural Population Analysis:

                                       Natural Population
                Natural  -----------------------------------------------
    Atom  No    Charge         Core      Valence    Rydberg      Total
 -----------------------------------------------------------------------
      C    1   -0.18171      0.99962     2.17270    0.00939     3.18171
      N    2   -0.37514      0.99972     2.85998    0.01544     3.87514
      C    3   -0.02127      0.99956     2.00576    0.01595     3.02127
      C    4   -0.21157      0.99961     2.20332    0.00863     3.21157
      C    5   -0.09163      0.99964     2.08110    0.01089     3.09163
      N    6   -0.33380      0.99977     2.82108    0.01295     3.83380
      C    7   -0.09253      0.99961     2.08057    0.01235     3.09253
      S    8    1.10036      4.99924     1.80177    0.09864     6.89964
      O    9   -0.46256      0.99991     3.45735    0.00530     4.46256
      O   10   -0.46587      0.99991     3.46068    0.00528     4.46587
      C   11   -0.29829      0.99955     2.28491    0.01383     3.29829
      C   12   -0.11028      0.99956     2.09881    0.01191     3.11028
      C   13   -0.16509      0.99955     2.15756    0.00799     3.16509
      H   14    0.10051      0.00000     0.39817    0.00131     0.39949
      H   15    0.09317      0.00000     0.40577    0.00106     0.40683
      H   16    0.10905      0.00000     0.38999    0.00096     0.39095
      H   17    0.11736      0.00000     0.38084    0.00180     0.38264
      H   18    0.10375      0.00000     0.39485    0.00140     0.39625
      H   19    0.10314      0.00000     0.39584    0.00102     0.39686
      H   20    0.08636      0.00000     0.41212    0.00153     0.41364
      H   21    0.09811      0.00000     0.40054    0.00134     0.40189
      H   22    0.17270      0.00000     0.32306    0.00424     0.32730
      H   23    0.10306      0.00000     0.39474    0.00220     0.39694
      H   24    0.09073      0.00000     0.40725    0.00202     0.40927
      H   25    0.11927      0.00000     0.37917    0.00156     0.38073
      H   26    0.11651      0.00000     0.38246    0.00103     0.38349
      H   27    0.10153      0.00000     0.39738    0.00109     0.39847
      H   28    0.09843      0.00000     0.39977    0.00180     0.40157
      H   29    0.09567      0.00000     0.40232    0.00201     0.40433
 =======================================================================
   * Total *    0.00000     16.99525    37.74984    0.25491    55.00000

 Normal termination of Gaussian 16 at Thu Dec 10 00:21:17 2020.
