 Gaussian 16, Revision A.03,

 -----------------------------------------------------------
 # opt freq B3LYP/6-31G(d) empiricaldispersion=gd3bj scf=xqc
 -----------------------------------------------------------

 -------------------------------
 CID_151881703_JID_1267_neutraal
 -------------------------------
 Symbolic Z-matrix:
 Charge =  0 Multiplicity = 1

 SCF Done:  E(RB3LYP) =  -526.397912507     A.U. after   17 cycles
 SCF Done:  E(RB3LYP) =  -526.406092895     A.U. after   16 cycles
 SCF Done:  E(RB3LYP) =  -526.406730931     A.U. after   16 cycles
 SCF Done:  E(RB3LYP) =  -526.408562795     A.U. after   14 cycles
 SCF Done:  E(RB3LYP) =  -526.409093973     A.U. after   14 cycles
 SCF Done:  E(RB3LYP) =  -526.409359190     A.U. after   13 cycles
 SCF Done:  E(RB3LYP) =  -526.409543595     A.U. after   14 cycles
 SCF Done:  E(RB3LYP) =  -526.409632557     A.U. after   13 cycles
 SCF Done:  E(RB3LYP) =  -526.409670324     A.U. after   13 cycles
 SCF Done:  E(RB3LYP) =  -526.409687944     A.U. after   12 cycles
 SCF Done:  E(RB3LYP) =  -526.409697585     A.U. after   12 cycles
 SCF Done:  E(RB3LYP) =  -526.409703223     A.U. after   12 cycles
 SCF Done:  E(RB3LYP) =  -526.409703944     A.U. after    9 cycles
 SCF Done:  E(RB3LYP) =  -526.409704080     A.U. after    9 cycles
 Optimization completed.
    -- Stationary point found.
 Normal termination of Gaussian 16 at Tue Dec  8 19:35:20 2020.

 --------------------------------------------------------------------
 #N Geom=AllCheck Guess=TCheck SCRF=Check GenChk RB3LYP/6-31G(d) Freq
 --------------------------------------------------------------------

 Structure from the checkpoint file:  "JID_1267.chk"
 -------------------------------
 CID_151881703_JID_1267_neutraal
 -------------------------------
 Charge =  0 Multiplicity = 1

 SCF Done:  E(RB3LYP) =  -526.409704080     A.U. after    1 cycles

  Exact polarizability: 116.943   6.409  85.663  -6.029   1.263  63.908
 Approx polarizability: 187.910   9.780 146.416   0.797  -2.990 114.327

                      1                      2                      3
                      A                      A                      A
 Frequencies --     27.8630                56.9853               111.6916
 Red. masses --      7.7514                 5.6305                 7.9542
 Frc consts  --      0.0035                 0.0108                 0.0585
 IR Inten    --      0.3763                 0.5508                 0.0344

                      4                      5                      6
                      A                      A                      A
 Frequencies --    119.8733               206.1398               274.7908
 Red. masses --      7.8201                 6.3491                 3.8927
 Frc consts  --      0.0662                 0.1590                 0.1732
 IR Inten    --      0.4535                 2.2664                 5.6174

                      7                      8                      9
                      A                      A                      A
 Frequencies --    352.6869               455.9980               463.6095
 Red. masses --      3.2610                 2.4349                 6.3123
 Frc consts  --      0.2390                 0.2983                 0.7994
 IR Inten    --     48.4395                24.9353                 4.2265

                     10                     11                     12
                      A                      A                      A
 Frequencies --    482.8777               525.1044               578.6473
 Red. masses --      3.7767                 6.7621                 3.0221
 Frc consts  --      0.5188                 1.0986                 0.5962
 IR Inten    --     89.3786                26.2808                11.5112

                     13                     14                     15
                      A                      A                      A
 Frequencies --    601.8142               626.3488               629.6729
 Red. masses --      5.4458                 4.5112                 4.5474
 Frc consts  --      1.1621                 1.0427                 1.0623
 IR Inten    --     11.3448                45.6903                 7.6302

                     16                     17                     18
                      A                      A                      A
 Frequencies --    723.7022               749.9156               825.7404
 Red. masses --      1.5604                 1.3973                 6.9806
 Frc consts  --      0.4815                 0.4630                 2.8043
 IR Inten    --     24.4434                31.9766                56.0873

                     19                     20                     21
                      A                      A                      A
 Frequencies --    873.6920               914.5935               923.2107
 Red. masses --      8.1504                 3.7700                 1.2768
 Frc consts  --      3.6656                 1.8580                 0.6412
 IR Inten    --     47.2483                37.7217                 7.1909

                     22                     23                     24
                      A                      A                      A
 Frequencies --    975.2426              1006.2841              1027.0259
 Red. masses --      1.3178                 2.5971                 2.6031
 Frc consts  --      0.7385                 1.5495                 1.6177
 IR Inten    --      3.6570                 3.8472                35.3773

                     25                     26                     27
                      A                      A                      A
 Frequencies --   1037.8421              1113.5477              1162.4648
 Red. masses --      3.5540                 5.7192                 1.4087
 Frc consts  --      2.2555                 4.1783                 1.1216
 IR Inten    --     14.5842               187.9362                22.4548

                     28                     29                     30
                      A                      A                      A
 Frequencies --   1202.3765              1257.8920              1280.0389
 Red. masses --      1.1084                 1.3165                 6.9207
 Frc consts  --      0.9441                 1.2273                 6.6811
 IR Inten    --      1.8161                66.5824               339.6442

                     31                     32                     33
                      A                      A                      A
 Frequencies --   1314.8560              1350.5783              1397.4543
 Red. masses --      1.8089                 1.3255                 1.3983
 Frc consts  --      1.8426                 1.4245                 1.6089
 IR Inten    --     11.5547                19.3315                 1.3990

                     34                     35                     36
                      A                      A                      A
 Frequencies --   1471.4141              1533.0843              1645.8978
 Red. masses --      1.8108                 1.7303                 4.6898
 Frc consts  --      2.3099                 2.3961                 7.4853
 IR Inten    --      3.9745                61.2044                42.7530

                     37                     38                     39
                      A                      A                      A
 Frequencies --   1718.7468              1811.9943              2292.4893
 Red. masses --      5.2993                13.1438                13.9866
 Frc consts  --      9.2234                25.4264                43.3088
 IR Inten    --     41.3196               190.1101               587.4824

                     40                     41                     42
                      A                      A                      A
 Frequencies --   3016.2278              3188.4785              3213.1273
 Red. masses --      1.0836                 1.0882                 1.0893
 Frc consts  --      5.8082                 6.5184                 6.6259
 IR Inten    --     24.4752                16.3477                 5.7474

                     43                     44                     45
                      A                      A                      A
 Frequencies --   3233.2024              3241.0745              3618.5311
 Red. masses --      1.0940                 1.0972                 1.0764
 Frc consts  --      6.7383                 6.7908                 8.3040
 IR Inten    --      9.6707                11.2770                27.6194

 - Thermochemistry -
 -------------------
 Temperature   298.150 Kelvin.  Pressure   1.00000 Atm.
 Atom     1 has atomic number  6 and mass  12.00000

 Molecular mass:   150.05416 amu.
 Principal axes and moments of inertia in atomic units:
                           1         2         3
     Eigenvalues --   760.485712413.541632737.82593
           X            0.99992  -0.00017  -0.01270
           Y            0.00033   0.99993   0.01192
           Z            0.01269  -0.01193   0.99985
 This molecule is an asymmetric top.
 Rotational symmetry number  1.
 Warning -- assumption of classical behavior for rotation
           may cause significant error
 Rotational temperatures (Kelvin)      0.11389     0.03589     0.03164
 Rotational constants (GHZ):           2.37314     0.74776     0.65919
 Zero-point vibrational energy     326788.9 (Joules/Mol)
                                   78.10441 (Kcal/Mol)
 Warning -- explicit consideration of  13 degrees of freedom as
           vibrations may cause significant error
 Vibrational temperatures:     40.09    81.99   160.70   172.47   296.59
          (Kelvin)            395.36   507.44   656.08   667.03   694.75
                              755.51   832.54   865.88   901.18   905.96
                             1041.25  1078.96  1188.06  1257.05  1315.90
                             1328.29  1403.16  1447.82  1477.66  1493.22
                             1602.15  1672.53  1729.95  1809.83  1841.69
                             1891.78  1943.18  2010.63  2117.04  2205.77
                             2368.08  2472.89  2607.06  3298.38  4339.68
                             4587.51  4622.97  4651.86  4663.18  5206.26

 Zero-point correction=                           0.124467 (Hartree/Particle)
 Thermal correction to Energy=                    0.134049
 Thermal correction to Enthalpy=                  0.134993
 Thermal correction to Gibbs Free Energy=         0.087964
 Sum of electronic and zero-point Energies=           -526.285237
 Sum of electronic and thermal Energies=              -526.275655
 Sum of electronic and thermal Enthalpies=            -526.274711
 Sum of electronic and thermal Free Energies=         -526.321741

                     E (Thermal)             CV                S
                      KCal/Mol        Cal/Mol-Kelvin    Cal/Mol-Kelvin
 Total                   84.117             34.865             98.982
 Electronic               0.000              0.000              0.000
 Translational            0.889              2.981             40.928
 Rotational               0.889              2.981             29.998
 Vibrational             82.339             28.903             28.056
 Vibration     1          0.593              1.984              5.976
 Vibration     2          0.596              1.975              4.559
 Vibration     3          0.607              1.940              3.239
 Vibration     4          0.609              1.933              3.102
 Vibration     5          0.641              1.831              2.078
 Vibration     6          0.677              1.720              1.566
 Vibration     7          0.729              1.570              1.154
 Vibration     8          0.814              1.348              0.778
 Vibration     9          0.821              1.331              0.756
 Vibration    10          0.839              1.288              0.702
 Vibration    11          0.880              1.194              0.598
 Vibration    12          0.935              1.077              0.488
 Vibration    13          0.960              1.028              0.447

 Optimization completed.
    -- Stationary point found.
 Normal termination of Gaussian 16 at Tue Dec  8 19:38:24 2020.

 ----------------------------------------------------------------------
 # B3LYP/6-311++G(d,p) empiricaldispersion=gd3bj scf=xqc pop=npa geom=c
 heck
 ----------------------------------------------------------------------

 ---------------------------------------
 CID_151881703_JID_1267_Energie_neutraal
 ---------------------------------------
 Structure from the checkpoint file:  "JID_1267.chk"
 Charge =  0 Multiplicity = 1

 SCF Done:  E(RB3LYP) =  -526.562657832     A.U. after   17 cycles
 Normal termination of Gaussian 16 at Tue Dec  8 19:39:38 2020.

 ----------------------------------------------------------------------
 # B3LYP/6-311++G(d,p) empiricaldispersion=gd3bj scf=xqc pop=npa geom=c
 heck
 ----------------------------------------------------------------------

 -------------------------------------
 CID_151881703_JID_1267_Energie_kation
 -------------------------------------
 Structure from the checkpoint file:  "JID_1267.chk"
 Charge =  1 Multiplicity = 2

 SCF Done:  E(UB3LYP) =  -526.286881664     A.U. after   20 cycles
 Normal termination of Gaussian 16 at Tue Dec  8 19:42:01 2020.
 Gaussian 16:  ES64L-G16RevA.03 25-Dec-2016

 ----------------------------------------------------------------------
 # B3LYP/6-311++G(d,p) empiricaldispersion=gd3bj scf=xqc pop=npa geom=c
 heck
 ----------------------------------------------------------------------

 ------------------------------------
 CID_151881703_JID_1267_Energie_anion
 ------------------------------------
 Structure from the checkpoint file:  "JID_1267.chk"
 Charge = -1 Multiplicity = 2

                         Standard orientation:
 ---------------------------------------------------------------------
 Center     Atomic      Atomic             Coordinates (Angstroms)
 Number     Number       Type             X           Y           Z
 ---------------------------------------------------------------------
      1          6           0        2.447472    0.701092   -0.683833
      2          6           0        1.647387    1.265862    0.238633
      3          6           0        0.591821    0.427910    0.926335
      4          7           0        1.020987   -0.959454    0.987435
      5          6           0        1.702362   -1.502388   -0.085749
      6          6           0        2.403281   -0.725222   -0.943118
      7          6           0       -0.783277    0.627334    0.238494
      8          8           0       -1.172789    1.668033   -0.231945
      9          7           0       -1.569813   -0.579209    0.295122
     10          7           0       -2.704573   -0.470490   -0.210190
     11          7           0       -3.747204   -0.447761   -0.653719
     12          1           0        3.169108    1.311704   -1.220540
     13          1           0        1.672504    2.325555    0.462067
     14          1           0        0.432117    0.783418    1.954968
     15          1           0        0.381016   -1.578035    1.465815
     16          1           0        1.692528   -2.586089   -0.141145
     17          1           0        2.984988   -1.169942   -1.740720
 ---------------------------------------------------------------------

 SCF Done:  E(UB3LYP) =  -526.559728035     A.U. after   33 cycles
 SCF Done:  E(UB3LYP) =  -526.559728045     a.u. after    2 cycles

 The electronic state is 2-A.
 Alpha  occ. eigenvalues --  -18.99455 -14.31738 -14.23736 -14.22696 -14.21668
 Alpha  occ. eigenvalues --  -10.16102 -10.11315 -10.09420 -10.06447 -10.05837
 Alpha  occ. eigenvalues --  -10.04333  -1.00225  -0.93766  -0.83914  -0.82984
 Alpha  occ. eigenvalues --   -0.68601  -0.66351  -0.57755  -0.53073  -0.50097
 Alpha  occ. eigenvalues --   -0.44026  -0.40849  -0.38085  -0.37425  -0.36485
 Alpha  occ. eigenvalues --   -0.35017  -0.33598  -0.33378  -0.32266  -0.31267
 Alpha  occ. eigenvalues --   -0.27746  -0.25300  -0.23957  -0.23198  -0.20943
 Alpha  occ. eigenvalues --   -0.17981  -0.15013  -0.14218  -0.07823   0.05093
 Alpha virt. eigenvalues --    0.07300   0.08126   0.08451   0.08615   0.09162
 Alpha virt. eigenvalues --    0.10649   0.10964   0.13122   0.13950   0.15967
 Alpha virt. eigenvalues --    0.16630   0.17093   0.17305   0.17975   0.18397

  Beta  occ. eigenvalues --  -18.99462 -14.31243 -14.23228 -14.22765 -14.21621
  Beta  occ. eigenvalues --  -10.16017 -10.11306 -10.09388 -10.06432 -10.05831
  Beta  occ. eigenvalues --  -10.04332  -0.99425  -0.93669  -0.83718  -0.82744
  Beta  occ. eigenvalues --   -0.68557  -0.66282  -0.57536  -0.52839  -0.50014
  Beta  occ. eigenvalues --   -0.43888  -0.40537  -0.37740  -0.36475  -0.36306
  Beta  occ. eigenvalues --   -0.34760  -0.33483  -0.32915  -0.31822  -0.30195
  Beta  occ. eigenvalues --   -0.27668  -0.25262  -0.23888  -0.23117  -0.20201
  Beta  occ. eigenvalues --   -0.17910  -0.14687  -0.14117  -0.07746
  Beta virt. eigenvalues --    0.07579   0.08387   0.08593   0.09230   0.09452
  Beta virt. eigenvalues --    0.11129   0.11343   0.12320   0.13396   0.14360
  Beta virt. eigenvalues --    0.15982   0.16541   0.17065   0.17404   0.18023

 Mulliken charges and spin densities:
               1          2
     1  C    0.576042  -0.775669
     2  C   -0.756427   0.520720
     3  C    0.779202  -0.717246
     4  N   -0.231165   0.266211
     5  C    0.369673  -0.578591
     6  C    0.117312  -0.384051
     7  C    0.001611  -0.207794
     8  O   -0.303120   0.002202
     9  N   -0.805056   0.945102
    10  N    0.553474  -0.310082
    11  N   -0.026760  -0.156952
    12  H    0.059599   0.069846
    13  H    0.116280   0.058470
    14  H   -0.068979   0.280439
    15  H   -0.289068   0.584071
    16  H   -0.898423   1.054732
    17  H   -0.194196   0.348592
 Sum of Mulliken charges =  -1.00000   1.00000

 Dipole moment (field-independent basis, Debye):
    X=              2.3784    Y=              3.8414    Z=              0.3734  Tot=              4.5335
 Quadrupole moment (field-independent basis, Debye-Ang):
   XX=           -108.4871   YY=            -95.5606   ZZ=            -81.3815
   XY=              6.2207   XZ=             -3.6283   YZ=              3.8630

 Summary of Natural Population Analysis:

                                       Natural Population
                Natural  -----------------------------------------------
    Atom  No    Charge         Core      Valence    Rydberg      Total
 -----------------------------------------------------------------------
      C    1   -0.09680      0.99953     2.08748    0.00979     3.09680
      C    2   -0.10944      0.99954     2.09924    0.01066     3.10944
      C    3   -0.06082      0.99953     2.04630    0.01499     3.06082
      N    4   -0.30357      0.99970     2.79092    0.01295     3.80357
      C    5    0.04214      0.99953     1.94408    0.01424     2.95786
      C    6   -0.18448      0.99955     2.17334    0.01159     3.18448
      C    7    0.34205      0.99968     1.63237    0.02591     2.65795
      O    8   -0.30567      0.99986     3.29960    0.00621     4.30567
      N    9   -0.24639      0.99967     2.73269    0.01402     3.74639
      N   10    0.17249      0.99971     2.31082    0.01698     3.32751
      N   11    0.04032      0.99981     2.44802    0.01184     3.45968
      H   12    0.09634      0.00000     0.40283    0.00084     0.40366
      H   13    0.10015      0.00000     0.39904    0.00081     0.39985
      H   14    0.10736      0.00000     0.39118    0.00145     0.39264
      H   15    0.20339      0.00000     0.28711    0.00950     0.29661
      H   16    0.10010      0.00000     0.39632    0.00358     0.39990
      H   17    0.10283      0.00000     0.39625    0.00092     0.39717
 =======================================================================
   * Total *    0.00000     10.99611    27.83760    0.16629    39.00000

 Normal termination of Gaussian 16 at Tue Dec  8 19:49:35 2020.
