 Gaussian 16, Revision A.03,

 -----------------------------------------------------------
 # opt freq B3LYP/6-31G(d) empiricaldispersion=gd3bj scf=xqc
 -----------------------------------------------------------

 ------------------------------
 CID_148089739_JID_799_neutraal
 ------------------------------
 Symbolic Z-matrix:
 Charge =  0 Multiplicity = 1

 SCF Done:  E(RB3LYP) =  -494.345923022     A.U. after   15 cycles
 SCF Done:  E(RB3LYP) =  -494.375594112     A.U. after   13 cycles
 SCF Done:  E(RB3LYP) =  -494.401325486     A.U. after   13 cycles
 SCF Done:  E(RB3LYP) =  -494.405326577     A.U. after   12 cycles
 SCF Done:  E(RB3LYP) =  -494.406841959     A.U. after   12 cycles
 SCF Done:  E(RB3LYP) =  -494.407299513     A.U. after   11 cycles
 SCF Done:  E(RB3LYP) =  -494.407564377     A.U. after   11 cycles
 SCF Done:  E(RB3LYP) =  -494.407637297     A.U. after   10 cycles
 SCF Done:  E(RB3LYP) =  -494.407681509     A.U. after   10 cycles
 SCF Done:  E(RB3LYP) =  -494.407720770     A.U. after   10 cycles
 SCF Done:  E(RB3LYP) =  -494.407742020     A.U. after    9 cycles
 SCF Done:  E(RB3LYP) =  -494.407747211     A.U. after    9 cycles
 SCF Done:  E(RB3LYP) =  -494.407748269     A.U. after    8 cycles
 Optimization completed.
    -- Stationary point found.
 Normal termination of Gaussian 16 at Tue Dec  8 12:40:12 2020.

 --------------------------------------------------------------------
 #N Geom=AllCheck Guess=TCheck SCRF=Check GenChk RB3LYP/6-31G(d) Freq
 --------------------------------------------------------------------

 Structure from the checkpoint file:  "JID_799.chk"
 ------------------------------
 CID_148089739_JID_799_neutraal
 ------------------------------
 Charge =  0 Multiplicity = 1

 SCF Done:  E(RB3LYP) =  -494.407748269     A.U. after    1 cycles

  Exact polarizability:  78.825   3.654  88.915  -0.969   1.178  65.535
 Approx polarizability: 112.636   9.373 125.365   1.878   2.027 103.548

                      1                      2                      3
                      A                      A                      A
 Frequencies --     82.6800               148.8853               170.0511
 Red. masses --      4.3635                 3.3442                 2.8770
 Frc consts  --      0.0176                 0.0437                 0.0490
 IR Inten    --      0.5504                 7.3255                 1.8112

                      4                      5                      6
                      A                      A                      A
 Frequencies --    240.8906               262.5802               293.5040
 Red. masses --      3.0240                 2.2579                 1.3289
 Frc consts  --      0.1034                 0.0917                 0.0674
 IR Inten    --      5.1075                20.0256                25.3910

                      7                      8                      9
                      A                      A                      A
 Frequencies --    367.1912               406.0115               468.7355
 Red. masses --      3.2528                 3.6733                 3.8558
 Frc consts  --      0.2584                 0.3568                 0.4991
 IR Inten    --      5.1210                14.7316                 8.0785

                     10                     11                     12
                      A                      A                      A
 Frequencies --    505.2984               558.7181               609.8454
 Red. masses --      3.8814                 4.0219                 4.8341
 Frc consts  --      0.5839                 0.7397                 1.0593
 IR Inten    --      3.2245                14.1847                 3.4096

                     13                     14                     15
                      A                      A                      A
 Frequencies --    667.8349               771.4574               791.6525
 Red. masses --      3.0579                 4.4660                 5.8983
 Frc consts  --      0.8035                 1.5660                 2.1779
 IR Inten    --      1.8062                30.6662                61.7499

                     16                     17                     18
                      A                      A                      A
 Frequencies --    826.7429               861.1607               886.2762
 Red. masses --      2.7445                 1.9195                 1.6705
 Frc consts  --      1.1053                 0.8387                 0.7731
 IR Inten    --     37.2164               140.7644                32.5363

                     19                     20                     21
                      A                      A                      A
 Frequencies --    909.3639               990.3651              1004.6541
 Red. masses --      5.2515                 2.0132                 3.0371
 Frc consts  --      2.5587                 1.1634                 1.8061
 IR Inten    --     48.7453                45.7257                36.8430

                     22                     23                     24
                      A                      A                      A
 Frequencies --   1027.2136              1031.1199              1065.7955
 Red. masses --      3.7221                 2.3819                 3.6203
 Frc consts  --      2.3140                 1.4921                 2.4230
 IR Inten    --     14.9717                22.0183                11.2236

                     25                     26                     27
                      A                      A                      A
 Frequencies --   1072.3915              1098.4897              1102.9393
 Red. masses --      1.8431                 1.7648                 2.6226
 Frc consts  --      1.2488                 1.2547                 1.8797
 IR Inten    --     13.8052                13.4981                 5.8080

                     28                     29                     30
                      A                      A                      A
 Frequencies --   1125.1393              1129.9065              1177.5563
 Red. masses --      1.1738                 2.0392                 1.7287
 Frc consts  --      0.8755                 1.5339                 1.4123
 IR Inten    --      0.7717                11.6290                15.4840

                     31                     32                     33
                      A                      A                      A
 Frequencies --   1184.6813              1218.6309              1260.1910
 Red. masses --      1.2063                 2.3762                 1.7044
 Frc consts  --      0.9975                 2.0791                 1.5947
 IR Inten    --      3.8203                78.6508                42.8255

                     34                     35                     36
                      A                      A                      A
 Frequencies --   1265.3627              1303.4712              1344.4010
 Red. masses --      1.4184                 1.4330                 2.7161
 Frc consts  --      1.3380                 1.4345                 2.8924
 IR Inten    --     10.1267                 0.4335                21.7554

                     37                     38                     39
                      A                      A                      A
 Frequencies --   1344.5384              1357.9838              1435.8076
 Red. masses --      1.3599                 1.6493                 1.1423
 Frc consts  --      1.4485                 1.7920                 1.3874
 IR Inten    --     18.5230                 6.6458                 5.8740

                     40                     41                     42
                      A                      A                      A
 Frequencies --   1463.3581              1527.2046              1543.9947
 Red. masses --      1.3291                 1.1121                 1.1058
 Frc consts  --      1.6770                 1.5282                 1.5532
 IR Inten    --     35.0620                 0.7641                 1.6853

                     43                     44                     45
                      A                      A                      A
 Frequencies --   1563.4788              1678.3607              2953.9843
 Red. masses --      1.0829                 1.1000                 1.0625
 Frc consts  --      1.5597                 1.8257                 5.4626
 IR Inten    --      2.9315                33.1367                86.9724

                     46                     47                     48
                      A                      A                      A
 Frequencies --   2995.6988              3055.5806              3085.5261
 Red. masses --      1.0977                 1.0637                 1.0856
 Frc consts  --      5.8042                 5.8515                 6.0893
 IR Inten    --     47.3061                64.1552                15.3657

                     49                     50                     51
                      A                      A                      A
 Frequencies --   3104.2166              3121.3998              3160.9740
 Red. masses --      1.0545                 1.1023                 1.0911
 Frc consts  --      5.9868                 6.3275                 6.4235
 IR Inten    --     47.7892                29.8574                35.2223

                     52                     53                     54
                      A                      A                      A
 Frequencies --   3181.8243              3480.1805              3573.5556
 Red. masses --      1.1156                 1.0493                 1.0934
 Frc consts  --      6.6546                 7.4875                 8.2269
 IR Inten    --     20.5387                 0.7993                 0.2935

 - Thermochemistry -
 -------------------
 Temperature   298.150 Kelvin.  Pressure   1.00000 Atm.
 Atom     1 has atomic number  6 and mass  12.00000

 Molecular mass:   142.07423 amu.
 Principal axes and moments of inertia in atomic units:
                           1         2         3
     Eigenvalues --   857.080131333.128101795.48034
           X            0.99992   0.00175  -0.01280
           Y           -0.00166   0.99997   0.00693
           Z            0.01281  -0.00690   0.99989
 This molecule is an asymmetric top.
 Rotational symmetry number  1.
 Warning -- assumption of classical behavior for rotation
           may cause significant error
 Rotational temperatures (Kelvin)      0.10106     0.06497     0.04824
 Rotational constants (GHZ):           2.10569     1.35376     1.00516
 Zero-point vibrational energy     435792.7 (Joules/Mol)
                                  104.15696 (Kcal/Mol)
 Warning -- explicit consideration of  12 degrees of freedom as
           vibrations may cause significant error
 Vibrational temperatures:    118.96   214.21   244.67   346.59   377.79
          (Kelvin)            422.29   528.31   584.16   674.41   727.01
                              803.87   877.43   960.87  1109.96  1139.01
                             1189.50  1239.02  1275.15  1308.37  1424.91
                             1445.47  1477.93  1483.55  1533.44  1542.93
                             1580.48  1586.88  1618.82  1625.68  1694.24
                             1704.49  1753.34  1813.13  1820.57  1875.40
                             1934.29  1934.49  1953.84  2065.81  2105.45
                             2197.31  2221.46  2249.50  2414.79  4250.12
                             4310.14  4396.30  4439.38  4466.28  4491.00
                             4547.94  4577.94  5007.20  5141.55

 Zero-point correction=                           0.165985 (Hartree/Particle)
 Thermal correction to Energy=                    0.174661
 Thermal correction to Enthalpy=                  0.175605
 Thermal correction to Gibbs Free Energy=         0.132559
 Sum of electronic and zero-point Energies=           -494.241764
 Sum of electronic and thermal Energies=              -494.233087
 Sum of electronic and thermal Enthalpies=            -494.232143
 Sum of electronic and thermal Free Energies=         -494.275189

                     E (Thermal)             CV                S
                      KCal/Mol        Cal/Mol-Kelvin    Cal/Mol-Kelvin
 Total                  109.601             34.061             90.598
 Electronic               0.000              0.000              0.000
 Translational            0.889              2.981             40.765
 Rotational               0.889              2.981             29.108
 Vibrational            107.824             28.099             20.726
 Vibration     1          0.600              1.961              3.826
 Vibration     2          0.618              1.904              2.686
 Vibration     3          0.625              1.879              2.435
 Vibration     4          0.658              1.778              1.796
 Vibration     5          0.670              1.741              1.645
 Vibration     6          0.688              1.686              1.454
 Vibration     7          0.740              1.540              1.092
 Vibration     8          0.771              1.457              0.941
 Vibration     9          0.826              1.319              0.741
 Vibration    10          0.861              1.238              0.645
 Vibration    11          0.914              1.121              0.526
 Vibration    12          0.969              1.011              0.433

                           ! Non-Optimized Parameters !
 Normal termination of Gaussian 16 at Tue Dec  8 12:49:34 2020.

 ----------------------------------------------------------------------
 # B3LYP/6-311++G(d,p) empiricaldispersion=gd3bj scf=xqc pop=npa geom=c
 heck
 ----------------------------------------------------------------------

 --------------------------------------
 CID_148089739_JID_799_Energie_neutraal
 --------------------------------------
 Structure from the checkpoint file:  "JID_799.chk"
 Charge =  0 Multiplicity = 1

 SCF Done:  E(RB3LYP) =  -494.555920235     A.U. after   14 cycles
 Normal termination of Gaussian 16 at Tue Dec  8 12:51:43 2020.

 ----------------------------------------------------------------------
 # B3LYP/6-311++G(d,p) empiricaldispersion=gd3bj scf=xqc pop=npa geom=c
 heck
 ----------------------------------------------------------------------

 ------------------------------------
 CID_148089739_JID_799_Energie_kation
 ------------------------------------
 Structure from the checkpoint file:  "JID_799.chk"
 Charge =  1 Multiplicity = 2

 SCF Done:  E(UB3LYP) =  -494.253523753     A.U. after   22 cycles
 Normal termination of Gaussian 16 at Tue Dec  8 13:04:03 2020.
 Gaussian 16:  ES64L-G16RevA.03 25-Dec-2016

 ----------------------------------------------------------------------
 # B3LYP/6-311++G(d,p) empiricaldispersion=gd3bj scf=xqc pop=npa geom=c
 heck
 ----------------------------------------------------------------------

 -----------------------------------
 CID_148089739_JID_799_Energie_anion
 -----------------------------------
 Structure from the checkpoint file:  "JID_799.chk"
 Charge = -1 Multiplicity = 2

                         Standard orientation:
 ---------------------------------------------------------------------
 Center     Atomic      Atomic             Coordinates (Angstroms)
 Number     Number       Type             X           Y           Z
 ---------------------------------------------------------------------
      1          6           0       -0.419503    1.992707   -0.330997
      2          6           0       -0.146729    1.220519    0.932694
      3          6           0       -1.174349    0.103209    0.273119
      4          8           0       -1.059360    0.857840   -0.950889
      5          6           0       -0.175927   -0.914656    0.579193
      6          7           0        0.906159    0.130114    0.763311
      7          6           0        1.905948    0.274766   -0.280689
      8          7           0        2.692384   -0.949596   -0.284969
      9          6           0       -1.055133   -1.788079   -0.366181
     10          8           0       -2.194200   -0.886726    0.043572
     11          1           0        0.445762    2.335665   -0.904612
     12          1           0       -1.129055    2.819344   -0.201399
     13          1           0       -0.145910    1.687473    1.917005
     14          1           0       -0.352333   -1.323291    1.577616
     15          1           0        1.479590    0.387766   -1.291131
     16          1           0        2.475828    1.193619   -0.054184
     17          1           0        3.362895   -0.934186   -1.050271
     18          1           0        3.214764   -1.020992    0.586057
     19          1           0       -1.240755   -2.823975   -0.074779
     20          1           0       -0.877952   -1.684756   -1.437004
 ---------------------------------------------------------------------

 SCF Done:  E(UB3LYP) =  -494.541432192     A.U. after   31 cycles

 The electronic state is 2-A.
 Alpha  occ. eigenvalues --  -19.03964 -19.03236 -14.21372 -14.18270 -10.17567
 Alpha  occ. eigenvalues --  -10.14063 -10.12155 -10.12011 -10.10828 -10.09596
 Alpha  occ. eigenvalues --   -0.99039  -0.92412  -0.83302  -0.76234  -0.64311
 Alpha  occ. eigenvalues --   -0.62226  -0.59702  -0.51840  -0.51038  -0.43369
 Alpha  occ. eigenvalues --   -0.42089  -0.41451  -0.39174  -0.36774  -0.35391
 Alpha  occ. eigenvalues --   -0.34402  -0.33829  -0.32340  -0.29852  -0.26788
 Alpha  occ. eigenvalues --   -0.26385  -0.25094  -0.23908  -0.20288  -0.18920
 Alpha  occ. eigenvalues --   -0.14709  -0.14042  -0.11649   0.04796
 Alpha virt. eigenvalues --    0.06939   0.07908   0.08640   0.09973   0.10102
 Alpha virt. eigenvalues --    0.10376   0.11010   0.11682   0.12632   0.13690
 Alpha virt. eigenvalues --    0.14172   0.15077   0.16608   0.16818   0.17346

  Beta  occ. eigenvalues --  -19.03959 -19.03229 -14.21369 -14.18216 -10.17565
  Beta  occ. eigenvalues --  -10.14053 -10.12130 -10.11982 -10.10785 -10.09593
  Beta  occ. eigenvalues --   -0.99028  -0.92402  -0.83271  -0.76156  -0.64277
  Beta  occ. eigenvalues --   -0.62160  -0.59664  -0.51793  -0.50960  -0.43317
  Beta  occ. eigenvalues --   -0.42047  -0.41419  -0.39126  -0.36715  -0.35355
  Beta  occ. eigenvalues --   -0.34360  -0.33774  -0.32300  -0.29782  -0.26755
  Beta  occ. eigenvalues --   -0.26334  -0.25066  -0.23883  -0.20269  -0.18908
  Beta  occ. eigenvalues --   -0.14687  -0.13985  -0.11627
  Beta virt. eigenvalues --    0.07384   0.07994   0.08673   0.09238   0.10256
  Beta virt. eigenvalues --    0.11055   0.11192   0.11332   0.12148   0.13014
  Beta virt. eigenvalues --    0.14404   0.14483   0.15363   0.16653   0.17172

 Mulliken charges and spin densities:
               1          2
     1  C    2.022619  -2.457592
     2  C   -1.749460   1.866439
     3  C    0.897965  -0.959317
     4  O   -0.186723   0.019499
     5  C   -1.024242   0.890885
     6  N    0.117595  -0.060044
     7  C    2.572218  -2.951839
     8  N   -0.637182   0.289761
     9  C    0.470491  -0.805713
    10  O   -0.225558   0.001922
    11  H   -0.139313   0.313553
    12  H   -0.449801   0.617844
    13  H   -1.189958   1.441977
    14  H   -0.100057   0.310164
    15  H   -0.381232   0.545979
    16  H   -0.692144   0.861582
    17  H   -0.243653   0.471311
    18  H   -0.215527   0.436789
    19  H    0.052422   0.090390
    20  H    0.101541   0.076411
 Sum of Mulliken charges =  -1.00000   1.00000

 Dipole moment (field-independent basis, Debye):
    X=             -5.3597    Y=             -4.0215    Z=             -0.4229  Tot=              6.7140
 Quadrupole moment (field-independent basis, Debye-Ang):
   XX=           -118.2252   YY=            -99.7290   ZZ=            -91.0253
   XY=              0.5432   XZ=              2.1280   YZ=             -3.5411

 Summary of Natural Population Analysis:

                                       Natural Population
                Natural  -----------------------------------------------
    Atom  No    Charge         Core      Valence    Rydberg      Total
 -----------------------------------------------------------------------
      C    1   -0.02427      0.99958     2.01133    0.01337     3.02427
      C    2   -0.01029      0.99953     1.99494    0.01582     3.01029
      C    3    0.27955      0.99934     1.69736    0.02375     2.72045
      O    4   -0.30403      0.99989     3.29601    0.00813     4.30403
      C    5   -0.04884      0.99928     2.03316    0.01640     3.04884
      N    6   -0.27611      0.99974     2.75937    0.01700     3.77611
      C    7    0.00753      0.99961     1.97698    0.01588     2.99247
      N    8   -0.42153      0.99976     2.91071    0.01106     3.92153
      C    9   -0.01059      0.99957     1.99935    0.01167     3.01059
      O   10   -0.28965      0.99990     3.28247    0.00727     4.28965
      H   11    0.09595      0.00000     0.40204    0.00201     0.40405
      H   12    0.09100      0.00000     0.40697    0.00203     0.40900
      H   13    0.10684      0.00000     0.39078    0.00238     0.39316
      H   14    0.09962      0.00000     0.39882    0.00156     0.40038
      H   15    0.07925      0.00000     0.41810    0.00265     0.42075
      H   16    0.08465      0.00000     0.40986    0.00548     0.41535
      H   17    0.18028      0.00000     0.31560    0.00412     0.31972
      H   18    0.17737      0.00000     0.31900    0.00363     0.32263
      H   19    0.08812      0.00000     0.41038    0.00149     0.41188
      H   20    0.09515      0.00000     0.40273    0.00212     0.40485
 =======================================================================
   * Total *   -0.00000      9.99620    27.83597    0.16783    38.00000

 Normal termination of Gaussian 16 at Tue Dec  8 13:11:34 2020.
