 Gaussian 16, Revision A.03,

 -----------------------------------------------------------
 # opt freq B3LYP/6-31G(d) empiricaldispersion=gd3bj scf=xqc
 -----------------------------------------------------------

 -----------------------------
 CID_5164191_JID_5332_neutraal
 -----------------------------
 Symbolic Z-matrix:
 Charge =  0 Multiplicity = 1

 SCF Done:  E(RB3LYP) =  -1047.68584229     A.U. after   14 cycles
 SCF Done:  E(RB3LYP) =  -1047.68878709     A.U. after   13 cycles
 SCF Done:  E(RB3LYP) =  -1047.68591598     A.U. after   14 cycles
 SCF Done:  E(RB3LYP) =  -1047.69051990     A.U. after   12 cycles
 SCF Done:  E(RB3LYP) =  -1047.69199717     A.U. after   13 cycles
 SCF Done:  E(RB3LYP) =  -1047.69316998     A.U. after   12 cycles
 SCF Done:  E(RB3LYP) =  -1047.69349870     A.U. after   12 cycles
 SCF Done:  E(RB3LYP) =  -1047.69391844     A.U. after   11 cycles
 SCF Done:  E(RB3LYP) =  -1047.69421699     A.U. after   12 cycles
 SCF Done:  E(RB3LYP) =  -1047.69435817     A.U. after   11 cycles
 SCF Done:  E(RB3LYP) =  -1047.70152168     A.U. after   10 cycles
 SCF Done:  E(RB3LYP) =  -1047.70152721     A.U. after   10 cycles
 SCF Done:  E(RB3LYP) =  -1047.70152905     A.U. after    8 cycles
 SCF Done:  E(RB3LYP) =  -1047.70152932     A.U. after    7 cycles
 SCF Done:  E(RB3LYP) =  -1047.70152946     A.U. after    8 cycles
 Optimization completed.
    -- Stationary point found.
 Normal termination of Gaussian 16 at Thu Dec 10 16:00:58 2020.

 --------------------------------------------------------------------
 #N Geom=AllCheck Guess=TCheck SCRF=Check GenChk RB3LYP/6-31G(d) Freq
 --------------------------------------------------------------------

 Structure from the checkpoint file:  "JID_5332.chk"
 -----------------------------
 CID_5164191_JID_5332_neutraal
 -----------------------------
 Charge =  0 Multiplicity = 1

 SCF Done:  E(RB3LYP) =  -1047.70152946     A.U. after    1 cycles

  Exact polarizability: 158.300  22.810 137.133  14.662 -13.825 109.651
 Approx polarizability: 212.056  39.226 219.759  26.987 -35.813 189.673

                      1                      2                      3
                      A                      A                      A
 Frequencies --     29.5337                42.3907                58.8275
 Red. masses --      4.9764                 6.3753                 4.4942
 Frc consts  --      0.0026                 0.0067                 0.0092
 IR Inten    --      0.2544                 0.9419                 0.7198

                      4                      5                      6
                      A                      A                      A
 Frequencies --     75.0578                88.4434               107.3903
 Red. masses --      4.8930                 8.6559                 5.1133
 Frc consts  --      0.0162                 0.0399                 0.0347
 IR Inten    --      0.6300                 3.7343                 3.4090

                      7                      8                      9
                      A                      A                      A
 Frequencies --    171.8410               204.2307               220.9669
 Red. masses --      6.0624                 5.4334                 4.6753
 Frc consts  --      0.1055                 0.1335                 0.1345
 IR Inten    --      2.5238                 9.8356                 2.3098

                     10                     11                     12
                      A                      A                      A
 Frequencies --    269.9081               288.4613               316.1196
 Red. masses --      3.9512                 2.8497                 1.1997
 Frc consts  --      0.1696                 0.1397                 0.0706
 IR Inten    --      2.1125                 4.2742                26.4457

                     13                     14                     15
                      A                      A                      A
 Frequencies --    353.1248               403.2849               423.3682
 Red. masses --      4.9907                 2.3413                 3.1178
 Frc consts  --      0.3667                 0.2244                 0.3293
 IR Inten    --     10.7870                 3.7454                 0.3881

                     16                     17                     18
                      A                      A                      A
 Frequencies --    478.7508               495.5071               512.8935
 Red. masses --      3.6997                 2.4774                 1.3174
 Frc consts  --      0.4996                 0.3584                 0.2042
 IR Inten    --      3.6736                14.3721                 8.9571

                     19                     20                     21
                      A                      A                      A
 Frequencies --    524.3555               539.8148               566.8454
 Red. masses --      4.5627                 2.5235                 3.7260
 Frc consts  --      0.7391                 0.4333                 0.7054
 IR Inten    --     10.8850                10.1449                 8.5691

                     22                     23                     24
                      A                      A                      A
 Frequencies --    604.7764               620.3719               630.7831
 Red. masses --      1.2180                 2.5817                 6.3030
 Frc consts  --      0.2625                 0.5854                 1.4776
 IR Inten    --    240.7981                19.8312                 0.7470

                     25                     26                     27
                      A                      A                      A
 Frequencies --    675.7467               694.0090               709.7127
 Red. masses --      2.5060                 1.7881                 2.0238
 Frc consts  --      0.6742                 0.5074                 0.6006
 IR Inten    --     16.0792                12.2202                 7.3983

                     28                     29                     30
                      A                      A                      A
 Frequencies --    769.8913               778.3258               805.5841
 Red. masses --      1.6521                 6.1782                 4.9481
 Frc consts  --      0.5769                 2.2051                 1.8919
 IR Inten    --     57.8483                72.2957                13.1589

                     31                     32                     33
                      A                      A                      A
 Frequencies --    836.8293               850.9824               880.5700
 Red. masses --      1.2561                 1.4431                 3.1339
 Frc consts  --      0.5183                 0.6157                 1.4317
 IR Inten    --      1.3342                17.1044                 1.1745

                     34                     35                     36
                      A                      A                      A
 Frequencies --    900.6394               912.6573               962.9570
 Red. masses --      1.4441                 2.1280                 1.3268
 Frc consts  --      0.6902                 1.0443                 0.7249
 IR Inten    --      3.9863                 6.3157                 0.3072

                     37                     38                     39
                      A                      A                      A
 Frequencies --    987.9223              1017.1591              1022.4962
 Red. masses --      1.2375                 5.0372                 1.9436
 Frc consts  --      0.7116                 3.0706                 1.1972
 IR Inten    --      0.1752                13.5216                61.1009

                     40                     41                     42
                      A                      A                      A
 Frequencies --   1048.2332              1049.3820              1063.7625
 Red. masses --      3.3927                 2.1360                 2.4886
 Frc consts  --      2.1964                 1.3858                 1.6592
 IR Inten    --     14.1364                36.2046                50.4242

                     43                     44                     45
                      A                      A                      A
 Frequencies --   1113.8622              1121.1874              1159.3723
 Red. masses --      1.5250                 2.2240                 1.8456
 Frc consts  --      1.1148                 1.6472                 1.4616
 IR Inten    --      6.4167                13.3717                21.3969

                     46                     47                     48
                      A                      A                      A
 Frequencies --   1168.4418              1191.6496              1206.9955
 Red. masses --      2.7711                 1.1026                 1.1554
 Frc consts  --      2.2291                 0.9225                 0.9917
 IR Inten    --     14.6357                 3.1931                22.0883

                     49                     50                     51
                      A                      A                      A
 Frequencies --   1254.9600              1262.0472              1302.7157
 Red. masses --      1.6358                 1.4459                 1.7461
 Frc consts  --      1.5179                 1.3569                 1.7459
 IR Inten    --     80.0264                97.5740                85.9745

                     52                     53                     54
                      A                      A                      A
 Frequencies --   1316.8030              1341.7878              1363.7606
 Red. masses --      1.2707                 2.0555                 1.6243
 Frc consts  --      1.2982                 2.1804                 1.7799
 IR Inten    --     28.9271                 5.7733                 0.9922

                     55                     56                     57
                      A                      A                      A
 Frequencies --   1376.5803              1388.0397              1423.8135
 Red. masses --      1.7450                 1.4821                 1.3114
 Frc consts  --      1.9483                 1.6824                 1.5663
 IR Inten    --     12.5727                73.8787                 6.7912

                     58                     59                     60
                      A                      A                      A
 Frequencies --   1448.7014              1485.0011              1503.3398
 Red. masses --      1.9512                 1.5531                 2.2260
 Frc consts  --      2.4127                 2.0179                 2.9640
 IR Inten    --    130.6806                64.7115                 1.5195

                     61                     62                     63
                      A                      A                      A
 Frequencies --   1525.7162              1528.9174              1545.6415
 Red. masses --      1.1158                 1.1257                 2.2068
 Frc consts  --      1.5303                 1.5504                 3.1062
 IR Inten    --      2.8438                13.3588               103.9861

                     64                     65                     66
                      A                      A                      A
 Frequencies --   1645.9615              1661.7534              1665.3454
 Red. masses --      5.7959                 4.3551                 1.2785
 Frc consts  --      9.2515                 7.0857                 2.0891
 IR Inten    --     16.9143               103.1819               112.0440

                     67                     68                     69
                      A                      A                      A
 Frequencies --   1820.5015              2666.2697              3075.7010
 Red. masses --      6.5994                 1.0378                 1.0655
 Frc consts  --     12.8865                 4.3470                 5.9389
 IR Inten    --    405.4630                 6.7234                11.5277

                     70                     71                     72
                      A                      A                      A
 Frequencies --   3090.3555              3097.4427              3134.3884
 Red. masses --      1.0763                 1.0657                 1.1011
 Frc consts  --      6.0561                 6.0242                 6.3734
 IR Inten    --      4.0841                25.3902                 5.9623

                     73                     74                     75
                      A                      A                      A
 Frequencies --   3151.2343              3191.2686              3198.4702
 Red. masses --      1.1078                 1.0854                 1.0890
 Frc consts  --      6.4812                 6.5129                 6.5642
 IR Inten    --     18.2401                 3.2740                 8.1079

                     76                     77                     78
                      A                      A                      A
 Frequencies --   3212.5488              3218.5838              3223.0057
 Red. masses --      1.0915                 1.0939                 1.0959
 Frc consts  --      6.6373                 6.6769                 6.7072
 IR Inten    --     20.7064                17.4149                 2.5022

                     79                     80                     81
                      A                      A                      A
 Frequencies --   3538.0271              3589.4535              3666.6023
 Red. masses --      1.0511                 1.0764                 1.0968
 Frc consts  --      7.7518                 8.1711                 8.6879
 IR Inten    --     34.7627                78.3129                60.3245

 - Thermochemistry -
 -------------------
 Temperature   298.150 Kelvin.  Pressure   1.00000 Atm.
 Atom     1 has atomic number  6 and mass  12.00000

 Molecular mass:   226.07760 amu.
 Principal axes and moments of inertia in atomic units:
                           1         2         3
     Eigenvalues --  2413.856734923.668216512.89297
           X            0.99997   0.00804   0.00014
           Y           -0.00804   0.99997  -0.00205
           Z           -0.00016   0.00205   1.00000
 This molecule is an asymmetric top.
 Rotational symmetry number  1.
 Warning -- assumption of classical behavior for rotation
           may cause significant error
 Rotational temperatures (Kelvin)      0.03588     0.01759     0.01330
 Rotational constants (GHZ):           0.74766     0.36654     0.27710
 Zero-point vibrational energy     621281.5 (Joules/Mol)
                                  148.48984 (Kcal/Mol)
 Warning -- explicit consideration of  23 degrees of freedom as
           vibrations may cause significant error
 Vibrational temperatures:     42.49    60.99    84.64   107.99   127.25
          (Kelvin)            154.51   247.24   293.84   317.92   388.34
                              415.03   454.83   508.07   580.24   609.13
                              688.82   712.92   737.94   754.43   776.67
                              815.56   870.14   892.58   907.56   972.25
                              998.52  1021.12  1107.70  1119.84  1159.06
                             1204.01  1224.37  1266.94  1295.82  1313.11
                             1385.48  1421.40  1463.47  1471.14  1508.17
                             1509.83  1530.52  1602.60  1613.14  1668.08
                             1681.13  1714.52  1736.60  1805.61  1815.80
                             1874.32  1894.59  1930.53  1962.15  1980.59
                             1997.08  2048.55  2084.36  2136.59  2162.97
                             2195.17  2199.77  2223.83  2368.17  2390.89
                             2396.06  2619.30  3836.17  4425.25  4446.33
                             4456.53  4509.69  4533.92  4591.52  4601.89
                             4622.14  4630.82  4637.19  5090.43  5164.42
                             5275.42

 Zero-point correction=                           0.236634 (Hartree/Particle)
 Thermal correction to Energy=                    0.251300
 Thermal correction to Enthalpy=                  0.252244
 Thermal correction to Gibbs Free Energy=         0.193436
 Sum of electronic and zero-point Energies=          -1047.464896
 Sum of electronic and thermal Energies=             -1047.450230
 Sum of electronic and thermal Enthalpies=           -1047.449285
 Sum of electronic and thermal Free Energies=        -1047.508094

                     E (Thermal)             CV                S
                      KCal/Mol        Cal/Mol-Kelvin    Cal/Mol-Kelvin
 Total                  157.693             55.933            123.773
 Electronic               0.000              0.000              0.000
 Translational            0.889              2.981             42.149
 Rotational               0.889              2.981             32.715
 Vibrational            155.916             49.972             48.908
 Vibration     1          0.593              1.984              5.860
 Vibration     2          0.595              1.980              5.144
 Vibration     3          0.596              1.974              4.496
 Vibration     4          0.599              1.966              4.016
 Vibration     5          0.601              1.957              3.694
 Vibration     6          0.606              1.943              3.316
 Vibration     7          0.626              1.877              2.415
 Vibration     8          0.640              1.834              2.095
 Vibration     9          0.648              1.809              1.951
 Vibration    10          0.674              1.729              1.597
 Vibration    11          0.685              1.695              1.483
 Vibration    12          0.703              1.643              1.330
 Vibration    13          0.729              1.569              1.152
 Vibration    14          0.769              1.463              0.951
 Vibration    15          0.786              1.419              0.881
 Vibration    16          0.835              1.297              0.713
 Vibration    17          0.851              1.260              0.669
 Vibration    18          0.868              1.221              0.627
 Vibration    19          0.879              1.196              0.600
 Vibration    20          0.895              1.162              0.566
 Vibration    21          0.923              1.103              0.510
 Vibration    22          0.963              1.022              0.442
 Vibration    23          0.980              0.989              0.416

                           ! Non-Optimized Parameters !
 Normal termination of Gaussian 16 at Thu Dec 10 16:11:06 2020.

 ----------------------------------------------------------------------
 # B3LYP/6-311++G(d,p) empiricaldispersion=gd3bj scf=xqc pop=npa geom=c
 heck
 ----------------------------------------------------------------------

 -------------------------------------
 CID_5164191_JID_5332_Energie_neutraal
 -------------------------------------
 Structure from the checkpoint file:  "JID_5332.chk"
 Charge =  0 Multiplicity = 1

 SCF Done:  E(RB3LYP) =  -1047.92668799     A.U. after   15 cycles
 Normal termination of Gaussian 16 at Thu Dec 10 16:15:52 2020.

 ----------------------------------------------------------------------
 # B3LYP/6-311++G(d,p) empiricaldispersion=gd3bj scf=xqc pop=npa geom=c
 heck
 ----------------------------------------------------------------------

 -----------------------------------
 CID_5164191_JID_5332_Energie_kation
 -----------------------------------
 Structure from the checkpoint file:  "JID_5332.chk"
 Charge =  1 Multiplicity = 2

 SCF Done:  E(UB3LYP) =  -1047.62115880     A.U. after   29 cycles
 Normal termination of Gaussian 16 at Thu Dec 10 16:29:27 2020.
 Gaussian 16:  ES64L-G16RevA.03 25-Dec-2016

 ----------------------------------------------------------------------
 # B3LYP/6-311++G(d,p) empiricaldispersion=gd3bj scf=xqc pop=npa geom=c
 heck
 ----------------------------------------------------------------------

 ----------------------------------
 CID_5164191_JID_5332_Energie_anion
 ----------------------------------
 Structure from the checkpoint file:  "JID_5332.chk"
 Charge = -1 Multiplicity = 2

                         Standard orientation:
 ---------------------------------------------------------------------
 Center     Atomic      Atomic             Coordinates (Angstroms)
 Number     Number       Type             X           Y           Z
 ---------------------------------------------------------------------
      1          6           0        3.732754    1.255899   -0.027659
      2          6           0        3.718417    0.307029    0.997482
      3          6           0        2.825415   -0.760268    0.960080
      4          6           0        1.937742   -0.894628   -0.113911
      5          6           0        1.961115    0.039157   -1.157031
      6          6           0        2.854689    1.112410   -1.100610
      7          8           0        1.111918   -1.991429   -0.074764
      8          6           0       -0.198341   -1.919109   -0.637531
      9          6           0       -1.227456   -1.495178    0.417271
     10          6           0       -0.947162   -0.117007    1.038802
     11          7           0       -0.967960    0.968839    0.070604
     12          6           0       -1.875306    2.020137    0.063044
     13          8           0       -1.617052    3.084585   -0.482171
     14          7           0       -3.071217    1.779359    0.722928
     15         16           0       -2.916396   -1.594893   -0.324192
     16          1           0        4.421153    2.094198    0.008632
     17          1           0        4.399427    0.402680    1.838382
     18          1           0        2.793012   -1.501037    1.752521
     19          1           0        1.308643   -0.066591   -2.016446
     20          1           0        2.861467    1.835301   -1.911235
     21          1           0       -0.238012   -1.233968   -1.488636
     22          1           0       -0.430023   -2.922938   -0.998431
     23          1           0       -1.234184   -2.240028    1.220439
     24          1           0       -1.679037    0.082507    1.824763
     25          1           0        0.037359   -0.148605    1.517707
     26          1           0       -0.067110    1.260378   -0.289349
     27          1           0       -3.436152    0.833012    0.717020
     28          1           0       -3.759100    2.495737    0.532441
     29          1           0       -2.691004   -0.645643   -1.259608
 ---------------------------------------------------------------------

 SCF Done:  E(UB3LYP) =  -1047.91560386     A.U. after   33 cycles
 SCF Done:  E(UB3LYP) =  -1047.91560392     a.u. after    2 cycles

 The electronic state is 2-A.
 Alpha  occ. eigenvalues --  -88.75661 -19.06386 -18.98596 -14.23700 -14.23013
 Alpha  occ. eigenvalues --  -10.20071 -10.14980 -10.14250 -10.12520 -10.12237
 Alpha  occ. eigenvalues --  -10.09155 -10.08842 -10.08754 -10.08357 -10.08328
 Alpha  occ. eigenvalues --   -7.84377  -5.80718  -5.80399  -5.79778  -0.97954
 Alpha  occ. eigenvalues --   -0.95156  -0.83760  -0.79651  -0.76962  -0.72753
 Alpha  occ. eigenvalues --   -0.66730  -0.66231  -0.62132  -0.60763  -0.53381
 Alpha  occ. eigenvalues --   -0.52050  -0.51310  -0.49315  -0.45723  -0.44958
 Alpha  occ. eigenvalues --   -0.41293  -0.40631  -0.39803  -0.39099  -0.37934
 Alpha  occ. eigenvalues --   -0.36583  -0.35264  -0.34190  -0.33411  -0.32309
 Alpha  occ. eigenvalues --   -0.31906  -0.30259  -0.29447  -0.28462  -0.27908
 Alpha  occ. eigenvalues --   -0.27306  -0.25654  -0.24122  -0.22519  -0.19091
 Alpha  occ. eigenvalues --   -0.17624  -0.17233  -0.16622  -0.15683  -0.14220
 Alpha  occ. eigenvalues --    0.04139
 Alpha virt. eigenvalues --    0.05941   0.06634   0.06695   0.07229   0.07746
 Alpha virt. eigenvalues --    0.08152   0.08736   0.09260   0.09735   0.10302
 Alpha virt. eigenvalues --    0.10895   0.11519   0.11944   0.12698   0.13144

  Beta  occ. eigenvalues --  -88.75641 -19.06377 -18.98590 -14.23694 -14.22981
  Beta  occ. eigenvalues --  -10.20065 -10.14984 -10.14230 -10.12503 -10.12220
  Beta  occ. eigenvalues --  -10.09132 -10.08800 -10.08721 -10.08341 -10.08324
  Beta  occ. eigenvalues --   -7.84353  -5.80687  -5.80383  -5.79761  -0.97934
  Beta  occ. eigenvalues --   -0.95141  -0.83743  -0.79609  -0.76915  -0.72709
  Beta  occ. eigenvalues --   -0.66678  -0.66166  -0.62063  -0.60716  -0.53308
  Beta  occ. eigenvalues --   -0.51999  -0.51272  -0.49255  -0.45680  -0.44921
  Beta  occ. eigenvalues --   -0.41236  -0.40596  -0.39759  -0.39062  -0.37892
  Beta  occ. eigenvalues --   -0.36541  -0.35231  -0.34154  -0.33367  -0.32283
  Beta  occ. eigenvalues --   -0.31864  -0.30216  -0.29382  -0.28405  -0.27859
  Beta  occ. eigenvalues --   -0.27261  -0.25603  -0.24075  -0.22466  -0.19057
  Beta  occ. eigenvalues --   -0.17576  -0.17110  -0.16590  -0.15652  -0.14167
  Beta virt. eigenvalues --    0.06301   0.06811   0.06929   0.07434   0.07790
  Beta virt. eigenvalues --    0.07857   0.08711   0.09192   0.09643   0.10046
  Beta virt. eigenvalues --    0.10633   0.11322   0.11853   0.12362   0.12743

 Mulliken charges and spin densities:
               1          2
     1  C    0.404132  -0.815400
     2  C    0.524869  -0.764667
     3  C   -0.922519   0.932128
     4  C   -0.062308  -0.357793
     5  C    0.737085  -0.501705
     6  C   -0.509505   0.462168
     7  O   -0.050737   0.017334
     8  C    0.323263  -1.082752
     9  C   -0.782041   1.667177
    10  C    0.452459  -1.499585
    11  N   -0.239766   0.032635
    12  C    0.336880  -0.184201
    13  O   -0.352768  -0.022089
    14  N   -0.404383   0.060078
    15  S    1.026666  -1.247818
    16  H   -0.148442   0.295611
    17  H   -0.557117   0.743045
    18  H   -0.206145   0.391591
    19  H   -0.179626   0.337215
    20  H   -0.067709   0.251840
    21  H    0.167564  -0.001305
    22  H   -0.222745   0.365010
    23  H   -0.402259   0.720437
    24  H   -0.045917   0.252549
    25  H    0.017082   0.167380
    26  H    0.784822  -0.439015
    27  H   -0.105273   0.349260
    28  H    0.031798   0.252901
    29  H   -0.547361   0.617972
 Sum of Mulliken charges =  -1.00000   1.00000

 Dipole moment (field-independent basis, Debye):
    X=             -0.0568    Y=             -1.0538    Z=             -1.3203  Tot=              1.6902
 Quadrupole moment (field-independent basis, Debye-Ang):
   XX=           -168.3197   YY=           -149.9824   ZZ=           -132.5404
   XY=             -1.1035   XZ=             -6.7436   YZ=              3.3639

 Summary of Natural Population Analysis:

                                       Natural Population
                Natural  -----------------------------------------------
    Atom  No    Charge         Core      Valence    Rydberg      Total
 -----------------------------------------------------------------------
      C    1   -0.11721      0.99956     2.10737    0.01028     3.11721
      C    2   -0.08695      0.99957     2.07720    0.01018     3.08695
      C    3   -0.12141      0.99951     2.11132    0.01059     3.12141
      C    4    0.15463      0.99936     1.83218    0.01382     2.84537
      C    5   -0.14624      0.99950     2.13771    0.00902     3.14624
      C    6   -0.08912      0.99957     2.07985    0.00970     3.08912
      O    7   -0.28273      0.99986     3.27221    0.01067     4.28273
      C    8   -0.01771      0.99949     2.00445    0.01377     3.01771
      C    9   -0.17047      0.99956     2.15800    0.01292     3.17047
      C   10   -0.10205      0.99957     2.08969    0.01279     3.10205
      N   11   -0.34524      0.99967     2.83535    0.01022     3.84524
      C   12    0.40513      0.99972     1.57284    0.02230     2.59487
      O   13   -0.33724      0.99987     3.33147    0.00589     4.33724
      N   14   -0.42476      0.99972     2.91680    0.00824     3.92476
      S   15   -0.02195      4.99964     3.00691    0.01539     8.02195
      H   16    0.10254      0.00000     0.39653    0.00093     0.39746
      H   17    0.10329      0.00000     0.39513    0.00158     0.39671
      H   18    0.10870      0.00000     0.38988    0.00143     0.39130
      H   19    0.10753      0.00000     0.39115    0.00132     0.39247
      H   20    0.10244      0.00000     0.39666    0.00091     0.39756
      H   21    0.08953      0.00000     0.40837    0.00210     0.41047
      H   22    0.09992      0.00000     0.39865    0.00143     0.40008
      H   23    0.11081      0.00000     0.38712    0.00206     0.38919
      H   24    0.10793      0.00000     0.39020    0.00186     0.39207
      H   25    0.10772      0.00000     0.39051    0.00177     0.39228
      H   26    0.20306      0.00000     0.29377    0.00317     0.29694
      H   27    0.19733      0.00000     0.29957    0.00310     0.30267
      H   28    0.19410      0.00000     0.30415    0.00175     0.30590
      H   29    0.06841      0.00000     0.42743    0.00416     0.43159
 =======================================================================
   * Total *   -0.00000     18.99416    40.80247    0.20337    60.00000

 Normal termination of Gaussian 16 at Thu Dec 10 16:58:06 2020.
