 Gaussian 16, Revision A.03,

 -----------------------------------------------------------
 # opt freq B3LYP/6-31G(d) empiricaldispersion=gd3bj scf=xqc
 -----------------------------------------------------------

 -----------------------------
 CID_67833703_JID_578_neutraal
 -----------------------------
 Symbolic Z-matrix:
 Charge =  0 Multiplicity = 1

 SCF Done:  E(RB3LYP) =  -493.431477214     A.U. after   15 cycles
 SCF Done:  E(RB3LYP) =  -493.436735741     A.U. after   12 cycles
 SCF Done:  E(RB3LYP) =  -493.437228025     A.U. after   11 cycles
 SCF Done:  E(RB3LYP) =  -493.437277469     A.U. after   10 cycles
 SCF Done:  E(RB3LYP) =  -493.437274731     A.U. after    9 cycles
 SCF Done:  E(RB3LYP) =  -493.437277983     A.U. after    9 cycles
 SCF Done:  E(RB3LYP) =  -493.437281576     A.U. after    8 cycles
 Optimization completed.
    -- Stationary point found.
 Normal termination of Gaussian 16 at Tue Dec  8 12:15:37 2020.

 --------------------------------------------------------------------
 #N Geom=AllCheck Guess=TCheck SCRF=Check GenChk RB3LYP/6-31G(d) Freq
 --------------------------------------------------------------------

 Structure from the checkpoint file:  "JID_578.chk"
 -----------------------------
 CID_67833703_JID_578_neutraal
 -----------------------------
 Charge =  0 Multiplicity = 1

 SCF Done:  E(RB3LYP) =  -493.437281576     A.U. after    1 cycles

  Exact polarizability: 115.342   2.323  78.273  -0.013  -0.004  43.830
 Approx polarizability: 142.354   3.057 138.962  -0.011  -0.002  64.641

                      1                      2                      3
                      A                      A                      A
 Frequencies --     44.3414                61.2873                90.8502
 Red. masses --      2.9398                 1.7637                 1.5471
 Frc consts  --      0.0034                 0.0039                 0.0075
 IR Inten    --      0.0061                 0.2552                 0.1040

                      4                      5                      6
                      A                      A                      A
 Frequencies --    102.5966               148.7395               210.1974
 Red. masses --      1.3106                 4.3390                 3.8626
 Frc consts  --      0.0081                 0.0566                 0.1006
 IR Inten    --      0.0108                 1.1904                 0.4605

                      7                      8                      9
                      A                      A                      A
 Frequencies --    273.3419               346.0228               357.2780
 Red. masses --      4.4406                 3.3477                 6.0580
 Frc consts  --      0.1955                 0.2362                 0.4556
 IR Inten    --      1.9554                 0.5112                 1.7354

                     10                     11                     12
                      A                      A                      A
 Frequencies --    424.0274               461.3573               581.7508
 Red. masses --      3.5995                 1.2760                 4.4506
 Frc consts  --      0.3813                 0.1600                 0.8875
 IR Inten    --      7.7392                89.4824                 8.6721

                     13                     14                     15
                      A                      A                      A
 Frequencies --    585.6063               649.7097               690.8222
 Red. masses --      2.9699                 4.3183                 4.0988
 Frc consts  --      0.6001                 1.0740                 1.1525
 IR Inten    --      7.8971                 6.7565                 0.0294

                     16                     17                     18
                      A                      A                      A
 Frequencies --    695.3760               760.9473               832.4431
 Red. masses --      4.3742                 6.5914                 1.2767
 Frc consts  --      1.2462                 2.2487                 0.5212
 IR Inten    --      3.3902                 3.1962                27.3937

                     19                     20                     21
                      A                      A                      A
 Frequencies --    917.5351               998.1628              1009.2338
 Red. masses --      6.9444                 1.5336                 3.3468
 Frc consts  --      3.4445                 0.9002                 2.0085
 IR Inten    --     30.8769                 5.9578                 4.1121

                     22                     23                     24
                      A                      A                      A
 Frequencies --   1031.9547              1072.0220              1073.0126
 Red. masses --      1.9700                 1.6973                 3.6735
 Frc consts  --      1.2360                 1.1493                 2.4920
 IR Inten    --     50.2055                 6.9229                64.9867

                     25                     26                     27
                      A                      A                      A
 Frequencies --   1075.3819              1180.3099              1220.5729
 Red. masses --      1.4509                 2.4497                 1.7945
 Frc consts  --      0.9886                 2.0107                 1.5751
 IR Inten    --      1.8177                 7.1736                14.3448

                     28                     29                     30
                      A                      A                      A
 Frequencies --   1259.2899              1284.8076              1424.0976
 Red. masses --      4.3822                 2.3118                 1.3567
 Frc consts  --      4.0945                 2.2484                 1.6212
 IR Inten    --    566.6499                 6.4723                50.9458

                     31                     32                     33
                      A                      A                      A
 Frequencies --   1429.2269              1446.7463              1456.8981
 Red. masses --      1.5847                 2.5026                 3.6213
 Frc consts  --      1.9073                 3.0862                 4.5287
 IR Inten    --      6.2951                29.0580                12.8666

                     34                     35                     36
                      A                      A                      A
 Frequencies --   1500.5717              1504.4615              1512.2861
 Red. masses --      1.0490                 1.0459                 1.0434
 Frc consts  --      1.3916                 1.3947                 1.4059
 IR Inten    --     12.3146                 8.6761                 7.5858

                     37                     38                     39
                      A                      A                      A
 Frequencies --   1522.0599              1570.0957              1628.4166
 Red. masses --      1.2851                 5.4528                 4.8528
 Frc consts  --      1.7540                 7.9200                 7.5818
 IR Inten    --      4.5139                31.5637               134.4451

                     40                     41                     42
                      A                      A                      A
 Frequencies --   1853.4103              3041.8411              3072.4553
 Red. masses --     11.5356                 1.0403                 1.0374
 Frc consts  --     23.3470                 5.6712                 5.7701
 IR Inten    --    219.6324                41.0035                 1.9466

                     43                     44                     45
                      A                      A                      A
 Frequencies --   3089.0721              3134.4595              3162.3630
 Red. masses --      1.1016                 1.1008                 1.0971
 Frc consts  --      6.1936                 6.3722                 6.4641
 IR Inten    --     21.9818                 5.2440                 4.1743

                     46                     47                     48
                      A                      A                      A
 Frequencies --   3187.8130              3330.7588              3649.8905
 Red. masses --      1.1028                 1.0979                 1.0806
 Frc consts  --      6.6031                 7.1764                 8.4813
 IR Inten    --      5.7809                 1.8295                45.7809

 - Thermochemistry -
 -------------------
 Temperature   298.150 Kelvin.  Pressure   1.00000 Atm.
 Atom     1 has atomic number  6 and mass  12.00000

 Molecular mass:   140.05858 amu.
 Principal axes and moments of inertia in atomic units:
                           1         2         3
     Eigenvalues --   408.263152556.513412942.24771
           X            1.00000  -0.00179  -0.00002
           Y            0.00179   1.00000  -0.00003
           Z            0.00002   0.00003   1.00000
 This molecule is an asymmetric top.
 Rotational symmetry number  1.
 Rotational temperatures (Kelvin)      0.21215     0.03388     0.02944
 Rotational constants (GHZ):           4.42053     0.70594     0.61339
 Zero-point vibrational energy     370578.6 (Joules/Mol)
                                   88.57041 (Kcal/Mol)
 Warning -- explicit consideration of  13 degrees of freedom as
           vibrations may cause significant error
 Vibrational temperatures:     63.80    88.18   130.71   147.61   214.00
          (Kelvin)            302.43   393.28   497.85   514.04   610.08
                              663.79   837.01   842.56   934.79   993.94
                             1000.49  1094.83  1197.70  1320.13  1436.13
                             1452.06  1484.75  1542.40  1543.83  1547.23
                             1698.20  1756.13  1811.84  1848.55  2048.96
                             2056.34  2081.55  2096.15  2158.99  2164.58
                             2175.84  2189.90  2259.02  2342.93  2666.64
                             4376.53  4420.58  4444.49  4509.79  4549.94
                             4586.55  4792.22  5251.38

 Zero-point correction=                           0.141146 (Hartree/Particle)
 Thermal correction to Energy=                    0.151237
 Thermal correction to Enthalpy=                  0.152181
 Thermal correction to Gibbs Free Energy=         0.104541
 Sum of electronic and zero-point Energies=           -493.296136
 Sum of electronic and thermal Energies=              -493.286045
 Sum of electronic and thermal Enthalpies=            -493.285101
 Sum of electronic and thermal Free Energies=         -493.332740

                     E (Thermal)             CV                S
                      KCal/Mol        Cal/Mol-Kelvin    Cal/Mol-Kelvin
 Total                   94.903             35.228            100.266
 Electronic               0.000              0.000              0.000
 Translational            0.889              2.981             40.722
 Rotational               0.889              2.981             29.508
 Vibrational             93.125             29.266             30.036
 Vibration     1          0.595              1.980              5.055
 Vibration     2          0.597              1.973              4.415
 Vibration     3          0.602              1.956              3.642
 Vibration     4          0.605              1.947              3.404
 Vibration     5          0.618              1.904              2.688
 Vibration     6          0.642              1.825              2.042
 Vibration     7          0.676              1.723              1.575
 Vibration     8          0.724              1.583              1.184
 Vibration     9          0.732              1.560              1.134
 Vibration    10          0.786              1.418              0.878
 Vibration    11          0.819              1.336              0.762
 Vibration    12          0.939              1.071              0.482
 Vibration    13          0.943              1.063              0.475

                           ! Non-Optimized Parameters !
 Normal termination of Gaussian 16 at Tue Dec  8 12:22:07 2020.

 ----------------------------------------------------------------------
 # B3LYP/6-311++G(d,p) empiricaldispersion=gd3bj scf=xqc pop=npa geom=c
 heck
 ----------------------------------------------------------------------

 -------------------------------------
 CID_67833703_JID_578_Energie_neutraal
 -------------------------------------
 Structure from the checkpoint file:  "JID_578.chk"
 Charge =  0 Multiplicity = 1

 SCF Done:  E(RB3LYP) =  -493.581783291     A.U. after   14 cycles
 Normal termination of Gaussian 16 at Tue Dec  8 12:26:04 2020.

 ----------------------------------------------------------------------
 # B3LYP/6-311++G(d,p) empiricaldispersion=gd3bj scf=xqc pop=npa geom=c
 heck
 ----------------------------------------------------------------------

 -----------------------------------
 CID_67833703_JID_578_Energie_kation
 -----------------------------------
 Structure from the checkpoint file:  "JID_578.chk"
 Charge =  1 Multiplicity = 2

 SCF Done:  E(UB3LYP) =  -493.282245270     A.U. after   18 cycles
 Normal termination of Gaussian 16 at Tue Dec  8 12:32:52 2020.
 Gaussian 16:  ES64L-G16RevA.03 25-Dec-2016

 ----------------------------------------------------------------------
 # B3LYP/6-311++G(d,p) empiricaldispersion=gd3bj scf=xqc pop=npa geom=c
 heck
 ----------------------------------------------------------------------

 ----------------------------------
 CID_67833703_JID_578_Energie_anion
 ----------------------------------
 Structure from the checkpoint file:  "JID_578.chk"
 Charge = -1 Multiplicity = 2

                         Standard orientation:
 ---------------------------------------------------------------------
 Center     Atomic      Atomic             Coordinates (Angstroms)
 Number     Number       Type             X           Y           Z
 ---------------------------------------------------------------------
      1          6           0       -3.672326   -0.594561    0.000695
      2          6           0       -2.276351   -0.068567   -0.000258
      3          7           0       -1.922451    1.198925   -0.000677
      4          6           0       -0.538998    1.231136   -0.000637
      5          6           0       -0.062399   -0.055252   -0.000258
      6          7           0       -1.165642   -0.881743    0.000078
      7          8           0        1.157691   -0.684651   -0.000517
      8          6           0        2.309433    0.060237    0.000364
      9          8           0        2.327138    1.264818    0.001213
     10          6           0        3.505238   -0.856292   -0.000240
     11          1           0       -3.879735   -1.213156   -0.881708
     12          1           0       -3.883021   -1.201242    0.890607
     13          1           0       -4.357229    0.255473   -0.006114
     14          1           0        0.018861    2.151366   -0.000972
     15          1           0       -1.135225   -1.890849    0.000400
     16          1           0        3.484369   -1.505860    0.880836
     17          1           0        3.486949   -1.500893   -0.885050
     18          1           0        4.415468   -0.256659    0.002629
 ---------------------------------------------------------------------

 SCF Done:  E(UB3LYP) =  -493.572796314     A.U. after   31 cycles

 The electronic state is 2-A.
 Alpha  occ. eigenvalues --  -19.09342 -19.02567 -14.25856 -14.18855 -10.21773
 Alpha  occ. eigenvalues --  -10.15841 -10.12816 -10.08295 -10.07769 -10.07405
 Alpha  occ. eigenvalues --   -1.03085  -0.94794  -0.90777  -0.76799  -0.68700
 Alpha  occ. eigenvalues --   -0.65759  -0.59478  -0.55071  -0.50481  -0.46618
 Alpha  occ. eigenvalues --   -0.41469  -0.39925  -0.39239  -0.37816  -0.35040
 Alpha  occ. eigenvalues --   -0.33759  -0.31732  -0.31574  -0.30320  -0.29981
 Alpha  occ. eigenvalues --   -0.28895  -0.28645  -0.25021  -0.19387  -0.17995
 Alpha  occ. eigenvalues --   -0.17092  -0.11444   0.04331
 Alpha virt. eigenvalues --    0.06571   0.08124   0.08798   0.09546   0.10485
 Alpha virt. eigenvalues --    0.10609   0.10719   0.12138   0.13128   0.13422
 Alpha virt. eigenvalues --    0.14174   0.15517   0.16526   0.17260   0.17516

  Beta  occ. eigenvalues --  -19.09323 -19.02562 -14.25793 -14.18851 -10.21770
  Beta  occ. eigenvalues --  -10.15840 -10.12816 -10.08233 -10.07765 -10.07363
  Beta  occ. eigenvalues --   -1.03064  -0.94775  -0.90744  -0.76741  -0.68661
  Beta  occ. eigenvalues --   -0.65704  -0.59411  -0.55038  -0.50373  -0.46571
  Beta  occ. eigenvalues --   -0.41423  -0.39883  -0.39204  -0.37772  -0.35002
  Beta  occ. eigenvalues --   -0.33720  -0.31679  -0.31525  -0.30286  -0.29937
  Beta  occ. eigenvalues --   -0.28851  -0.28601  -0.25007  -0.19371  -0.17964
  Beta  occ. eigenvalues --   -0.17083  -0.11432
  Beta virt. eigenvalues --    0.07167   0.07645   0.08269   0.10068   0.10424
  Beta virt. eigenvalues --    0.10501   0.11262   0.11599   0.12655   0.13413
  Beta virt. eigenvalues --    0.13508   0.14286   0.15439   0.16693   0.17339

 Mulliken charges and spin densities:
               1          2
     1  C    1.447872  -1.938101
     2  C   -0.481536   0.453065
     3  N   -0.153190  -0.026349
     4  C    0.179581  -0.084938
     5  C    0.049569  -0.132908
     6  N   -0.196005  -0.019776
     7  O   -0.182373   0.066311
     8  C   -1.178831   1.479571
     9  O   -0.284191   0.008583
    10  C    2.247335  -2.812496
    11  H   -0.368246   0.529621
    12  H   -0.366734   0.528440
    13  H    0.115470   0.037378
    14  H    0.113769   0.087759
    15  H   -0.669285   1.012558
    16  H   -0.570618   0.755806
    17  H   -0.569868   0.755128
    18  H   -0.132718   0.300348
 Sum of Mulliken charges =  -1.00000   1.00000

 Dipole moment (field-independent basis, Debye):
    X=             -0.4355    Y=              4.6963    Z=              0.0007  Tot=              4.7164
 Quadrupole moment (field-independent basis, Debye-Ang):
   XX=           -119.3432   YY=           -104.4141   ZZ=            -81.7907
   XY=              1.2597   XZ=              0.0223   YZ=             -0.0149

 Summary of Natural Population Analysis:

                                       Natural Population
                Natural  -----------------------------------------------
    Atom  No    Charge         Core      Valence    Rydberg      Total
 -----------------------------------------------------------------------
      C    1   -0.30630      0.99963     2.30083    0.00584     3.30630
      C    2    0.18822      0.99964     1.79458    0.01756     2.81178
      N    3   -0.26105      0.99970     2.75173    0.00963     3.76105
      C    4   -0.06125      0.99950     2.04816    0.01359     3.06125
      C    5    0.21090      0.99937     1.77350    0.01623     2.78910
      N    6   -0.27988      0.99963     2.76981    0.01044     3.77988
      O    7   -0.26893      0.99984     3.25833    0.01076     4.26893
      C    8    0.41001      0.99970     1.56656    0.02373     2.58999
      O    9   -0.29577      0.99987     3.28964    0.00626     4.29577
      C   10   -0.33280      0.99962     2.32777    0.00541     3.33280
      H   11    0.10751      0.00000     0.39099    0.00150     0.39249
      H   12    0.10747      0.00000     0.39103    0.00149     0.39253
      H   13    0.11109      0.00000     0.38769    0.00122     0.38891
      H   14    0.10834      0.00000     0.39056    0.00109     0.39166
      H   15    0.21591      0.00000     0.25600    0.02809     0.28409
      H   16    0.11843      0.00000     0.37907    0.00250     0.38157
      H   17    0.11844      0.00000     0.37907    0.00249     0.38156
      H   18    0.10966      0.00000     0.38932    0.00102     0.39034
 =======================================================================
   * Total *    0.00000      9.99649    26.84467    0.15884    37.00000

 Normal termination of Gaussian 16 at Tue Dec  8 12:40:08 2020.
