 Gaussian 16, Revision A.03,

 -----------------------------------------------------------
 # opt freq B3LYP/6-31G(d) empiricaldispersion=gd3bj scf=xqc
 -----------------------------------------------------------

 -------------------------------
 CID_117243095_JID_8110_neutraal
 -------------------------------
 Symbolic Z-matrix:
 Charge =  0 Multiplicity = 1

 SCF Done:  E(RB3LYP) =  -806.934503385     A.U. after   14 cycles
 SCF Done:  E(RB3LYP) =  -806.937772348     A.U. after   12 cycles
 SCF Done:  E(RB3LYP) =  -806.938699267     A.U. after   14 cycles
 SCF Done:  E(RB3LYP) =  -806.939027932     A.U. after   12 cycles
 SCF Done:  E(RB3LYP) =  -806.939327525     A.U. after   12 cycles
 SCF Done:  E(RB3LYP) =  -806.939445749     A.U. after   11 cycles
 SCF Done:  E(RB3LYP) =  -806.939484179     A.U. after   11 cycles
 SCF Done:  E(RB3LYP) =  -806.939504672     A.U. after   10 cycles
 SCF Done:  E(RB3LYP) =  -806.939505815     A.U. after    8 cycles
 SCF Done:  E(RB3LYP) =  -806.939505892     A.U. after    8 cycles
 SCF Done:  E(RB3LYP) =  -806.939506036     A.U. after    7 cycles
 SCF Done:  E(RB3LYP) =  -806.939506141     A.U. after    7 cycles
 Optimization completed.
    -- Stationary point found.
 Normal termination of Gaussian 16 at Fri Dec 11 18:40:34 2020.

 --------------------------------------------------------------------
 #N Geom=AllCheck Guess=TCheck SCRF=Check GenChk RB3LYP/6-31G(d) Freq
 --------------------------------------------------------------------

 Structure from the checkpoint file:  "JID_8110.chk"
 -------------------------------
 CID_117243095_JID_8110_neutraal
 -------------------------------
 Charge =  0 Multiplicity = 1

 SCF Done:  E(RB3LYP) =  -806.939506141     A.U. after    1 cycles

  Exact polarizability: 162.734 -35.905 153.165 -25.477 -19.212 136.190
 Approx polarizability: 239.607 -71.637 250.052 -57.099 -41.271 254.554

                      1                      2                      3
                      A                      A                      A
 Frequencies --     26.5790                39.7823                57.9415
 Red. masses --      6.0927                 5.8071                 4.9690
 Frc consts  --      0.0025                 0.0054                 0.0098
 IR Inten    --      0.1445                 0.2215                 0.3521

                      4                      5                      6
                      A                      A                      A
 Frequencies --     63.9744                92.2758               106.3984
 Red. masses --      3.6910                 4.4617                 4.7326
 Frc consts  --      0.0089                 0.0224                 0.0316
 IR Inten    --      0.7725                 2.0094                 1.6983

                      7                      8                      9
                      A                      A                      A
 Frequencies --    144.9967               189.2697               210.1738
 Red. masses --      5.6196                 5.1530                 2.9804
 Frc consts  --      0.0696                 0.1088                 0.0776
 IR Inten    --      0.7900                 2.8070                 1.1409

                     10                     11                     12
                      A                      A                      A
 Frequencies --    260.9750               290.4346               307.1691
 Red. masses --      2.7666                 4.0675                 4.1545
 Frc consts  --      0.1110                 0.2022                 0.2310
 IR Inten    --      0.9682                 0.4728                 2.7079

                     13                     14                     15
                      A                      A                      A
 Frequencies --    333.2920               357.9598               392.1107
 Red. masses --      1.1114                 5.6337                 4.2103
 Frc consts  --      0.0727                 0.4253                 0.3814
 IR Inten    --    117.6280                 4.9147                 5.5364

                     16                     17                     18
                      A                      A                      A
 Frequencies --    408.9674               429.7016               442.4574
 Red. masses --      2.1203                 3.2459                 3.8500
 Frc consts  --      0.2089                 0.3531                 0.4441
 IR Inten    --     58.1833                 0.2690                 5.7148

                     19                     20                     21
                      A                      A                      A
 Frequencies --    449.0989               469.0743               489.1753
 Red. masses --      1.7398                 4.1402                 3.5405
 Frc consts  --      0.2067                 0.5367                 0.4992
 IR Inten    --    112.0109                24.7561                 6.4241

                     22                     23                     24
                      A                      A                      A
 Frequencies --    516.9758               550.3036               570.3711
 Red. masses --      3.1653                 3.1997                 2.2740
 Frc consts  --      0.4984                 0.5709                 0.4359
 IR Inten    --     26.6034                20.5040                 2.0976

                     25                     26                     27
                      A                      A                      A
 Frequencies --    636.4893               657.7293               675.9173
 Red. masses --      6.2998                 6.8713                 4.3595
 Frc consts  --      1.5037                 1.7514                 1.1735
 IR Inten    --      1.4607                 0.8620                 6.1756

                     28                     29                     30
                      A                      A                      A
 Frequencies --    720.9850               723.1732               751.3388
 Red. masses --      2.2307                 2.6862                 3.7222
 Frc consts  --      0.6832                 0.8277                 1.2380
 IR Inten    --     17.6061                 7.4165                43.7206

                     31                     32                     33
                      A                      A                      A
 Frequencies --    762.7630               799.2985               805.3355
 Red. masses --      2.9569                 2.4575                 1.3963
 Frc consts  --      1.0136                 0.9251                 0.5335
 IR Inten    --      9.3682                 8.5147                 3.9558

                     34                     35                     36
                      A                      A                      A
 Frequencies --    843.5404               860.8116               865.4026
 Red. masses --      1.7600                 1.2501                 5.5359
 Frc consts  --      0.7379                 0.5458                 2.4427
 IR Inten    --     41.1767                 0.6990                 3.0038

                     37                     38                     39
                      A                      A                      A
 Frequencies --    910.0653               923.9882               930.5375
 Red. masses --      1.6889                 1.3699                 1.6236
 Frc consts  --      0.8241                 0.6891                 0.8283
 IR Inten    --      2.8826                 4.4267                 4.0581

                     40                     41                     42
                      A                      A                      A
 Frequencies --    935.4734               940.6255               966.3806
 Red. masses --      2.0938                 1.2929                 1.3418
 Frc consts  --      1.0796                 0.6740                 0.7383
 IR Inten    --      7.6717                 0.2748                 0.3380

                     43                     44                     45
                      A                      A                      A
 Frequencies --    991.0693              1021.8664              1031.7524
 Red. masses --      1.2438                 5.6809                 2.5668
 Frc consts  --      0.7198                 3.4951                 1.6099
 IR Inten    --      0.2088                 0.4605                 0.8393

                     46                     47                     48
                      A                      A                      A
 Frequencies --   1036.0872              1057.5821              1066.3581
 Red. masses --      2.1025                 5.2693                 2.0949
 Frc consts  --      1.3298                 3.4724                 1.4035
 IR Inten    --     18.5384                81.5288                 6.2145

                     49                     50                     51
                      A                      A                      A
 Frequencies --   1099.2227              1102.6213              1127.8274
 Red. masses --      2.2187                 3.3941                 1.3012
 Frc consts  --      1.5795                 2.4312                 0.9752
 IR Inten    --     59.6517                33.6254                13.7119

                     52                     53                     54
                      A                      A                      A
 Frequencies --   1137.9836              1191.0412              1194.7229
 Red. masses --      1.7910                 1.1289                 1.0934
 Frc consts  --      1.3665                 0.9435                 0.9195
 IR Inten    --      4.1949                 2.0764                 0.3296

                     55                     56                     57
                      A                      A                      A
 Frequencies --   1210.2649              1211.0645              1220.7300
 Red. masses --      1.6593                 1.4759                 1.1395
 Frc consts  --      1.4320                 1.2754                 1.0004
 IR Inten    --     36.1965               138.9594                 3.8162

                     58                     59                     60
                      A                      A                      A
 Frequencies --   1246.5516              1255.1741              1285.4477
 Red. masses --      1.6335                 1.9479                 1.4433
 Frc consts  --      1.4956                 1.8081                 1.4052
 IR Inten    --     65.3386               132.5345                 4.3702

                     61                     62                     63
                      A                      A                      A
 Frequencies --   1298.1721              1314.7323              1331.3960
 Red. masses --      1.6961                 4.3561                 1.7976
 Frc consts  --      1.6841                 4.4363                 1.8774
 IR Inten    --     57.3059                 9.5383                 3.2379

                     64                     65                     66
                      A                      A                      A
 Frequencies --   1351.3733              1371.0082              1382.2157
 Red. masses --      1.9524                 1.9498                 2.5445
 Frc consts  --      2.1008                 2.1593                 2.8642
 IR Inten    --      3.9325                 0.3208                39.6660

                     67                     68                     69
                      A                      A                      A
 Frequencies --   1404.9044              1412.5618              1429.4264
 Red. masses --      1.2862                 1.4026                 1.2884
 Frc consts  --      1.4957                 1.6490                 1.5511
 IR Inten    --      7.5231                 6.1947                19.9731

                     70                     71                     72
                      A                      A                      A
 Frequencies --   1440.5164              1487.7241              1505.1354
 Red. masses --      1.2473                 2.8623                 2.1620
 Frc consts  --      1.5250                 3.7325                 2.8857
 IR Inten    --     35.4378                33.6936                 6.8090

                     73                     74                     75
                      A                      A                      A
 Frequencies --   1528.2111              1531.7657              1549.1811
 Red. masses --      1.1168                 1.1059                 2.1433
 Frc consts  --      1.5367                 1.5288                 3.0307
 IR Inten    --      5.3072                 4.5657                 7.6811

                     76                     77                     78
                      A                      A                      A
 Frequencies --   1563.8140              1644.5811              1655.2063
 Red. masses --      2.5854                 5.3690                 6.2282
 Frc consts  --      3.7252                 8.5557                10.0535
 IR Inten    --    185.8561                 1.3317                 6.9761

                     79                     80                     81
                      A                      A                      A
 Frequencies --   1667.0831              1680.8438              3013.6696
 Red. masses --      5.5523                 6.1610                 1.0684
 Frc consts  --      9.0916                10.2555                 5.7172
 IR Inten    --      3.3417                 2.9662                57.1437

                     82                     83                     84
                      A                      A                      A
 Frequencies --   3047.0076              3072.3358              3094.0458
 Red. masses --      1.0839                 1.0576                 1.0966
 Frc consts  --      5.9290                 5.8819                 6.1850
 IR Inten    --     24.1985                30.1365                44.3682

                     85                     86                     87
                      A                      A                      A
 Frequencies --   3120.1411              3170.2649              3175.1273
 Red. masses --      1.1080                 1.0896                 1.0863
 Frc consts  --      6.3552                 6.4521                 6.4527
 IR Inten    --     41.7695                18.6563                 5.6872

                     88                     89                     90
                      A                      A                      A
 Frequencies --   3186.7523              3196.6555              3200.0216
 Red. masses --      1.0874                 1.0913                 1.0879
 Frc consts  --      6.5063                 6.5702                 6.5639
 IR Inten    --      4.2314                20.7393                 8.3681

                     91                     92                     93
                      A                      A                      A
 Frequencies --   3207.1962              3217.8671              3218.0546
 Red. masses --      1.0947                 1.0947                 1.0942
 Frc consts  --      6.6341                 6.6783                 6.6762
 IR Inten    --     28.0310                 7.4949                 6.2151

                     94                     95                     96
                      A                      A                      A
 Frequencies --   3226.8303              3722.0641              3755.3671
 Red. masses --      1.0925                 1.0656                 1.0659
 Frc consts  --      6.7025                 8.6976                 8.8568
 IR Inten    --      4.0712                19.9820                37.2784

 - Thermochemistry -
 -------------------
 Temperature   298.150 Kelvin.  Pressure   1.00000 Atm.
 Atom     1 has atomic number  6 and mass  12.00000

 Molecular mass:   244.10994 amu.
 Principal axes and moments of inertia in atomic units:
                           1         2         3
     Eigenvalues --  2867.322615200.066906432.75109
           X            0.99981  -0.01883  -0.00485
           Y            0.01871   0.99952  -0.02456
           Z            0.00531   0.02446   0.99969
 This molecule is an asymmetric top.
 Rotational symmetry number  1.
 Warning -- assumption of classical behavior for rotation
           may cause significant error
 Rotational temperatures (Kelvin)      0.03021     0.01666     0.01346
 Rotational constants (GHZ):           0.62942     0.34706     0.28056
 Zero-point vibrational energy     739112.3 (Joules/Mol)
                                  176.65209 (Kcal/Mol)
 Warning -- explicit consideration of  24 degrees of freedom as
           vibrations may cause significant error
 Vibrational temperatures:     38.24    57.24    83.36    92.04   132.76
          (Kelvin)            153.08   208.62   272.32   302.39   375.48
                              417.87   441.95   479.53   515.02   564.16
                              588.41   618.24   636.60   646.15   674.89
                              703.81   743.81   791.76   820.64   915.77
                              946.33   972.49  1037.34  1040.48  1081.01
                             1097.45  1150.01  1158.70  1213.67  1238.52
                             1245.12  1309.38  1329.41  1338.84  1345.94
                             1353.35  1390.41  1425.93  1470.24  1484.46
                             1490.70  1521.62  1534.25  1581.54  1586.43
                             1622.69  1637.30  1713.64  1718.94  1741.30
                             1742.45  1756.36  1793.51  1805.92  1849.47
                             1867.78  1891.61  1915.58  1944.32  1972.58
                             1988.70  2021.34  2032.36  2056.63  2072.58
                             2140.50  2165.55  2198.75  2203.87  2228.93
                             2249.98  2366.19  2381.47  2398.56  2418.36
                             4336.00  4383.96  4420.41  4451.64  4489.19
                             4561.30  4568.30  4585.03  4599.27  4604.12
                             4614.44  4629.79  4630.06  4642.69  5355.22
                             5403.14

 Zero-point correction=                           0.281513 (Hartree/Particle)
 Thermal correction to Energy=                    0.297446
 Thermal correction to Enthalpy=                  0.298390
 Thermal correction to Gibbs Free Energy=         0.237134
 Sum of electronic and zero-point Energies=           -806.657993
 Sum of electronic and thermal Energies=              -806.642061
 Sum of electronic and thermal Enthalpies=            -806.641116
 Sum of electronic and thermal Free Energies=         -806.702373

                     E (Thermal)             CV                S
                      KCal/Mol        Cal/Mol-Kelvin    Cal/Mol-Kelvin
 Total                  186.650             62.601            128.924
 Electronic               0.000              0.000              0.000
 Translational            0.889              2.981             42.378
 Rotational               0.889              2.981             32.928
 Vibrational            184.872             56.639             53.618
 Vibration     1          0.593              1.984              6.070
 Vibration     2          0.594              1.981              5.270
 Vibration     3          0.596              1.974              4.526
 Vibration     4          0.597              1.971              4.331
 Vibration     5          0.602              1.955              3.611
 Vibration     6          0.605              1.944              3.334
 Vibration     7          0.616              1.908              2.737
 Vibration     8          0.633              1.855              2.235
 Vibration     9          0.642              1.825              2.042
 Vibration    10          0.669              1.744              1.655
 Vibration    11          0.686              1.692              1.471
 Vibration    12          0.697              1.660              1.378
 Vibration    13          0.715              1.609              1.244
 Vibration    14          0.733              1.559              1.131
 Vibration    15          0.760              1.487              0.992
 Vibration    16          0.773              1.451              0.930
 Vibration    17          0.791              1.406              0.860
 Vibration    18          0.802              1.378              0.819
 Vibration    19          0.808              1.363              0.799
 Vibration    20          0.826              1.319              0.740
 Vibration    21          0.845              1.274              0.686
 Vibration    22          0.872              1.212              0.617
 Vibration    23          0.906              1.139              0.544
 Vibration    24          0.926              1.095              0.504

                           ! Non-Optimized Parameters !
 Normal termination of Gaussian 16 at Fri Dec 11 18:55:35 2020.

 ----------------------------------------------------------------------
 # B3LYP/6-311++G(d,p) empiricaldispersion=gd3bj scf=xqc pop=npa geom=c
 heck
 ----------------------------------------------------------------------

 ---------------------------------------
 CID_117243095_JID_8110_Energie_neutraal
 ---------------------------------------
 Structure from the checkpoint file:  "JID_8110.chk"
 Charge =  0 Multiplicity = 1

 SCF Done:  E(RB3LYP) =  -807.175921452     A.U. after   15 cycles
 Normal termination of Gaussian 16 at Fri Dec 11 19:01:10 2020.

 ----------------------------------------------------------------------
 # B3LYP/6-311++G(d,p) empiricaldispersion=gd3bj scf=xqc pop=npa geom=c
 heck
 ----------------------------------------------------------------------

 -------------------------------------
 CID_117243095_JID_8110_Energie_kation
 -------------------------------------
 Structure from the checkpoint file:  "JID_8110.chk"
 Charge =  1 Multiplicity = 2

 SCF Done:  E(UB3LYP) =  -806.899560723     A.U. after   22 cycles
 Normal termination of Gaussian 16 at Fri Dec 11 19:12:04 2020.
 Gaussian 16:  ES64L-G16RevA.03 25-Dec-2016

 ----------------------------------------------------------------------
 # B3LYP/6-311++G(d,p) empiricaldispersion=gd3bj scf=xqc pop=npa geom=c
 heck
 ----------------------------------------------------------------------

 ------------------------------------
 CID_117243095_JID_8110_Energie_anion
 ------------------------------------
 Structure from the checkpoint file:  "JID_8110.chk"
 Charge = -1 Multiplicity = 2

                         Standard orientation:
 ---------------------------------------------------------------------
 Center     Atomic      Atomic             Coordinates (Angstroms)
 Number     Number       Type             X           Y           Z
 ---------------------------------------------------------------------
      1          6           0       -0.045190    2.977776    0.313083
      2          6           0       -0.012984    1.929078    1.232409
      3          6           0        0.737854    0.784716    0.966741
      4          6           0        1.460477    0.659535   -0.230006
      5          6           0        1.426656    1.724531   -1.137424
      6          6           0        0.681281    2.873263   -0.873262
      7          6           0        2.276147   -0.580063   -0.548074
      8          6           0        3.585477   -0.606943    0.270061
      9          8           0        3.372945   -0.658126    1.673353
     10          6           0        1.506323   -1.895071   -0.358455
     11          8           0        0.352241   -1.976826   -1.199505
     12          6           0       -0.813369   -1.428984   -0.701230
     13          6           0       -1.399441   -1.895718    0.478668
     14          6           0       -2.566034   -1.309873    0.962397
     15          6           0       -3.166002   -0.264032    0.255935
     16          6           0       -2.599542    0.178962   -0.942481
     17          6           0       -1.426364   -0.402259   -1.416773
     18          8           0       -4.307529    0.283668    0.782965
     19          1           0       -0.635409    3.866635    0.517331
     20          1           0       -0.585451    1.992230    2.153309
     21          1           0        0.711657   -0.038685    1.672312
     22          1           0        1.979443    1.643043   -2.070351
     23          1           0        0.662788    3.682934   -1.597782
     24          1           0        2.565125   -0.530036   -1.606188
     25          1           0        4.156462   -1.508730    0.023491
     26          1           0        4.198713    0.263518   -0.007477
     27          1           0        2.950609    0.179578    1.924227
     28          1           0        2.148065   -2.730584   -0.655234
     29          1           0        1.237939   -2.040598    0.692483
     30          1           0       -0.938743   -2.715197    1.021845
     31          1           0       -3.028639   -1.657246    1.880457
     32          1           0       -3.062583    0.993589   -1.495893
     33          1           0       -0.955152   -0.042791   -2.324483
     34          1           0       -4.617804    0.983103    0.187910
 ---------------------------------------------------------------------

 SCF Done:  E(UB3LYP) =  -807.165664525     A.U. after   33 cycles
 SCF Done:  E(UB3LYP) =  -807.165664525     a.u. after    1 cycles

 The electronic state is 2-A.
 Alpha  occ. eigenvalues --  -19.05330 -19.04895 -19.04251 -10.13888 -10.13707
 Alpha  occ. eigenvalues --  -10.13671 -10.13054 -10.09620 -10.09377 -10.08549
 Alpha  occ. eigenvalues --  -10.08410 -10.08349 -10.08209 -10.08196 -10.08128
 Alpha  occ. eigenvalues --  -10.08056 -10.07993 -10.07934  -0.96480  -0.96287
 Alpha  occ. eigenvalues --   -0.94488  -0.77116  -0.76006  -0.71353  -0.66276
 Alpha  occ. eigenvalues --   -0.65652  -0.65494  -0.63503  -0.59269  -0.54609
 Alpha  occ. eigenvalues --   -0.53080  -0.51913  -0.50552  -0.48542  -0.45446
 Alpha  occ. eigenvalues --   -0.43997  -0.42709  -0.42058  -0.39607  -0.38683
 Alpha  occ. eigenvalues --   -0.37583  -0.36715  -0.35794  -0.35283  -0.33676
 Alpha  occ. eigenvalues --   -0.33553  -0.32831  -0.32765  -0.32069  -0.31426
 Alpha  occ. eigenvalues --   -0.29610  -0.29013  -0.27694  -0.27303  -0.25964
 Alpha  occ. eigenvalues --   -0.25870  -0.24938  -0.24265  -0.23050  -0.20594
 Alpha  occ. eigenvalues --   -0.18903  -0.16765  -0.16388  -0.16106  -0.11793
 Alpha  occ. eigenvalues --    0.04058
 Alpha virt. eigenvalues --    0.05728   0.06668   0.06942   0.07284   0.07424
 Alpha virt. eigenvalues --    0.07758   0.07891   0.08401   0.08872   0.09492
 Alpha virt. eigenvalues --    0.09532   0.10466   0.10610   0.11359   0.11761

  Beta  occ. eigenvalues --  -19.05281 -19.04891 -19.04244 -10.13889 -10.13702
  Beta  occ. eigenvalues --  -10.13654 -10.13053 -10.09612 -10.09378 -10.08546
  Beta  occ. eigenvalues --  -10.08403 -10.08343 -10.08193 -10.08188 -10.08112
  Beta  occ. eigenvalues --  -10.08041 -10.07975 -10.07919  -0.96466  -0.96200
  Beta  occ. eigenvalues --   -0.94472  -0.77095  -0.75986  -0.71329  -0.66253
  Beta  occ. eigenvalues --   -0.65622  -0.65467  -0.63471  -0.59236  -0.54574
  Beta  occ. eigenvalues --   -0.53048  -0.51879  -0.50512  -0.48511  -0.45386
  Beta  occ. eigenvalues --   -0.43964  -0.42669  -0.42033  -0.39575  -0.38661
  Beta  occ. eigenvalues --   -0.37555  -0.36687  -0.35757  -0.35250  -0.33645
  Beta  occ. eigenvalues --   -0.33526  -0.32801  -0.32741  -0.32049  -0.31401
  Beta  occ. eigenvalues --   -0.29578  -0.28979  -0.27672  -0.27280  -0.25934
  Beta  occ. eigenvalues --   -0.25844  -0.24910  -0.24244  -0.23029  -0.20578
  Beta  occ. eigenvalues --   -0.18888  -0.16751  -0.16372  -0.16091  -0.11777
  Beta virt. eigenvalues --    0.06135   0.06656   0.07162   0.07337   0.07435
  Beta virt. eigenvalues --    0.07639   0.07972   0.08396   0.08852   0.09237
  Beta virt. eigenvalues --    0.09670   0.09795   0.10737   0.11064   0.11425

 Mulliken charges and spin densities:
               1          2
     1  C    1.192214  -1.552695
     2  C   -0.610418   0.335764
     3  C   -0.675568   0.300198
     4  C   -0.183808   0.581252
     5  C   -0.694434   0.654639
     6  C    0.869334  -1.292592
     7  C    1.054633  -0.597178
     8  C    0.347695  -0.971949
     9  O   -0.227415  -0.006724
    10  C   -0.299248  -0.236612
    11  O   -0.049177   0.000598
    12  C   -0.681611   0.120179
    13  C    0.111362   0.221066
    14  C    0.529369  -0.661235
    15  C    0.916169  -1.458330
    16  C   -0.530893   0.496908
    17  C    0.026991   0.119757
    18  O   -0.264992   0.060239
    19  H   -0.459613   0.636465
    20  H   -0.085671   0.272833
    21  H    0.225302  -0.027795
    22  H   -0.478827   0.653182
    23  H   -0.632005   0.821323
    24  H   -0.139169   0.370062
    25  H   -0.086955   0.260776
    26  H   -0.020565   0.183526
    27  H    0.162942   0.091945
    28  H    0.091311   0.074458
    29  H    0.110297   0.031538
    30  H    0.119208   0.042495
    31  H    0.152005   0.030438
    32  H   -0.691829   0.876174
    33  H    0.198766  -0.005752
    34  H   -0.295398   0.575045
 Sum of Mulliken charges =  -1.00000   1.00000

 Dipole moment (field-independent basis, Debye):
    X=              3.7103    Y=             -6.2635    Z=              2.8604  Tot=              7.8217
 Quadrupole moment (field-independent basis, Debye-Ang):
   XX=           -187.8148   YY=           -160.2575   ZZ=           -141.7079
   XY=             12.0235   XZ=             -0.7061   YZ=              5.3038

 Summary of Natural Population Analysis:

                                       Natural Population
                Natural  -----------------------------------------------
    Atom  No    Charge         Core      Valence    Rydberg      Total
 -----------------------------------------------------------------------
      C    1   -0.09916      0.99955     2.08876    0.01084     3.09916
      C    2   -0.09342      0.99955     2.08337    0.01049     3.09342
      C    3   -0.11698      0.99950     2.10672    0.01076     3.11698
      C    4   -0.02292      0.99949     2.00861    0.01483     3.02292
      C    5   -0.09752      0.99950     2.08733    0.01068     3.09752
      C    6   -0.09343      0.99955     2.08318    0.01069     3.09343
      C    7   -0.14345      0.99955     2.13112    0.01279     3.14345
      C    8   -0.00380      0.99957     1.99113    0.01309     3.00380
      O    9   -0.37158      0.99990     3.36541    0.00628     4.37158
      C   10   -0.00316      0.99952     1.99084    0.01280     3.00316
      O   11   -0.29114      0.99986     3.28217    0.00912     4.29114
      C   12    0.13823      0.99935     1.84824    0.01419     2.86177
      C   13   -0.12180      0.99951     2.11464    0.00766     3.12180
      C   14   -0.12307      0.99952     2.11348    0.01007     3.12307
      C   15    0.15103      0.99938     1.83576    0.01382     2.84897
      C   16   -0.12722      0.99952     2.11658    0.01112     3.12722
      C   17   -0.10434      0.99951     2.09446    0.01037     3.10434
      O   18   -0.34206      0.99988     3.33533    0.00685     4.34206
      H   19    0.10485      0.00000     0.39347    0.00168     0.39515
      H   20    0.10242      0.00000     0.39658    0.00100     0.39758
      H   21    0.10375      0.00000     0.39442    0.00183     0.39625
      H   22    0.10157      0.00000     0.39620    0.00224     0.39843
      H   23    0.10442      0.00000     0.39361    0.00197     0.39558
      H   24    0.10709      0.00000     0.39079    0.00212     0.39291
      H   25    0.08623      0.00000     0.41257    0.00120     0.41377
      H   26    0.08258      0.00000     0.41623    0.00119     0.41742
      H   27    0.23243      0.00000     0.26455    0.00302     0.26757
      H   28    0.09047      0.00000     0.40847    0.00106     0.40953
      H   29    0.08796      0.00000     0.41067    0.00137     0.41204
      H   30    0.10168      0.00000     0.39740    0.00092     0.39832
      H   31    0.10439      0.00000     0.39479    0.00082     0.39561
      H   32    0.10679      0.00000     0.39080    0.00241     0.39321
      H   33    0.10872      0.00000     0.38960    0.00168     0.39128
      H   34    0.24044      0.00000     0.24866    0.01090     0.25956
 =======================================================================
   * Total *    0.00000     17.99221    46.77594    0.23185    65.00000

 Normal termination of Gaussian 16 at Fri Dec 11 19:28:42 2020.
