 Gaussian 16, Revision A.03,

 -----------------------------------------------------------
 # opt freq B3LYP/6-31G(d) empiricaldispersion=gd3bj scf=xqc
 -----------------------------------------------------------

 -----------------------------
 CID_84763535_JID_527_neutraal
 -----------------------------
 Symbolic Z-matrix:
 Charge =  0 Multiplicity = 1

 SCF Done:  E(RB3LYP) =  -784.311278665     A.U. after   14 cycles
 SCF Done:  E(RB3LYP) =  -784.313482842     A.U. after   12 cycles
 SCF Done:  E(RB3LYP) =  -784.313798073     A.U. after   10 cycles
 SCF Done:  E(RB3LYP) =  -784.313855916     A.U. after   10 cycles
 SCF Done:  E(RB3LYP) =  -784.313894508     A.U. after   11 cycles
 SCF Done:  E(RB3LYP) =  -784.313913168     A.U. after    9 cycles
 SCF Done:  E(RB3LYP) =  -784.313950634     A.U. after   10 cycles
 SCF Done:  E(RB3LYP) =  -784.313968325     A.U. after   10 cycles
 SCF Done:  E(RB3LYP) =  -784.313969381     A.U. after    8 cycles
 SCF Done:  E(RB3LYP) =  -784.313969789     A.U. after    8 cycles
 SCF Done:  E(RB3LYP) =  -784.313969887     A.U. after    7 cycles
 SCF Done:  E(RB3LYP) =  -784.313969920     A.U. after    7 cycles
 Optimization completed.
    -- Stationary point found.
 Normal termination of Gaussian 16 at Tue Dec  8 12:11:27 2020.

 --------------------------------------------------------------------
 #N Geom=AllCheck Guess=TCheck SCRF=Check GenChk RB3LYP/6-31G(d) Freq
 --------------------------------------------------------------------

 Structure from the checkpoint file:  "JID_527.chk"
 -----------------------------
 CID_84763535_JID_527_neutraal
 -----------------------------
 Charge =  0 Multiplicity = 1

 SCF Done:  E(RB3LYP) =  -784.313969920     A.U. after    1 cycles

  Exact polarizability: 126.864   2.059 101.951  -1.524  -0.745  62.492
 Approx polarizability: 164.905  -0.326 171.559  -3.707  -2.681  97.548

                      1                      2                      3
                      A                      A                      A
 Frequencies --     72.1704               124.2091               181.6956
 Red. masses --      3.9647                 1.0795                 3.1010
 Frc consts  --      0.0122                 0.0098                 0.0603
 IR Inten    --      0.6272                 0.0412                 7.9355

                      4                      5                      6
                      A                      A                      A
 Frequencies --    191.9189               228.0967               277.2018
 Red. masses --      2.6434                 3.2637                 2.0643
 Frc consts  --      0.0574                 0.1000                 0.0935
 IR Inten    --      0.4117                 0.9586                 0.5210

                      7                      8                      9
                      A                      A                      A
 Frequencies --    312.4538               341.7487               394.0488
 Red. masses --      2.9810                 8.5063                 3.5830
 Frc consts  --      0.1715                 0.5853                 0.3278
 IR Inten    --      0.6432                 0.1326                 0.3466

                     10                     11                     12
                      A                      A                      A
 Frequencies --    473.7382               608.9660               632.7185
 Red. masses --      3.4461                 4.2259                 4.7737
 Frc consts  --      0.4557                 0.9233                 1.1260
 IR Inten    --      1.4238                 0.5101                 0.0209

                     13                     14                     15
                      A                      A                      A
 Frequencies --    643.7590               662.7370               700.0918
 Red. masses --      3.8971                 4.8776                 2.9775
 Frc consts  --      0.9516                 1.2622                 0.8598
 IR Inten    --      2.4031                 4.1085                 2.5533

                     16                     17                     18
                      A                      A                      A
 Frequencies --    737.1210               795.2894               808.9027
 Red. masses --      5.5677                 3.6296                 1.2505
 Frc consts  --      1.7824                 1.3526                 0.4821
 IR Inten    --      2.8580                 5.5479                16.3586

                     19                     20                     21
                      A                      A                      A
 Frequencies --    870.4936               922.8283               976.8693
 Red. masses --      1.7393                 1.7329                 3.2036
 Frc consts  --      0.7765                 0.8695                 1.8012
 IR Inten    --      1.6374                 4.8163                 7.5557

                     22                     23                     24
                      A                      A                      A
 Frequencies --    995.3819              1024.4851              1028.5241
 Red. masses --      2.1153                 1.8404                 1.9273
 Frc consts  --      1.2348                 1.1381                 1.2013
 IR Inten    --      7.4213                 1.2005                 8.1085

                     25                     26                     27
                      A                      A                      A
 Frequencies --   1080.7395              1150.8549              1159.6983
 Red. masses --      1.4529                 3.1487                 1.6449
 Frc consts  --      0.9998                 2.4571                 1.3034
 IR Inten    --      2.4764                19.0221                 3.5722

                     28                     29                     30
                      A                      A                      A
 Frequencies --   1179.0817              1196.1080              1221.4114
 Red. masses --      1.2075                 1.3512                 1.3578
 Frc consts  --      0.9891                 1.1390                 1.1935
 IR Inten    --      0.9855                 2.3433                13.5003

                     31                     32                     33
                      A                      A                      A
 Frequencies --   1262.4075              1274.5330              1299.9882
 Red. masses --      2.3508                 1.4170                 3.2179
 Frc consts  --      2.2073                 1.3562                 3.2040
 IR Inten    --     18.7059                 1.7462                13.7047

                     34                     35                     36
                      A                      A                      A
 Frequencies --   1339.1028              1381.0701              1443.3795
 Red. masses --      1.2490                 1.8502                 2.9196
 Frc consts  --      1.3196                 2.0792                 3.5838
 IR Inten    --     10.6245                 7.2298                 1.6804

                     37                     38                     39
                      A                      A                      A
 Frequencies --   1445.5620              1492.8201              1502.5385
 Red. masses --      1.4136                 1.0995                 1.0430
 Frc consts  --      1.7404                 1.4436                 1.3874
 IR Inten    --      6.8385                 4.7853                 6.0846

                     40                     41                     42
                      A                      A                      A
 Frequencies --   1504.8336              1510.2179              1522.4407
 Red. masses --      1.1074                 1.1159                 1.1238
 Frc consts  --      1.4775                 1.4995                 1.5347
 IR Inten    --      1.6769                 0.0197                 6.2870

                     43                     44                     45
                      A                      A                      A
 Frequencies --   1634.0012              1693.6146              3033.2067
 Red. masses --      6.8433                 7.2823                 1.0588
 Frc consts  --     10.7652                12.3069                 5.7395
 IR Inten    --     17.7444                10.1623                33.4148

                     46                     47                     48
                      A                      A                      A
 Frequencies --   3043.8508              3045.0885              3061.3318
 Red. masses --      1.0393                 1.0633                 1.0915
 Frc consts  --      5.6736                 5.8089                 6.0269
 IR Inten    --     46.2817                26.3862                 4.7903

                     49                     50                     51
                      A                      A                      A
 Frequencies --   3076.5333              3093.0072              3097.6007
 Red. masses --      1.0732                 1.1015                 1.0990
 Frc consts  --      5.9848                 6.2089                 6.2130
 IR Inten    --     36.7449                18.1711                 8.9319

                     52                     53                     54
                      A                      A                      A
 Frequencies --   3132.5608              3140.9884              3258.7045
 Red. masses --      1.1044                 1.0993                 1.0967
 Frc consts  --      6.3852                 6.3898                 6.8614
 IR Inten    --     13.4346                11.9745                 6.7412

 - Thermochemistry -
 -------------------
 Temperature   298.150 Kelvin.  Pressure   1.00000 Atm.
 Atom     1 has atomic number  6 and mass  12.00000

 Molecular mass:   154.04524 amu.
 Principal axes and moments of inertia in atomic units:
                           1         2         3
     Eigenvalues --   616.148272445.798182960.24841
           X            0.99983   0.01698   0.00707
           Y           -0.01695   0.99985  -0.00436
           Z           -0.00714   0.00424   0.99997
 This molecule is an asymmetric top.
 Rotational symmetry number  1.
 Warning -- assumption of classical behavior for rotation
           may cause significant error
 Rotational temperatures (Kelvin)      0.14057     0.03541     0.02926
 Rotational constants (GHZ):           2.92907     0.73789     0.60966
 Zero-point vibrational energy     432346.7 (Joules/Mol)
                                  103.33334 (Kcal/Mol)
 Warning -- explicit consideration of  11 degrees of freedom as
           vibrations may cause significant error
 Vibrational temperatures:    103.84   178.71   261.42   276.13   328.18
          (Kelvin)            398.83   449.55   491.70   566.95   681.60
                              876.17   910.34   926.23   953.53  1007.28
                             1060.55  1144.24  1163.83  1252.45  1327.74
                             1405.50  1432.13  1474.01  1479.82  1554.94
                             1655.82  1668.55  1696.44  1720.93  1757.34
                             1816.32  1833.77  1870.39  1926.67  1987.05
                             2076.70  2079.84  2147.84  2161.82  2165.12
                             2172.87  2190.45  2350.96  2436.73  4364.11
                             4379.42  4381.20  4404.57  4426.45  4450.15
                             4456.76  4507.06  4519.18  4688.55

 Zero-point correction=                           0.164672 (Hartree/Particle)
 Thermal correction to Energy=                    0.173847
 Thermal correction to Enthalpy=                  0.174791
 Thermal correction to Gibbs Free Energy=         0.130146
 Sum of electronic and zero-point Energies=           -784.149298
 Sum of electronic and thermal Energies=              -784.140123
 Sum of electronic and thermal Enthalpies=            -784.139179
 Sum of electronic and thermal Free Energies=         -784.183824

                     E (Thermal)             CV                S
                      KCal/Mol        Cal/Mol-Kelvin    Cal/Mol-Kelvin
 Total                  109.091             35.057             93.963
 Electronic               0.000              0.000              0.000
 Translational            0.889              2.981             41.006
 Rotational               0.889              2.981             29.879
 Vibrational            107.313             29.095             23.078
 Vibration     1          0.598              1.967              4.093
 Vibration     2          0.610              1.929              3.034
 Vibration     3          0.630              1.865              2.311
 Vibration     4          0.634              1.851              2.209
 Vibration     5          0.651              1.798              1.894
 Vibration     6          0.678              1.716              1.551
 Vibration     7          0.701              1.650              1.349
 Vibration     8          0.721              1.592              1.204
 Vibration     9          0.761              1.483              0.985
 Vibration    10          0.831              1.308              0.727
 Vibration    11          0.968              1.013              0.434

 Optimization completed.
    -- Stationary point found.
 Normal termination of Gaussian 16 at Tue Dec  8 12:16:07 2020.

 ----------------------------------------------------------------------
 # B3LYP/6-311++G(d,p) empiricaldispersion=gd3bj scf=xqc pop=npa geom=c
 heck
 ----------------------------------------------------------------------

 -------------------------------------
 CID_84763535_JID_527_Energie_neutraal
 -------------------------------------
 Structure from the checkpoint file:  "JID_527.chk"
 Charge =  0 Multiplicity = 1

 SCF Done:  E(RB3LYP) =  -784.443222074     A.U. after   14 cycles
 Normal termination of Gaussian 16 at Tue Dec  8 12:17:45 2020.

 ----------------------------------------------------------------------
 # B3LYP/6-311++G(d,p) empiricaldispersion=gd3bj scf=xqc pop=npa geom=c
 heck
 ----------------------------------------------------------------------

 -----------------------------------
 CID_84763535_JID_527_Energie_kation
 -----------------------------------
 Structure from the checkpoint file:  "JID_527.chk"
 Charge =  1 Multiplicity = 2

 SCF Done:  E(UB3LYP) =  -784.158287640     A.U. after   20 cycles
 Normal termination of Gaussian 16 at Tue Dec  8 12:22:57 2020.
 Gaussian 16:  ES64L-G16RevA.03 25-Dec-2016

 ----------------------------------------------------------------------
 # B3LYP/6-311++G(d,p) empiricaldispersion=gd3bj scf=xqc pop=npa geom=c
 heck
 ----------------------------------------------------------------------

 ----------------------------------
 CID_84763535_JID_527_Energie_anion
 ----------------------------------
 Structure from the checkpoint file:  "JID_527.chk"
 Charge = -1 Multiplicity = 2

                         Standard orientation:
 ---------------------------------------------------------------------
 Center     Atomic      Atomic             Coordinates (Angstroms)
 Number     Number       Type             X           Y           Z
 ---------------------------------------------------------------------
      1          6           0       -3.794717    0.023091   -0.066438
      2          6           0       -2.318810   -0.146298   -0.009008
      3          6           0       -1.497569   -1.226471    0.113373
      4          6           0       -0.146363   -0.726922    0.094465
      5          6           0       -0.246858    0.625887   -0.030199
      6          8           0       -1.563033    0.998832   -0.097124
      7          6           0        0.814169    1.668500   -0.092630
      8          6           0        2.128037    1.099395    0.459792
      9         16           0        2.593323   -0.496031   -0.322939
     10          6           0        1.136651   -1.493444    0.203022
     11          1           0       -4.282373   -0.951944    0.016888
     12          1           0       -4.110727    0.485214   -1.009885
     13          1           0       -4.159182    0.660004    0.749066
     14          1           0       -1.809948   -2.258347    0.201141
     15          1           0        0.517423    2.544106    0.500573
     16          1           0        0.963007    2.015550   -1.124080
     17          1           0        2.056124    0.956861    1.543261
     18          1           0        2.961213    1.779181    0.262939
     19          1           0        1.131511   -2.368500   -0.455416
     20          1           0        1.296809   -1.858714    1.225265
 ---------------------------------------------------------------------

 SCF Done:  E(UB3LYP) =  -784.425162460     A.U. after   33 cycles
 SCF Done:  E(UB3LYP) =  -784.425162460     a.u. after    1 cycles

 The electronic state is 2-A.
 Alpha  occ. eigenvalues --  -88.74087 -19.07587 -10.11980 -10.11485 -10.10737
 Alpha  occ. eigenvalues --  -10.10320 -10.08412 -10.07129 -10.06750 -10.06013
 Alpha  occ. eigenvalues --   -7.82691  -5.79084  -5.78743  -5.78044  -1.00023
 Alpha  occ. eigenvalues --   -0.74271  -0.69929  -0.66590  -0.65130  -0.59518
 Alpha  occ. eigenvalues --   -0.53598  -0.50812  -0.48044  -0.42147  -0.40181
 Alpha  occ. eigenvalues --   -0.37193  -0.34916  -0.34050  -0.33335  -0.32138
 Alpha  occ. eigenvalues --   -0.30598  -0.30026  -0.28786  -0.28459  -0.27341
 Alpha  occ. eigenvalues --   -0.27296  -0.23515  -0.21504  -0.16757  -0.12971
 Alpha  occ. eigenvalues --   -0.10937   0.04818
 Alpha virt. eigenvalues --    0.06407   0.07710   0.08724   0.09152   0.09474
 Alpha virt. eigenvalues --    0.10160   0.10782   0.11435   0.11576   0.12268
 Alpha virt. eigenvalues --    0.12776   0.13983   0.15259   0.15328   0.16044

  Beta  occ. eigenvalues --  -88.74084 -19.07576 -10.11979 -10.11483 -10.10720
  Beta  occ. eigenvalues --  -10.10286 -10.08388 -10.07125 -10.06698 -10.05993
  Beta  occ. eigenvalues --   -7.82688  -5.79083  -5.78736  -5.78041  -1.00008
  Beta  occ. eigenvalues --   -0.74245  -0.69902  -0.66553  -0.65096  -0.59456
  Beta  occ. eigenvalues --   -0.53547  -0.50758  -0.47993  -0.42110  -0.40132
  Beta  occ. eigenvalues --   -0.37161  -0.34884  -0.34019  -0.33283  -0.32093
  Beta  occ. eigenvalues --   -0.30555  -0.29980  -0.28737  -0.28410  -0.27309
  Beta  occ. eigenvalues --   -0.27261  -0.23481  -0.21470  -0.16737  -0.12950
  Beta  occ. eigenvalues --   -0.10915
  Beta virt. eigenvalues --    0.07214   0.07669   0.08287   0.09142   0.09758
  Beta virt. eigenvalues --    0.10172   0.10504   0.11133   0.11811   0.12372
  Beta virt. eigenvalues --    0.12478   0.13038   0.14241   0.15203   0.15731

 Mulliken charges and spin densities:
               1          2
     1  C    4.653939  -5.290357
     2  C   -2.421994   2.397280
     3  C   -0.485340   0.675854
     4  C    0.172202   0.410857
     5  C   -0.272769   0.097973
     6  O   -0.103695   0.099994
     7  C    1.330550  -1.958635
     8  C   -0.039779  -0.256926
     9  S   -0.046858   0.127619
    10  C   -0.665501  -0.154106
    11  H   -0.763665   0.940064
    12  H   -0.286141   0.439306
    13  H   -0.332395   0.488109
    14  H   -0.942372   1.114150
    15  H   -0.384419   0.558586
    16  H   -0.004580   0.146314
    17  H    0.094206   0.078853
    18  H   -0.566661   0.790720
    19  H    0.184921  -0.034386
    20  H   -0.119648   0.328732
 Sum of Mulliken charges =  -1.00000   1.00000

 Dipole moment (field-independent basis, Debye):
    X=              5.0408    Y=             -0.5599    Z=             -1.0185  Tot=              5.1731
 Quadrupole moment (field-independent basis, Debye-Ang):
   XX=           -146.9579   YY=           -107.1825   ZZ=            -94.4731
   XY=            -12.5261   XZ=              0.5184   YZ=             -0.2497

 Summary of Natural Population Analysis:

                                       Natural Population
                Natural  -----------------------------------------------
    Atom  No    Charge         Core      Valence    Rydberg      Total
 -----------------------------------------------------------------------
      C    1   -0.30608      0.99963     2.30032    0.00613     3.30608
      C    2    0.15617      0.99948     1.82835    0.01600     2.84383
      C    3   -0.14551      0.99945     2.13665    0.00942     3.14551
      C    4   -0.08823      0.99947     2.07198    0.01678     3.08823
      C    5    0.18799      0.99935     1.80148    0.01119     2.81201
      O    6   -0.24748      0.99985     3.23635    0.01128     4.24748
      C    7   -0.22483      0.99960     2.21091    0.01432     3.22483
      C    8   -0.24660      0.99961     2.23523    0.01176     3.24660
      S    9    0.08349      4.99966     2.89956    0.01729     7.91651
      C   10   -0.24390      0.99955     2.23547    0.00888     3.24390
      H   11    0.11170      0.00000     0.38543    0.00287     0.38830
      H   12    0.10693      0.00000     0.39142    0.00164     0.39307
      H   13    0.10778      0.00000     0.39048    0.00174     0.39222
      H   14    0.10973      0.00000     0.38870    0.00157     0.39027
      H   15    0.11069      0.00000     0.38707    0.00224     0.38931
      H   16    0.10538      0.00000     0.39244    0.00218     0.39462
      H   17    0.10166      0.00000     0.39645    0.00188     0.39834
      H   18    0.10974      0.00000     0.38816    0.00210     0.39026
      H   19    0.10807      0.00000     0.39005    0.00188     0.39193
      H   20    0.10356      0.00000     0.39420    0.00225     0.39644
 =======================================================================
   * Total *    0.00025     13.99563    26.86071    0.14341    40.99975

 Normal termination of Gaussian 16 at Tue Dec  8 12:32:38 2020.
