 Gaussian 16, Revision A.03,

 -----------------------------------------------------------
 # opt freq B3LYP/6-31G(d) empiricaldispersion=gd3bj scf=xqc
 -----------------------------------------------------------

 ------------------------------
 CID_61397467_JID_4399_neutraal
 ------------------------------
 Symbolic Z-matrix:
 Charge =  0 Multiplicity = 1

 SCF Done:  E(RB3LYP) =  -1029.40472772     A.U. after   15 cycles
 SCF Done:  E(RB3LYP) =  -1029.40895295     A.U. after   12 cycles
 SCF Done:  E(RB3LYP) =  -1029.40922399     A.U. after   13 cycles
 SCF Done:  E(RB3LYP) =  -1029.40867026     A.U. after   13 cycles
 SCF Done:  E(RB3LYP) =  -1029.41016990     A.U. after   12 cycles
 SCF Done:  E(RB3LYP) =  -1029.40975046     A.U. after   12 cycles
 SCF Done:  E(RB3LYP) =  -1029.41033984     A.U. after   12 cycles
 SCF Done:  E(RB3LYP) =  -1029.41035915     A.U. after   11 cycles
 SCF Done:  E(RB3LYP) =  -1029.41037688     A.U. after   10 cycles
 SCF Done:  E(RB3LYP) =  -1029.41039006     A.U. after   10 cycles
 SCF Done:  E(RB3LYP) =  -1029.41039132     A.U. after    9 cycles
 SCF Done:  E(RB3LYP) =  -1029.41039171     A.U. after    8 cycles
 SCF Done:  E(RB3LYP) =  -1029.41039181     A.U. after    7 cycles
 Optimization completed.
    -- Stationary point found.
 Normal termination of Gaussian 16 at Thu Dec 10 09:25:23 2020.

 --------------------------------------------------------------------
 #N Geom=AllCheck Guess=TCheck SCRF=Check GenChk RB3LYP/6-31G(d) Freq
 --------------------------------------------------------------------

 Structure from the checkpoint file:  "JID_4399.chk"
 ------------------------------
 CID_61397467_JID_4399_neutraal
 ------------------------------
 Charge =  0 Multiplicity = 1

 SCF Done:  E(RB3LYP) =  -1029.41039181     A.U. after    1 cycles

  Exact polarizability: 153.143  -4.734 121.868  -7.001  -4.237  95.157
 Approx polarizability: 203.095 -15.048 202.942 -12.011 -17.602 153.809

                      1                      2                      3
                      A                      A                      A
 Frequencies --     26.2666                37.2247                50.7579
 Red. masses --      5.2827                 5.4897                 5.3357
 Frc consts  --      0.0021                 0.0045                 0.0081
 IR Inten    --      1.5913                 3.1979                 0.2320

                      4                      5                      6
                      A                      A                      A
 Frequencies --     84.1170                85.9249               105.9219
 Red. masses --      3.9277                 2.9264                 3.5968
 Frc consts  --      0.0164                 0.0127                 0.0238
 IR Inten    --      2.5329                 0.6590                 2.1972

                      7                      8                      9
                      A                      A                      A
 Frequencies --    138.9985               190.3215               204.1019
 Red. masses --      4.5122                 4.3303                 3.8086
 Frc consts  --      0.0514                 0.0924                 0.0935
 IR Inten    --      0.2322                 1.6764                 0.5036

                     10                     11                     12
                      A                      A                      A
 Frequencies --    219.1575               258.8056               268.4944
 Red. masses --      1.0750                 1.5066                 2.7737
 Frc consts  --      0.0304                 0.0595                 0.1178
 IR Inten    --      0.0225                 0.1368                 0.9225

                     13                     14                     15
                      A                      A                      A
 Frequencies --    332.4114               335.7254               346.7769
 Red. masses --      2.6012                 2.5557                 6.1938
 Frc consts  --      0.1693                 0.1697                 0.4388
 IR Inten    --      0.7059                 0.9939                 0.2144

                     16                     17                     18
                      A                      A                      A
 Frequencies --    379.0687               411.0963               465.4743
 Red. masses --      3.4108                 6.2098                 3.0276
 Frc consts  --      0.2888                 0.6183                 0.3865
 IR Inten    --      0.9552                 7.1516                 0.6626

                     19                     20                     21
                      A                      A                      A
 Frequencies --    508.8952               581.5091               624.0495
 Red. masses --      6.5670                 1.8484                 5.5835
 Frc consts  --      1.0020                 0.3683                 1.2811
 IR Inten    --      3.1360                36.6976                 6.1521

                     22                     23                     24
                      A                      A                      A
 Frequencies --    660.8414               671.7535               696.2033
 Red. masses --      3.4381                 2.3206                 4.1901
 Frc consts  --      0.8846                 0.6170                 1.1966
 IR Inten    --      5.7445                76.4273                51.5334

                     25                     26                     27
                      A                      A                      A
 Frequencies --    742.1871               759.4006               787.6054
 Red. masses --      4.4910                 4.5838                 4.1474
 Frc consts  --      1.4576                 1.5575                 1.5158
 IR Inten    --      5.6561                22.9278                32.9794

                     28                     29                     30
                      A                      A                      A
 Frequencies --    801.0046               839.3825               857.7402
 Red. masses --      1.2475                 1.6325                 2.0307
 Frc consts  --      0.4716                 0.6777                 0.8803
 IR Inten    --      2.4884                11.9872                 1.8299

                     31                     32                     33
                      A                      A                      A
 Frequencies --    885.8991               974.5234               977.7168
 Red. masses --      1.8214                 4.9832                 1.8356
 Frc consts  --      0.8422                 2.7883                 1.0339
 IR Inten    --      1.5319                41.2164                 5.3420

                     34                     35                     36
                      A                      A                      A
 Frequencies --    997.0741              1016.2092              1024.6498
 Red. masses --      1.3153                 9.6726                 4.4531
 Frc consts  --      0.7704                 5.8852                 2.7546
 IR Inten    --      1.2372                21.9449                10.6645

                     37                     38                     39
                      A                      A                      A
 Frequencies --   1040.7979              1093.7403              1135.6140
 Red. masses --      2.2861                 1.5598                 1.6162
 Frc consts  --      1.4591                 1.0994                 1.2280
 IR Inten    --      3.8931                 9.4109                15.7970

                     40                     41                     42
                      A                      A                      A
 Frequencies --   1150.4751              1159.8299              1188.4440
 Red. masses --      2.0082                 1.7145                 2.4034
 Frc consts  --      1.5661                 1.3589                 2.0000
 IR Inten    --      3.9001                37.7276               276.5702

                     43                     44                     45
                      A                      A                      A
 Frequencies --   1197.2745              1266.9204              1296.6587
 Red. masses --      1.8765                 1.3561                 1.3774
 Frc consts  --      1.5849                 1.2824                 1.3645
 IR Inten    --     10.0788                 8.6686                 6.6525

                     46                     47                     48
                      A                      A                      A
 Frequencies --   1313.1208              1320.7039              1361.9156
 Red. masses --      1.8435                 1.2042                 1.3138
 Frc consts  --      1.8728                 1.2375                 1.4358
 IR Inten    --     18.8964                 2.2125                 4.2824

                     49                     50                     51
                      A                      A                      A
 Frequencies --   1365.1325              1396.2421              1437.6548
 Red. masses --      2.0350                 1.3904                 1.2428
 Frc consts  --      2.2345                 1.5970                 1.5135
 IR Inten    --     22.0190                 0.6105                 0.8933

                     52                     53                     54
                      A                      A                      A
 Frequencies --   1444.1613              1473.4276              1489.1113
 Red. masses --      1.2159                 3.5889                 1.3312
 Frc consts  --      1.4941                 4.5906                 1.7393
 IR Inten    --      2.5934                37.8790                18.8550

                     55                     56                     57
                      A                      A                      A
 Frequencies --   1511.5793              1517.6257              1525.4421
 Red. masses --      7.3348                 1.0545                 1.0473
 Frc consts  --      9.8741                 1.4309                 1.4359
 IR Inten    --    101.8516                 4.7452                 7.6010

                     58                     59                     60
                      A                      A                      A
 Frequencies --   1533.0694              1535.6237              1540.7287
 Red. masses --      1.0489                 1.0637                 1.0603
 Frc consts  --      1.4525                 1.4779                 1.4830
 IR Inten    --      3.1996                 4.7103                 1.6664

                     61                     62                     63
                      A                      A                      A
 Frequencies --   1642.2515              1855.9955              3043.2105
 Red. masses --      7.8472                10.3988                 1.0830
 Frc consts  --     12.4694                21.1050                 5.9095
 IR Inten    --     14.6704               282.8045                 5.4005

                     64                     65                     66
                      A                      A                      A
 Frequencies --   3049.6265              3055.6602              3065.2359
 Red. masses --      1.0381                 1.0602                 1.0397
 Frc consts  --      5.6885                 5.8326                 5.7554
 IR Inten    --     22.1228                20.9391                22.0700

                     67                     68                     69
                      A                      A                      A
 Frequencies --   3091.9255              3096.3273              3117.2993
 Red. masses --      1.0774                 1.0830                 1.1016
 Frc consts  --      6.0687                 6.1177                 6.3070
 IR Inten    --      6.9939                 3.5676                32.8073

                     70                     71                     72
                      A                      A                      A
 Frequencies --   3126.6617              3132.7516              3146.4649
 Red. masses --      1.0998                 1.1002                 1.1060
 Frc consts  --      6.3345                 6.3618                 6.4512
 IR Inten    --     42.8501                17.4237                 1.5213

                     73                     74                     75
                      A                      A                      A
 Frequencies --   3156.8550              3312.9845              3695.3322
 Red. masses --      1.1026                 1.0990                 1.0641
 Frc consts  --      6.4739                 7.1072                 8.5613
 IR Inten    --     13.8045                 3.0434                80.7593

 - Thermochemistry -
 -------------------
 Temperature   298.150 Kelvin.  Pressure   1.00000 Atm.
 Atom     1 has atomic number  6 and mass  12.00000

 Molecular mass:   215.06162 amu.
 Principal axes and moments of inertia in atomic units:
                           1         2         3
     Eigenvalues --  1646.494755693.530796268.26346
           X            0.99948   0.03213  -0.00284
           Y           -0.03197   0.99847   0.04510
           Z            0.00428  -0.04499   0.99898
 This molecule is an asymmetric top.
 Rotational symmetry number  1.
 Warning -- assumption of classical behavior for rotation
           may cause significant error
 Rotational temperatures (Kelvin)      0.05261     0.01521     0.01382
 Rotational constants (GHZ):           1.09611     0.31698     0.28792
 Zero-point vibrational energy     569608.9 (Joules/Mol)
                                  136.13979 (Kcal/Mol)
 Warning -- explicit consideration of  20 degrees of freedom as
           vibrations may cause significant error
 Vibrational temperatures:     37.79    53.56    73.03   121.03   123.63
          (Kelvin)            152.40   199.99   273.83   293.66   315.32
                              372.36   386.30   478.27   483.03   498.93
                              545.40   591.48   669.71   732.19   836.66
                              897.87   950.80   966.50  1001.68  1067.84
                             1092.61  1133.19  1152.47  1207.68  1234.10
                             1274.61  1402.12  1406.72  1434.57  1462.10
                             1474.24  1497.48  1573.65  1633.90  1655.28
                             1668.74  1709.91  1722.61  1822.82  1865.60
                             1889.29  1900.20  1959.49  1964.12  2008.88
                             2068.46  2077.83  2119.93  2142.50  2174.83
                             2183.52  2194.77  2205.74  2209.42  2216.77
                             2362.83  2670.36  4378.50  4387.73  4396.41
                             4410.19  4448.59  4454.92  4485.10  4498.57
                             4507.33  4527.06  4542.01  4766.65  5316.76

 Zero-point correction=                           0.216953 (Hartree/Particle)
 Thermal correction to Energy=                    0.231782
 Thermal correction to Enthalpy=                  0.232726
 Thermal correction to Gibbs Free Energy=         0.173109
 Sum of electronic and zero-point Energies=          -1029.193439
 Sum of electronic and thermal Energies=             -1029.178610
 Sum of electronic and thermal Enthalpies=           -1029.177666
 Sum of electronic and thermal Free Energies=        -1029.237283

                     E (Thermal)             CV                S
                      KCal/Mol        Cal/Mol-Kelvin    Cal/Mol-Kelvin
 Total                  145.445             53.537            125.474
 Electronic               0.000              0.000              0.000
 Translational            0.889              2.981             42.001
 Rotational               0.889              2.981             32.441
 Vibrational            143.668             47.576             51.032
 Vibration     1          0.593              1.985              6.093
 Vibration     2          0.594              1.982              5.402
 Vibration     3          0.595              1.977              4.788
 Vibration     4          0.601              1.960              3.792
 Vibration     5          0.601              1.959              3.751
 Vibration     6          0.605              1.944              3.342
 Vibration     7          0.615              1.914              2.818
 Vibration     8          0.634              1.853              2.225
 Vibration     9          0.640              1.834              2.096
 Vibration    10          0.647              1.812              1.966
 Vibration    11          0.668              1.748              1.670
 Vibration    12          0.673              1.731              1.606
 Vibration    13          0.714              1.611              1.248
 Vibration    14          0.717              1.604              1.232
 Vibration    15          0.725              1.582              1.181
 Vibration    16          0.749              1.515              1.043
 Vibration    17          0.775              1.446              0.923
 Vibration    18          0.823              1.327              0.750
 Vibration    19          0.864              1.230              0.636
 Vibration    20          0.938              1.071              0.483

                           ! Non-Optimized Parameters !
 Normal termination of Gaussian 16 at Thu Dec 10 09:33:07 2020.

 ----------------------------------------------------------------------
 # B3LYP/6-311++G(d,p) empiricaldispersion=gd3bj scf=xqc pop=npa geom=c
 heck
 ----------------------------------------------------------------------

 --------------------------------------
 CID_61397467_JID_4399_Energie_neutraal
 --------------------------------------
 Structure from the checkpoint file:  "JID_4399.chk"
 Charge =  0 Multiplicity = 1

 SCF Done:  E(RB3LYP) =  -1029.62275155     A.U. after   16 cycles
 Normal termination of Gaussian 16 at Thu Dec 10 09:37:05 2020.

 ----------------------------------------------------------------------
 # B3LYP/6-311++G(d,p) empiricaldispersion=gd3bj scf=xqc pop=npa geom=c
 heck
 ----------------------------------------------------------------------

 ------------------------------------
 CID_61397467_JID_4399_Energie_kation
 ------------------------------------
 Structure from the checkpoint file:  "JID_4399.chk"
 Charge =  1 Multiplicity = 2

 SCF Done:  E(UB3LYP) =  -1029.30801402     A.U. after   25 cycles
 Normal termination of Gaussian 16 at Thu Dec 10 09:45:57 2020.
 Gaussian 16:  ES64L-G16RevA.03 25-Dec-2016

 ----------------------------------------------------------------------
 # B3LYP/6-311++G(d,p) empiricaldispersion=gd3bj scf=xqc pop=npa geom=c
 heck
 ----------------------------------------------------------------------

 -----------------------------------
 CID_61397467_JID_4399_Energie_anion
 -----------------------------------
 Structure from the checkpoint file:  "JID_4399.chk"
 Charge = -1 Multiplicity = 2

                         Standard orientation:
 ---------------------------------------------------------------------
 Center     Atomic      Atomic             Coordinates (Angstroms)
 Number     Number       Type             X           Y           Z
 ---------------------------------------------------------------------
      1          6           0        3.733470    2.125287   -0.096711
      2          6           0        3.061680    0.787959   -0.429801
      3          6           0        2.530126    0.057218    0.811516
      4          6           0        1.428878    0.823570    1.551705
      5         16           0        2.069878   -1.704903    0.449217
      6          6           0        0.978494   -1.588346   -1.032480
      7          6           0       -0.288272   -0.843176   -0.812387
      8          6           0       -1.437168   -1.087721   -0.121581
      9          6           0       -2.191935    0.106391   -0.284904
     10          7           0       -1.558110    1.004735   -1.017394
     11          8           0       -0.356962    0.400747   -1.354686
     12          6           0       -3.537395    0.428579    0.255713
     13          8           0       -4.132360    1.468613    0.104347
     14          8           0       -4.027199   -0.620868    0.962774
     15          1           0        3.022340    2.845253    0.320390
     16          1           0        4.163785    2.572510   -0.999081
     17          1           0        4.544422    1.991436    0.629552
     18          1           0        2.234842    0.967552   -1.126812
     19          1           0        3.780207    0.136425   -0.941131
     20          1           0        3.369175   -0.100082    1.502365
     21          1           0        0.608418    1.097026    0.883192
     22          1           0        1.022766    0.228821    2.373996
     23          1           0        1.834271    1.751067    1.971502
     24          1           0        1.521540   -1.151328   -1.873371
     25          1           0        0.762301   -2.631769   -1.278018
     26          1           0       -1.706970   -1.967900    0.439146
     27          1           0       -4.903489   -0.340208    1.286660
 ---------------------------------------------------------------------

 SCF Done:  E(UB3LYP) =  -1029.63134976     A.U. after   33 cycles
 SCF Done:  E(UB3LYP) =  -1029.63134976     a.u. after    1 cycles

 The electronic state is 2-A.
 Alpha  occ. eigenvalues --  -88.72657 -19.04374 -19.02556 -18.95014 -14.18026
 Alpha  occ. eigenvalues --  -10.13618 -10.10125 -10.09832 -10.09051 -10.06998
 Alpha  occ. eigenvalues --  -10.06890 -10.05212 -10.04525 -10.03683  -7.81295
 Alpha  occ. eigenvalues --   -5.77692  -5.77327  -5.76653  -0.99011  -0.96101
 Alpha  occ. eigenvalues --   -0.86790  -0.72724  -0.71255  -0.68060  -0.64021
 Alpha  occ. eigenvalues --   -0.61561  -0.55853  -0.53537  -0.52551  -0.46834
 Alpha  occ. eigenvalues --   -0.45254  -0.41117  -0.38424  -0.36937  -0.35380
 Alpha  occ. eigenvalues --   -0.34105  -0.33704  -0.32857  -0.31976  -0.30609
 Alpha  occ. eigenvalues --   -0.30304  -0.29717  -0.28987  -0.28869  -0.27125
 Alpha  occ. eigenvalues --   -0.26065  -0.25432  -0.23905  -0.23427  -0.22493
 Alpha  occ. eigenvalues --   -0.19663  -0.18702  -0.15395  -0.15094  -0.13306
 Alpha  occ. eigenvalues --   -0.12821  -0.11145   0.04864
 Alpha virt. eigenvalues --    0.06483   0.08451   0.08531   0.09187   0.09794
 Alpha virt. eigenvalues --    0.10745   0.10768   0.11794   0.12315   0.13056
 Alpha virt. eigenvalues --    0.13264   0.13952   0.14065   0.14959   0.16059

  Beta  occ. eigenvalues --  -88.72639 -19.03987 -19.02457 -18.94771 -14.17222
  Beta  occ. eigenvalues --  -10.13335 -10.10117 -10.09833 -10.08930 -10.06994
  Beta  occ. eigenvalues --  -10.06879 -10.05209 -10.04463 -10.03759  -7.81276
  Beta  occ. eigenvalues --   -5.77654  -5.77313  -5.76640  -0.98253  -0.95777
  Beta  occ. eigenvalues --   -0.86399  -0.72496  -0.70620  -0.67880  -0.63880
  Beta  occ. eigenvalues --   -0.61383  -0.55770  -0.52914  -0.52416  -0.46697
  Beta  occ. eigenvalues --   -0.45130  -0.40792  -0.38228  -0.36883  -0.35277
  Beta  occ. eigenvalues --   -0.33740  -0.33390  -0.32267  -0.31283  -0.30439
  Beta  occ. eigenvalues --   -0.29788  -0.29057  -0.28905  -0.28464  -0.27088
  Beta  occ. eigenvalues --   -0.25858  -0.25267  -0.23742  -0.23252  -0.22263
  Beta  occ. eigenvalues --   -0.19566  -0.17531  -0.14204  -0.13986  -0.13038
  Beta  occ. eigenvalues --   -0.12061  -0.09558
  Beta virt. eigenvalues --    0.06669   0.08450   0.08551   0.09192   0.09779
  Beta virt. eigenvalues --    0.10726   0.10874   0.11667   0.12278   0.12533
  Beta virt. eigenvalues --    0.13164   0.13315   0.13961   0.14068   0.14931

 Mulliken charges and spin densities:
               1          2
     1  C   -0.143017  -0.596743
     2  C   -0.676332   0.318684
     3  C    0.621470  -0.247846
     4  C   -0.603157  -0.089740
     5  S   -0.086808   0.043519
     6  C   -0.643384   0.019768
     7  C   -0.103711   0.078971
     8  C   -0.641983  -0.011394
     9  C    0.290053  -0.018255
    10  N   -0.499356   0.387147
    11  O    0.202747   0.071908
    12  C    0.409080   0.199699
    13  O   -0.389118   0.085954
    14  O   -0.219887   0.016025
    15  H    0.120585   0.028593
    16  H   -0.020719   0.150219
    17  H   -0.040035   0.164441
    18  H    0.230238  -0.032479
    19  H    0.038279   0.106398
    20  H    0.051567   0.170197
    21  H    0.116262   0.051421
    22  H    0.129392  -0.009534
    23  H    0.078228   0.042820
    24  H    0.147312   0.039148
    25  H    0.221188   0.023022
    26  H    0.154081   0.007870
    27  H    0.257026   0.000189
 Sum of Mulliken charges =  -1.00000   1.00000

 Dipole moment (field-independent basis, Debye):
    X=              4.1202    Y=             -3.4636    Z=              1.3112  Tot=              5.5400
 Quadrupole moment (field-independent basis, Debye-Ang):
   XX=           -146.4473   YY=           -114.8314   ZZ=           -102.8795
   XY=             15.2185   XZ=             -7.7221   YZ=              5.6775

 Summary of Natural Population Analysis:

                                       Natural Population
                Natural  -----------------------------------------------
    Atom  No    Charge         Core      Valence    Rydberg      Total
 -----------------------------------------------------------------------
      C    1   -0.28390      0.99967     2.27975    0.00448     3.28390
      C    2   -0.20464      0.99960     2.19451    0.01053     3.20464
      C    3   -0.16465      0.99957     2.14966    0.01542     3.16465
      C    4   -0.29578      0.99963     2.28969    0.00646     3.29578
      S    5    0.08488      4.99963     2.89739    0.01810     7.91512
      C    6   -0.26916      0.99952     2.25910    0.01053     3.26916
      C    7    0.15334      0.99949     1.83174    0.01543     2.84666
      C    8   -0.17416      0.99945     2.16742    0.00729     3.17416
      C    9    0.00655      0.99955     1.97889    0.01500     2.99345
      N   10    0.05857      0.99968     2.42940    0.01235     3.44143
      O   11   -0.14902      0.99985     3.13795    0.01121     4.14902
      C   12    0.42449      0.99968     1.55213    0.02371     2.57551
      O   13   -0.29556      0.99987     3.28881    0.00688     4.29556
      O   14   -0.35242      0.99988     3.34498    0.00756     4.35242
      H   15    0.09870      0.00000     0.40012    0.00118     0.40130
      H   16    0.09786      0.00000     0.40128    0.00086     0.40214
      H   17    0.09274      0.00000     0.40596    0.00131     0.40726
      H   18    0.10647      0.00000     0.39143    0.00210     0.39353
      H   19    0.09732      0.00000     0.40134    0.00135     0.40268
      H   20    0.09865      0.00000     0.40002    0.00133     0.40135
      H   21    0.11412      0.00000     0.38400    0.00188     0.38588
      H   22    0.10303      0.00000     0.39585    0.00112     0.39697
      H   23    0.09420      0.00000     0.40466    0.00114     0.40580
      H   24    0.10936      0.00000     0.38892    0.00172     0.39064
      H   25    0.11129      0.00000     0.38726    0.00145     0.38871
      H   26    0.11073      0.00000     0.38839    0.00089     0.38927
      H   27    0.22697      0.00000     0.26766    0.00536     0.27303
 =======================================================================
   * Total *   -0.00000     17.99507    38.81830    0.18663    57.00000

 Normal termination of Gaussian 16 at Thu Dec 10 09:57:22 2020.
