 Gaussian 16, Revision A.03,

 -----------------------------------------------------------
 # opt freq B3LYP/6-31G(d) empiricaldispersion=gd3bj scf=xqc
 -----------------------------------------------------------

 -------------------------------
 CID_147411002_JID_3512_neutraal
 -------------------------------
 Symbolic Z-matrix:
 Charge =  0 Multiplicity = 1

 SCF Done:  E(RB3LYP) =  -936.746611840     A.U. after   15 cycles
 SCF Done:  E(RB3LYP) =  -936.748606786     A.U. after   13 cycles
 SCF Done:  E(RB3LYP) =  -936.748103083     A.U. after   13 cycles
 SCF Done:  E(RB3LYP) =  -936.751171139     A.U. after   13 cycles
 SCF Done:  E(RB3LYP) =  -936.752068908     A.U. after   12 cycles
 SCF Done:  E(RB3LYP) =  -936.753197986     A.U. after   12 cycles
 SCF Done:  E(RB3LYP) =  -936.753323059     A.U. after   11 cycles
 SCF Done:  E(RB3LYP) =  -936.753324793     A.U. after   11 cycles
 SCF Done:  E(RB3LYP) =  -936.753357778     A.U. after   10 cycles
 SCF Done:  E(RB3LYP) =  -936.753364266     A.U. after   10 cycles
 SCF Done:  E(RB3LYP) =  -936.753366027     A.U. after    9 cycles
 SCF Done:  E(RB3LYP) =  -936.753366273     A.U. after    8 cycles
 SCF Done:  E(RB3LYP) =  -936.753366382     A.U. after    7 cycles
 Optimization completed.
    -- Stationary point found.
 Normal termination of Gaussian 16 at Wed Dec  9 23:32:46 2020.

 --------------------------------------------------------------------
 #N Geom=AllCheck Guess=TCheck SCRF=Check GenChk RB3LYP/6-31G(d) Freq
 --------------------------------------------------------------------

 Structure from the checkpoint file:  "JID_3512.chk"
 -------------------------------
 CID_147411002_JID_3512_neutraal
 -------------------------------
 Charge =  0 Multiplicity = 1

 SCF Done:  E(RB3LYP) =  -936.753366382     A.U. after    1 cycles

  Exact polarizability: 136.274   2.879 129.348  10.620   3.703 111.544
 Approx polarizability: 185.208   0.859 185.050  22.163  -2.987 183.864

                      1                      2                      3
                      A                      A                      A
 Frequencies --     40.3440                56.9729                66.5308
 Red. masses --      4.8453                 3.7158                 3.8568
 Frc consts  --      0.0046                 0.0071                 0.0101
 IR Inten    --      0.0965                 0.3209                 0.6099

                      4                      5                      6
                      A                      A                      A
 Frequencies --     70.2762                86.1242               136.3034
 Red. masses --      2.3406                 1.3282                 5.5627
 Frc consts  --      0.0068                 0.0058                 0.0609
 IR Inten    --      0.1608                 0.0439                 6.2731

                      7                      8                      9
                      A                      A                      A
 Frequencies --    148.8060               189.5445               228.1389
 Red. masses --      3.6973                 3.4678                 2.2453
 Frc consts  --      0.0482                 0.0734                 0.0689
 IR Inten    --      1.0297                 3.2950                 4.5377

                     10                     11                     12
                      A                      A                      A
 Frequencies --    242.5257               271.9621               306.1991
 Red. masses --      1.6011                 1.5140                 2.3292
 Frc consts  --      0.0555                 0.0660                 0.1287
 IR Inten    --      1.8310                 0.7394                 6.5734

                     13                     14                     15
                      A                      A                      A
 Frequencies --    358.6480               363.5647               388.2853
 Red. masses --      2.0505                 2.4040                 3.4383
 Frc consts  --      0.1554                 0.1872                 0.3054
 IR Inten    --      0.3126                 3.5122                 9.0529

                     16                     17                     18
                      A                      A                      A
 Frequencies --    413.1546               437.2283               468.8204
 Red. masses --      3.4083                 1.8496                 3.0593
 Frc consts  --      0.3428                 0.2083                 0.3962
 IR Inten    --      3.5180                 0.9709                 6.4813

                     19                     20                     21
                      A                      A                      A
 Frequencies --    481.4237               495.4532               600.8042
 Red. masses --      5.1756                 2.9239                 3.9095
 Frc consts  --      0.7068                 0.4229                 0.8314
 IR Inten    --      0.7972                 1.0560                42.8278

                     22                     23                     24
                      A                      A                      A
 Frequencies --    610.1265               629.5549               721.3852
 Red. masses --      2.1209                 3.5466                 6.3802
 Frc consts  --      0.4652                 0.8282                 1.9562
 IR Inten    --      3.7391                 7.9354                 2.1338

                     25                     26                     27
                      A                      A                      A
 Frequencies --    746.4620               788.4065               857.8613
 Red. masses --      2.7988                 3.0609                 1.5940
 Frc consts  --      0.9188                 1.1210                 0.6912
 IR Inten    --      3.8676                 3.8473                 0.5111

                     28                     29                     30
                      A                      A                      A
 Frequencies --    881.6200               909.8487               939.4728
 Red. masses --      2.2061                 2.2715                 2.0692
 Frc consts  --      1.0103                 1.1079                 1.0760
 IR Inten    --     40.1830                10.7391                 7.3115

                     31                     32                     33
                      A                      A                      A
 Frequencies --    983.5409               999.4233              1012.8981
 Red. masses --      1.7884                 1.1926                 2.6497
 Frc consts  --      1.0193                 0.7018                 1.6017
 IR Inten    --     23.4776                 6.3197                19.8239

                     34                     35                     36
                      A                      A                      A
 Frequencies --   1025.8696              1039.2074              1084.1063
 Red. masses --      1.9183                 2.3948                 1.7750
 Frc consts  --      1.1895                 1.5238                 1.2291
 IR Inten    --     51.3519                40.0867                37.1075

                     37                     38                     39
                      A                      A                      A
 Frequencies --   1096.3425              1099.0673              1107.9438
 Red. masses --      1.8710                 1.9221                 2.3136
 Frc consts  --      1.3250                 1.3680                 1.6733
 IR Inten    --      1.8135                 3.9892                23.8409

                     40                     41                     42
                      A                      A                      A
 Frequencies --   1157.0439              1183.1706              1200.1998
 Red. masses --      1.4510                 2.6388                 2.3473
 Frc consts  --      1.1445                 2.1764                 1.9922
 IR Inten    --     55.5841                40.4906                68.2258

                     43                     44                     45
                      A                      A                      A
 Frequencies --   1207.7188              1233.1040              1252.2969
 Red. masses --      1.8189                 1.4154                 1.1999
 Frc consts  --      1.5631                 1.2681                 1.1087
 IR Inten    --     17.4721                12.6230                 4.2732

                     46                     47                     48
                      A                      A                      A
 Frequencies --   1259.5883              1322.4579              1336.4211
 Red. masses --      1.2972                 1.9125                 1.4047
 Frc consts  --      1.2126                 1.9707                 1.4782
 IR Inten    --     18.1846                 7.3406                10.6498

                     49                     50                     51
                      A                      A                      A
 Frequencies --   1337.4892              1380.7998              1384.4062
 Red. masses --      1.4670                 1.2837                 1.1600
 Frc consts  --      1.5462                 1.4420                 1.3099
 IR Inten    --     14.7047                 0.7434                 1.6958

                     52                     53                     54
                      A                      A                      A
 Frequencies --   1403.7945              1408.3006              1418.8112
 Red. masses --      1.2949                 1.2936                 1.2920
 Frc consts  --      1.5035                 1.5117                 1.5324
 IR Inten    --     17.1097                14.6280                21.6282

                     55                     56                     57
                      A                      A                      A
 Frequencies --   1430.6582              1433.2615              1443.4961
 Red. masses --      1.4772                 1.3604                 1.5961
 Frc consts  --      1.7814                 1.6465                 1.9595
 IR Inten    --     22.8769                 3.3720                37.0135

                     58                     59                     60
                      A                      A                      A
 Frequencies --   1484.3857              1490.9215              1492.5832
 Red. masses --      1.2008                 1.0531                 1.0974
 Frc consts  --      1.5589                 1.3793                 1.4405
 IR Inten    --      0.3086                 5.9535                 3.5832

                     61                     62                     63
                      A                      A                      A
 Frequencies --   1495.5404              1502.2455              1503.2680
 Red. masses --      1.0894                 1.0811                 1.0523
 Frc consts  --      1.4355                 1.4375                 1.4011
 IR Inten    --      8.7072                 2.2800                 9.2857

                     64                     65                     66
                      A                      A                      A
 Frequencies --   1513.5744              1515.4905              1524.9388
 Red. masses --      1.1235                 1.0517                 1.0844
 Frc consts  --      1.5164                 1.4232                 1.4858
 IR Inten    --      9.8667                17.7163                 0.3925

                     67                     68                     69
                      A                      A                      A
 Frequencies --   1539.2753              1543.0976              1776.3254
 Red. masses --      1.0533                 1.1027                11.2827
 Frc consts  --      1.4704                 1.5470                20.9754
 IR Inten    --      3.1371                 8.6969               193.9153

                     70                     71                     72
                      A                      A                      A
 Frequencies --   2948.3107              2970.8407              2992.5930
 Red. masses --      1.0594                 1.0695                 1.0676
 Frc consts  --      5.4258                 5.5614                 5.6332
 IR Inten    --     55.9434                34.2563                46.4295

                     73                     74                     75
                      A                      A                      A
 Frequencies --   3009.6434              3014.0789              3018.5458
 Red. masses --      1.0679                 1.0671                 1.0709
 Frc consts  --      5.6990                 5.7115                 5.7492
 IR Inten    --     50.9699                34.9677               108.4811

                     76                     77                     78
                      A                      A                      A
 Frequencies --   3052.6745              3061.3827              3065.2079
 Red. masses --      1.0657                 1.0934                 1.0915
 Frc consts  --      5.8511                 6.0375                 6.0422
 IR Inten    --     16.7971                49.0952                43.7313

                     79                     80                     81
                      A                      A                      A
 Frequencies --   3071.7013              3084.4594              3090.6004
 Red. masses --      1.0734                 1.0290                 1.0961
 Frc consts  --      5.9673                 5.7681                 6.1687
 IR Inten    --     83.4966                13.9171                27.2186

                     82                     83                     84
                      A                      A                      A
 Frequencies --   3094.0216              3112.0301              3113.8027
 Red. masses --      1.0955                 1.0940                 1.1037
 Frc consts  --      6.1791                 6.2422                 6.3052
 IR Inten    --     12.2161                24.7056                34.6646

                     85                     86                     87
                      A                      A                      A
 Frequencies --   3126.8335              3175.2391              3184.2679
 Red. masses --      1.0972                 1.1071                 1.1068
 Frc consts  --      6.3205                 6.5764                 6.6118
 IR Inten    --     24.0969                 5.0626                 2.2301

 - Thermochemistry -
 -------------------
 Temperature   298.150 Kelvin.  Pressure   1.00000 Atm.
 Atom     1 has atomic number  6 and mass  12.00000

 Molecular mass:   202.11399 amu.
 Principal axes and moments of inertia in atomic units:
                           1         2         3
     Eigenvalues --  1844.527993436.938474115.73047
           X            0.99996  -0.00010   0.00924
           Y           -0.00014   0.99966   0.02591
           Z           -0.00924  -0.02591   0.99962
 This molecule is an asymmetric top.
 Rotational symmetry number  1.
 Warning -- assumption of classical behavior for rotation
           may cause significant error
 Rotational temperatures (Kelvin)      0.04696     0.02520     0.02104
 Rotational constants (GHZ):           0.97843     0.52510     0.43850
 Zero-point vibrational energy     716235.0 (Joules/Mol)
                                  171.18428 (Kcal/Mol)
 Warning -- explicit consideration of  22 degrees of freedom as
           vibrations may cause significant error
 Vibrational temperatures:     58.05    81.97    95.72   101.11   123.91
          (Kelvin)            196.11   214.10   272.71   328.24   348.94
                              391.29   440.55   516.01   523.09   558.66
                              594.44   629.07   674.53   692.66   712.85
                              864.42   877.84   905.79  1037.91  1073.99
                             1134.34  1234.27  1268.45  1309.07  1351.69
                             1415.10  1437.95  1457.33  1476.00  1495.19
                             1559.79  1577.39  1581.31  1594.08  1664.73
                             1702.32  1726.82  1737.64  1774.16  1801.78
                             1812.27  1902.72  1922.81  1924.35  1986.66
                             1991.85  2019.75  2026.23  2041.35  2058.40
                             2062.14  2076.87  2135.70  2145.10  2147.49
                             2151.75  2161.40  2162.87  2177.70  2180.45
                             2194.05  2214.67  2220.17  2555.74  4241.96
                             4274.38  4305.67  4330.21  4336.59  4343.01
                             4392.12  4404.65  4410.15  4419.49  4437.85
                             4446.68  4451.61  4477.52  4480.07  4498.82
                             4568.46  4581.45

 Zero-point correction=                           0.272800 (Hartree/Particle)
 Thermal correction to Energy=                    0.287231
 Thermal correction to Enthalpy=                  0.288175
 Thermal correction to Gibbs Free Energy=         0.230758
 Sum of electronic and zero-point Energies=           -936.480567
 Sum of electronic and thermal Energies=              -936.466136
 Sum of electronic and thermal Enthalpies=            -936.465192
 Sum of electronic and thermal Free Energies=         -936.522608

                     E (Thermal)             CV                S
                      KCal/Mol        Cal/Mol-Kelvin    Cal/Mol-Kelvin
 Total                  180.240             53.360            120.843
 Electronic               0.000              0.000              0.000
 Translational            0.889              2.981             41.815
 Rotational               0.889              2.981             31.634
 Vibrational            178.462             47.398             47.393
 Vibration     1          0.594              1.981              5.242
 Vibration     2          0.596              1.975              4.559
 Vibration     3          0.598              1.970              4.253
 Vibration     4          0.598              1.968              4.146
 Vibration     5          0.601              1.959              3.746
 Vibration     6          0.614              1.917              2.855
 Vibration     7          0.618              1.904              2.687
 Vibration     8          0.633              1.854              2.232
 Vibration     9          0.651              1.798              1.894
 Vibration    10          0.659              1.775              1.784
 Vibration    11          0.675              1.725              1.584
 Vibration    12          0.697              1.662              1.383
 Vibration    13          0.733              1.557              1.128
 Vibration    14          0.737              1.547              1.107
 Vibration    15          0.756              1.495              1.007
 Vibration    16          0.777              1.442              0.916
 Vibration    17          0.798              1.389              0.835
 Vibration    18          0.826              1.319              0.741
 Vibration    19          0.838              1.291              0.706
 Vibration    20          0.851              1.260              0.670
 Vibration    21          0.959              1.030              0.448
 Vibration    22          0.969              1.010              0.433

 Optimization completed.
    -- Stationary point found.
 Normal termination of Gaussian 16 at Wed Dec  9 23:41:37 2020.

 ----------------------------------------------------------------------
 # B3LYP/6-311++G(d,p) empiricaldispersion=gd3bj scf=xqc pop=npa geom=c
 heck
 ----------------------------------------------------------------------

 ---------------------------------------
 CID_147411002_JID_3512_Energie_neutraal
 ---------------------------------------
 Structure from the checkpoint file:  "JID_3512.chk"
 Charge =  0 Multiplicity = 1

 SCF Done:  E(RB3LYP) =  -936.932403205     A.U. after   15 cycles
 Normal termination of Gaussian 16 at Wed Dec  9 23:45:17 2020.

 ----------------------------------------------------------------------
 # B3LYP/6-311++G(d,p) empiricaldispersion=gd3bj scf=xqc pop=npa geom=c
 heck
 ----------------------------------------------------------------------

 -------------------------------------
 CID_147411002_JID_3512_Energie_kation
 -------------------------------------
 Structure from the checkpoint file:  "JID_3512.chk"
 Charge =  1 Multiplicity = 2

 SCF Done:  E(UB3LYP) =  -936.663734393     A.U. after   23 cycles
 Normal termination of Gaussian 16 at Wed Dec  9 23:52:55 2020.
 Gaussian 16:  ES64L-G16RevA.03 25-Dec-2016

 ----------------------------------------------------------------------
 # B3LYP/6-311++G(d,p) empiricaldispersion=gd3bj scf=xqc pop=npa geom=c
 heck
 ----------------------------------------------------------------------

 ------------------------------------
 CID_147411002_JID_3512_Energie_anion
 ------------------------------------
 Structure from the checkpoint file:  "JID_3512.chk"
 Charge = -1 Multiplicity = 2

                         Standard orientation:
 ---------------------------------------------------------------------
 Center     Atomic      Atomic             Coordinates (Angstroms)
 Number     Number       Type             X           Y           Z
 ---------------------------------------------------------------------
      1          6           0       -2.521494    2.324392   -0.341246
      2          7           0       -2.326528    0.985262    0.188995
      3          6           0       -1.144114    0.923741    1.049011
      4          6           0       -0.992355   -0.484064    1.638828
      5          7           0       -1.028993   -1.549649    0.648459
      6          6           0       -2.142073   -1.412558   -0.276654
      7          6           0       -2.246028   -0.007970   -0.884143
      8          6           0        0.184427   -2.172845    0.186297
      9          6           0        0.935895   -1.576334   -1.043796
     10          6           0        1.495616   -0.183647   -0.870265
     11          8           0        1.177315    0.769076   -1.550755
     12         16           0        2.694945   -0.029699    0.470564
     13          6           0        3.029261    1.757674    0.327195
     14          1           0       -2.632209    3.034444    0.486197
     15          1           0       -1.682010    2.665077   -0.977456
     16          1           0       -3.437851    2.353139   -0.941408
     17          1           0       -0.231668    1.215384    0.500804
     18          1           0       -1.277004    1.641963    1.868336
     19          1           0       -1.828107   -0.640438    2.337672
     20          1           0       -0.060302   -0.553736    2.207293
     21          1           0       -3.077553   -1.613798    0.266265
     22          1           0       -2.049058   -2.165368   -1.067391
     23          1           0       -3.161096    0.062680   -1.485660
     24          1           0       -1.389229    0.188319   -1.554333
     25          1           0        0.876749   -2.228119    1.032845
     26          1           0       -0.046884   -3.210721   -0.094203
     27          1           0        1.769292   -2.253761   -1.272933
     28          1           0        0.279870   -1.547132   -1.918156
     29          1           0        3.850323    1.984021    1.010260
     30          1           0        3.310589    2.000076   -0.698433
     31          1           0        2.142347    2.330901    0.603770
 ---------------------------------------------------------------------

 SCF Done:  E(UB3LYP) =  -936.919208178     A.U. after   33 cycles
 SCF Done:  E(UB3LYP) =  -936.919208183     a.u. after    2 cycles

 The electronic state is 2-A.
 Alpha  occ. eigenvalues --  -88.73778 -18.99074 -14.20092 -14.19293 -10.14310
 Alpha  occ. eigenvalues --  -10.09167 -10.08855 -10.08771 -10.08714 -10.08683
 Alpha  occ. eigenvalues --  -10.08237 -10.08057 -10.06358  -7.82454  -5.78804
 Alpha  occ. eigenvalues --   -5.78408  -5.77932  -0.92925  -0.84002  -0.80001
 Alpha  occ. eigenvalues --   -0.68613  -0.66164  -0.65675  -0.61653  -0.56723
 Alpha  occ. eigenvalues --   -0.54237  -0.53849  -0.50462  -0.44854  -0.41101
 Alpha  occ. eigenvalues --   -0.39179  -0.36917  -0.36227  -0.36025  -0.35659
 Alpha  occ. eigenvalues --   -0.34351  -0.33328  -0.33170  -0.32027  -0.31315
 Alpha  occ. eigenvalues --   -0.29698  -0.29383  -0.28704  -0.27270  -0.26369
 Alpha  occ. eigenvalues --   -0.25165  -0.24672  -0.24306  -0.23995  -0.23280
 Alpha  occ. eigenvalues --   -0.22838  -0.14011  -0.13879  -0.11871  -0.09371
 Alpha  occ. eigenvalues --    0.04850
 Alpha virt. eigenvalues --    0.06514   0.07149   0.08234   0.08351   0.09073
 Alpha virt. eigenvalues --    0.09811   0.10219   0.10617   0.11063   0.11578
 Alpha virt. eigenvalues --    0.12060   0.12414   0.13074   0.13564   0.13660

  Beta  occ. eigenvalues --  -88.73775 -18.98869 -14.20087 -14.19295 -10.14044
  Beta  occ. eigenvalues --  -10.09123 -10.08830 -10.08757 -10.08707 -10.08672
  Beta  occ. eigenvalues --  -10.08231 -10.08048 -10.06367  -7.82450  -5.78798
  Beta  occ. eigenvalues --   -5.78410  -5.77922  -0.92509  -0.83990  -0.79987
  Beta  occ. eigenvalues --   -0.68467  -0.66102  -0.65652  -0.61580  -0.56575
  Beta  occ. eigenvalues --   -0.54192  -0.53800  -0.50398  -0.44781  -0.40805
  Beta  occ. eigenvalues --   -0.39136  -0.36842  -0.36177  -0.35934  -0.35596
  Beta  occ. eigenvalues --   -0.34268  -0.33115  -0.32960  -0.31963  -0.31127
  Beta  occ. eigenvalues --   -0.29671  -0.29326  -0.28596  -0.27098  -0.26228
  Beta  occ. eigenvalues --   -0.25015  -0.24347  -0.24265  -0.23758  -0.23211
  Beta  occ. eigenvalues --   -0.22781  -0.13862  -0.13610  -0.11838  -0.09334
  Beta virt. eigenvalues --    0.06820   0.07470   0.08000   0.08503   0.09115
  Beta virt. eigenvalues --    0.10083   0.10128   0.10702   0.10903   0.11337
  Beta virt. eigenvalues --    0.11884   0.12409   0.12659   0.13195   0.13691

 Mulliken charges and spin densities:
               1          2
     1  C   -0.108909  -0.114204
     2  N    0.033186   0.022888
     3  C   -0.850179   0.688670
     4  C    0.584869  -0.961863
     5  N   -0.021291   0.176520
     6  C    0.220065  -0.750248
     7  C   -0.203785  -0.045821
     8  C    0.046625  -0.396582
     9  C    0.973012  -1.277175
    10  C   -0.622669   0.775445
    11  O   -0.234754   0.053039
    12  S   -0.020001   0.153084
    13  C    0.073405  -0.748020
    14  H   -0.040385   0.156294
    15  H    0.092033   0.036953
    16  H   -0.039567   0.149468
    17  H    0.578555  -0.651840
    18  H   -0.248195   0.423346
    19  H    0.099451   0.051704
    20  H    0.009373   0.082674
    21  H    0.025949   0.115680
    22  H   -0.198679   0.363435
    23  H    0.024394   0.117181
    24  H    0.228886  -0.082092
    25  H    0.112255   0.032904
    26  H   -0.727726   0.921335
    27  H   -0.485498   0.681676
    28  H    0.082467   0.093544
    29  H   -0.275806   0.425532
    30  H    0.033992   0.164585
    31  H   -0.141072   0.341890
 Sum of Mulliken charges =  -1.00000   1.00000

 Dipole moment (field-independent basis, Debye):
    X=             -2.4235    Y=              3.0784    Z=              1.1771  Tot=              4.0909
 Quadrupole moment (field-independent basis, Debye-Ang):
   XX=           -139.2699   YY=           -141.2638   ZZ=           -118.1712
   XY=             -0.5743   XZ=              3.2326   YZ=             -6.7753

 Summary of Natural Population Analysis:

                                       Natural Population
                Natural  -----------------------------------------------
    Atom  No    Charge         Core      Valence    Rydberg      Total
 -----------------------------------------------------------------------
      C    1   -0.17391      0.99965     2.16750    0.00675     3.17391
      N    2   -0.28250      0.99972     2.77068    0.01210     3.78250
      C    3   -0.09761      0.99961     2.08656    0.01145     3.09761
      C    4   -0.08332      0.99961     2.07280    0.01092     3.08332
      N    5   -0.28363      0.99972     2.76956    0.01436     3.78363
      C    6   -0.08610      0.99961     2.07417    0.01233     3.08610
      C    7   -0.09813      0.99961     2.08744    0.01108     3.09813
      C    8   -0.07282      0.99959     2.05960    0.01363     3.07282
      C    9   -0.25081      0.99956     2.24066    0.01060     3.25081
      C   10    0.23931      0.99968     1.73451    0.02650     2.76069
      O   11   -0.27930      0.99987     3.27100    0.00844     4.27930
      S   12    0.07438      4.99954     2.90928    0.01680     7.92562
      C   13   -0.34946      0.99962     2.34198    0.00787     3.34946
      H   14    0.09195      0.00000     0.40691    0.00115     0.40805
      H   15    0.08473      0.00000     0.41388    0.00139     0.41527
      H   16    0.09083      0.00000     0.40808    0.00110     0.40917
      H   17    0.08885      0.00000     0.40824    0.00291     0.41115
      H   18    0.09158      0.00000     0.40692    0.00150     0.40842
      H   19    0.08766      0.00000     0.41079    0.00156     0.41234
      H   20    0.10079      0.00000     0.39816    0.00105     0.39921
      H   21    0.09004      0.00000     0.40823    0.00173     0.40996
      H   22    0.09875      0.00000     0.40020    0.00105     0.40125
      H   23    0.09107      0.00000     0.40767    0.00126     0.40893
      H   24    0.09148      0.00000     0.40647    0.00205     0.40852
      H   25    0.09665      0.00000     0.40189    0.00146     0.40335
      H   26    0.09653      0.00000     0.40086    0.00261     0.40347
      H   27    0.11655      0.00000     0.37936    0.00410     0.38345
      H   28    0.10684      0.00000     0.39162    0.00154     0.39316
      H   29    0.10400      0.00000     0.39462    0.00138     0.39600
      H   30    0.10974      0.00000     0.38901    0.00125     0.39026
      H   31    0.10590      0.00000     0.39261    0.00150     0.39410
 =======================================================================
   * Total *    0.00000     16.99537    37.81125    0.19338    55.00000

 Normal termination of Gaussian 16 at Thu Dec 10 00:11:34 2020.
