 Gaussian 16, Revision A.03,

 -----------------------------------------------------------
 # opt freq B3LYP/6-31G(d) empiricaldispersion=gd3bj scf=xqc
 -----------------------------------------------------------

 -------------------------------
 CID_140735878_JID_9119_neutraal
 -------------------------------
 Symbolic Z-matrix:
 Charge =  0 Multiplicity = 1

 SCF Done:  E(RB3LYP) =  -755.709115141     A.U. after   16 cycles
 SCF Done:  E(RB3LYP) =  -755.746389317     A.U. after   13 cycles
 SCF Done:  E(RB3LYP) =  -755.764942161     A.U. after   13 cycles
 SCF Done:  E(RB3LYP) =  -755.768577371     A.U. after   12 cycles
 SCF Done:  E(RB3LYP) =  -755.769663506     A.U. after   12 cycles
 SCF Done:  E(RB3LYP) =  -755.770071803     A.U. after   12 cycles
 SCF Done:  E(RB3LYP) =  -755.770188856     A.U. after   11 cycles
 SCF Done:  E(RB3LYP) =  -755.770270016     A.U. after   10 cycles
 SCF Done:  E(RB3LYP) =  -755.770305714     A.U. after   10 cycles
 SCF Done:  E(RB3LYP) =  -755.770320714     A.U. after   10 cycles
 SCF Done:  E(RB3LYP) =  -755.770328276     A.U. after    9 cycles
 SCF Done:  E(RB3LYP) =  -755.770331330     A.U. after    9 cycles
 SCF Done:  E(RB3LYP) =  -755.770331444     A.U. after    6 cycles
 Optimization completed.
    -- Stationary point found.
 Normal termination of Gaussian 16 at Sun Dec 13 16:20:49 2020.

 --------------------------------------------------------------------
 #N Geom=AllCheck Guess=TCheck SCRF=Check GenChk RB3LYP/6-31G(d) Freq
 --------------------------------------------------------------------

 Structure from the checkpoint file:  "JID_9119.chk"
 -------------------------------
 CID_140735878_JID_9119_neutraal
 -------------------------------
 Charge =  0 Multiplicity = 1

 SCF Done:  E(RB3LYP) =  -755.770331444     A.U. after    1 cycles

  Exact polarizability: 231.289   7.458 167.389  10.406 -14.310 164.316
 Approx polarizability: 310.251  18.006 254.401  20.638 -32.064 262.291

                      1                      2                      3
                      A                      A                      A
 Frequencies --     38.6683                54.8266                67.6762
 Red. masses --      3.6595                 3.0544                 3.7104
 Frc consts  --      0.0032                 0.0054                 0.0100
 IR Inten    --      0.0892                 0.0521                 0.1517

                      4                      5                      6
                      A                      A                      A
 Frequencies --     73.7214               117.7883               142.2367
 Red. masses --      3.3114                 3.2570                 1.1777
 Frc consts  --      0.0106                 0.0266                 0.0140
 IR Inten    --      0.9886                 1.2260                 0.3788

                      7                      8                      9
                      A                      A                      A
 Frequencies --    153.9303               195.6706               221.2747
 Red. masses --      2.6634                 2.3297                 2.2311
 Frc consts  --      0.0372                 0.0526                 0.0644
 IR Inten    --      0.1727                 1.1592                 0.7304

                     10                     11                     12
                      A                      A                      A
 Frequencies --    232.2552               247.7300               257.4034
 Red. masses --      2.3104                 2.4127                 1.5451
 Frc consts  --      0.0734                 0.0872                 0.0603
 IR Inten    --      0.1664                 2.1555                 0.5204

                     13                     14                     15
                      A                      A                      A
 Frequencies --    270.0124               275.6725               288.6254
 Red. masses --      2.4047                 2.3987                 1.9933
 Frc consts  --      0.1033                 0.1074                 0.0978
 IR Inten    --      1.0979                 0.7056                 0.5470

                     16                     17                     18
                      A                      A                      A
 Frequencies --    312.1739               341.1984               369.8504
 Red. masses --      1.5466                 2.1375                 2.2367
 Frc consts  --      0.0888                 0.1466                 0.1803
 IR Inten    --      2.1146                 2.4793                 1.9933

                     19                     20                     21
                      A                      A                      A
 Frequencies --    385.0813               404.3731               434.5501
 Red. masses --      2.2246                 2.6338                 2.4656
 Frc consts  --      0.1944                 0.2537                 0.2743
 IR Inten    --      1.0064                 0.6313                 2.0302

                     22                     23                     24
                      A                      A                      A
 Frequencies --    442.9996               454.8925               487.5743
 Red. masses --      2.7488                 2.7186                 2.5541
 Frc consts  --      0.3178                 0.3314                 0.3577
 IR Inten    --      1.2568                 1.9700                 2.5139

                     25                     26                     27
                      A                      A                      A
 Frequencies --    514.6604               521.2415               553.4525
 Red. masses --      3.2454                 2.4957                 5.3054
 Frc consts  --      0.5065                 0.3995                 0.9575
 IR Inten    --      3.6962                 4.9391                 1.1169

                     28                     29                     30
                      A                      A                      A
 Frequencies --    573.6434               625.7218               634.3913
 Red. masses --      3.1996                 2.7040                 5.6576
 Frc consts  --      0.6203                 0.6238                 1.3415
 IR Inten    --      2.9309                 0.7125                 0.7206

                     31                     32                     33
                      A                      A                      A
 Frequencies --    658.7137               699.5501               742.2211
 Red. masses --      5.8640                 4.9391                 2.1250
 Frc consts  --      1.4991                 1.4241                 0.6897
 IR Inten    --      4.3342                 2.8712                12.0639

                     34                     35                     36
                      A                      A                      A
 Frequencies --    780.4321               784.2839               799.8726
 Red. masses --      2.2387                 2.1389                 1.9332
 Frc consts  --      0.8034                 0.7751                 0.7287
 IR Inten    --     18.7938                14.1125                 0.7282

                     37                     38                     39
                      A                      A                      A
 Frequencies --    813.0406               850.8158               851.9139
 Red. masses --      3.5266                 2.5539                 2.5233
 Frc consts  --      1.3735                 1.0892                 1.0790
 IR Inten    --      0.6819                 0.0381                 1.2991

                     40                     41                     42
                      A                      A                      A
 Frequencies --    866.4477               881.3636               896.8651
 Red. masses --      1.7355                 1.3326                 2.5914
 Frc consts  --      0.7676                 0.6099                 1.2281
 IR Inten    --      6.5535                 0.3331                 3.1282

                     43                     44                     45
                      A                      A                      A
 Frequencies --    937.0750               944.1440               955.7349
 Red. masses --      1.9132                 1.5896                 1.5157
 Frc consts  --      0.9898                 0.8349                 0.8157
 IR Inten    --      3.2656                 2.5143                 1.6032

                     46                     47                     48
                      A                      A                      A
 Frequencies --    958.4033               966.5769               979.8522
 Red. masses --      2.1958                 1.5928                 1.9884
 Frc consts  --      1.1884                 0.8768                 1.1248
 IR Inten    --      1.7749                 1.3771                 1.5721

                     49                     50                     51
                      A                      A                      A
 Frequencies --    981.7903               992.8267              1003.5733
 Red. masses --      1.2556                 2.2389                 1.9609
 Frc consts  --      0.7131                 1.3003                 1.1636
 IR Inten    --      0.0685                 1.4757                10.3162

                     52                     53                     54
                      A                      A                      A
 Frequencies --   1022.3041              1032.8401              1056.2170
 Red. masses --      1.6355                 1.3487                 1.9089
 Frc consts  --      1.0071                 0.8477                 1.2547
 IR Inten    --      2.2276                 0.0992                 1.0466

                     55                     56                     57
                      A                      A                      A
 Frequencies --   1079.6861              1080.8453              1083.0482
 Red. masses --      1.5194                 1.7709                 1.8931
 Frc consts  --      1.0436                 1.2189                 1.3083
 IR Inten    --      4.1244                 3.5345                 1.8259

                     58                     59                     60
                      A                      A                      A
 Frequencies --   1099.3829              1117.0975              1142.1574
 Red. masses --      1.9379                 2.4440                 1.3567
 Frc consts  --      1.3800                 1.7969                 1.0428
 IR Inten    --      0.5213                 4.9254                 0.4760

                     61                     62                     63
                      A                      A                      A
 Frequencies --   1155.4869              1166.7355              1179.8000
 Red. masses --      1.5971                 1.6886                 1.7833
 Frc consts  --      1.2564                 1.3543                 1.4625
 IR Inten    --      6.4421                 7.2789                 5.4663

                     64                     65                     66
                      A                      A                      A
 Frequencies --   1196.3597              1214.0851              1226.6426
 Red. masses --      1.0927                 2.4411                 2.8447
 Frc consts  --      0.9214                 2.1200                 2.5219
 IR Inten    --      0.3968                12.1065                 1.8300

                     67                     68                     69
                      A                      A                      A
 Frequencies --   1247.4730              1266.1917              1274.2709
 Red. masses --      2.1340                 2.5062                 2.4631
 Frc consts  --      1.9566                 2.3674                 2.3564
 IR Inten    --      2.8518                 0.4129                 7.3463

                     70                     71                     72
                      A                      A                      A
 Frequencies --   1293.8999              1311.6509              1313.6330
 Red. masses --      2.0238                 1.2838                 1.2663
 Frc consts  --      1.9962                 1.3013                 1.2875
 IR Inten    --      4.1930                 1.0417                 1.2766

                     73                     74                     75
                      A                      A                      A
 Frequencies --   1320.2626              1330.5190              1349.3423
 Red. masses --      1.4825                 1.5230                 6.8802
 Frc consts  --      1.5226                 1.5885                 7.3807
 IR Inten    --      1.7666                 2.0849                 0.9006

                     76                     77                     78
                      A                      A                      A
 Frequencies --   1358.3967              1362.3549              1390.6209
 Red. masses --      1.5568                 1.4518                 1.4183
 Frc consts  --      1.6926                 1.5876                 1.6160
 IR Inten    --      4.8553                 1.4977                 1.3064

                     79                     80                     81
                      A                      A                      A
 Frequencies --   1402.1222              1405.5154              1410.1800
 Red. masses --      1.4732                 1.4105                 1.4550
 Frc consts  --      1.7065                 1.6418                 1.7048
 IR Inten    --     15.7308                 0.1179                 0.2686

                     82                     83                     84
                      A                      A                      A
 Frequencies --   1427.0591              1437.8455              1445.2803
 Red. masses --      1.2640                 1.2461                 1.2329
 Frc consts  --      1.5166                 1.5179                 1.5173
 IR Inten    --     10.2888                 6.8187                 4.4774

                     85                     86                     87
                      A                      A                      A
 Frequencies --   1488.0829              1503.6598              1505.2349
 Red. masses --      2.1911                 1.1203                 1.1038
 Frc consts  --      2.8587                 1.4925                 1.4735
 IR Inten    --      5.8002                 7.0035                 1.5911

                     88                     89                     90
                      A                      A                      A
 Frequencies --   1510.0854              1512.9770              1514.8164
 Red. masses --      1.4703                 1.1036                 1.1143
 Frc consts  --      1.9754                 1.4884                 1.5065
 IR Inten    --     17.3006                 2.5737                 3.0653

                     91                     92                     93
                      A                      A                      A
 Frequencies --   1516.4674              1518.5025              1520.8907
 Red. masses --      1.3289                 1.0680                 1.2454
 Frc consts  --      1.8006                 1.4510                 1.6973
 IR Inten    --      5.3104                 5.2801                10.3431

                     94                     95                     96
                      A                      A                      A
 Frequencies --   1525.8692              1529.5336              1534.8543
 Red. masses --      1.0848                 1.4212                 1.1103
 Frc consts  --      1.4881                 1.9590                 1.5410
 IR Inten    --      8.9014                12.8279                 5.4580

                     97                     98                     99
                      A                      A                      A
 Frequencies --   1536.3688              1541.7587              1545.7953
 Red. masses --      1.0882                 1.0580                 2.0883
 Frc consts  --      1.5133                 1.4817                 2.9399
 IR Inten    --      1.9693                14.7818                42.1038

                    100                    101                    102
                      A                      A                      A
 Frequencies --   1640.8911              1665.7683              3010.6911
 Red. masses --      5.8731                 5.9157                 1.0636
 Frc consts  --      9.3170                 9.6713                 5.6801
 IR Inten    --      2.0403                 4.6310                15.7359

                    103                    104                    105
                      A                      A                      A
 Frequencies --   3013.4469              3019.0248              3044.0336
 Red. masses --      1.0668                 1.0642                 1.0668
 Frc consts  --      5.7075                 5.7151                 5.8244
 IR Inten    --     29.3403                45.7240                38.4424

                    106                    107                    108
                      A                      A                      A
 Frequencies --   3044.6363              3052.8506              3054.8603
 Red. masses --      1.0686                 1.0376                 1.0591
 Frc consts  --      5.8364                 5.6978                 5.8233
 IR Inten    --     39.1899                 8.7568                13.0579

                    109                    110                    111
                      A                      A                      A
 Frequencies --   3055.4814              3057.1841              3061.8234
 Red. masses --      1.0403                 1.0833                 1.0498
 Frc consts  --      5.7221                 5.9653                 5.7983
 IR Inten    --      7.3980                64.3483                38.4615

                    112                    113                    114
                      A                      A                      A
 Frequencies --   3066.2983              3069.4790              3095.1099
 Red. masses --      1.0916                 1.0921                 1.1010
 Frc consts  --      6.0470                 6.0624                 6.2145
 IR Inten    --     69.1525                49.6210                 6.6788

                    115                    116                    117
                      A                      A                      A
 Frequencies --   3101.0611              3103.1912              3111.2333
 Red. masses --      1.1001                 1.1025                 1.0997
 Frc consts  --      6.2331                 6.2554                 6.2717
 IR Inten    --     61.7169                32.4111                19.3835

                    118                    119                    120
                      A                      A                      A
 Frequencies --   3121.8170              3126.7532              3135.0987
 Red. masses --      1.1015                 1.1010                 1.1031
 Frc consts  --      6.3249                 6.3420                 6.3880
 IR Inten    --      2.0434                46.8067                23.9719

                    121                    122                    123
                      A                      A                      A
 Frequencies --   3136.9025              3141.3817              3181.5344
 Red. masses --      1.1028                 1.1027                 1.0864
 Frc consts  --      6.3935                 6.4114                 6.4794
 IR Inten    --     10.6804                29.3374                 5.7140

                    124                    125                    126
                      A                      A                      A
 Frequencies --   3193.9557              3208.2590              3227.7906
 Red. masses --      1.0895                 1.0951                 1.0933
 Frc consts  --      6.5482                 6.6410                 6.7115
 IR Inten    --     14.8614                34.4902                 8.7918

 - Thermochemistry -
 -------------------
 Temperature   298.150 Kelvin.  Pressure   1.00000 Atm.
 Atom     1 has atomic number  6 and mass  12.00000

 Molecular mass:   255.19870 amu.
 Principal axes and moments of inertia in atomic units:
                           1         2         3
     Eigenvalues --  2762.893997150.757567710.54704
           X            0.99995  -0.00830  -0.00610
           Y            0.00808   0.99936  -0.03490
           Z            0.00638   0.03485   0.99937
 This molecule is an asymmetric top.
 Rotational symmetry number  1.
 Warning -- assumption of classical behavior for rotation
           may cause significant error
 Rotational temperatures (Kelvin)      0.03135     0.01211     0.01123
 Rotational constants (GHZ):           0.65321     0.25238     0.23406
 Zero-point vibrational energy    1033475.2 (Joules/Mol)
                                  247.00649 (Kcal/Mol)
 Warning -- explicit consideration of  28 degrees of freedom as
           vibrations may cause significant error
 Vibrational temperatures:     55.64    78.88    97.37   106.07   169.47
          (Kelvin)            204.65   221.47   281.53   318.36   334.16
                              356.43   370.35   388.49   396.63   415.27
                              449.15   490.91   532.13   554.05   581.80
                              625.22   637.38   654.49   701.51   740.48
                              749.95   796.29   825.34   900.27   912.75
                              947.74  1006.50  1067.89  1122.87  1128.41
                             1150.84  1169.78  1224.13  1225.71  1246.62
                             1268.09  1290.39  1348.24  1358.41  1375.09
                             1378.93  1390.69  1409.79  1412.58  1428.46
                             1443.92  1470.87  1486.03  1519.66  1553.43
                             1555.10  1558.26  1581.77  1607.25  1643.31
                             1662.49  1678.67  1697.47  1721.29  1746.80
                             1764.87  1794.84  1821.77  1833.39  1861.63
                             1887.17  1890.02  1899.56  1914.32  1941.40
                             1954.43  1960.12  2000.79  2017.34  2022.22
                             2028.93  2053.22  2068.74  2079.44  2141.02
                             2163.43  2165.70  2172.68  2176.84  2179.48
                             2181.86  2184.79  2188.22  2195.39  2200.66
                             2208.31  2210.49  2218.25  2224.05  2360.88
                             2396.67  4331.71  4335.68  4343.70  4379.69
                             4380.55  4392.37  4395.26  4396.16  4398.61
                             4405.28  4411.72  4416.30  4453.17  4461.74
                             4464.80  4476.37  4491.60  4498.70  4510.71
                             4513.30  4519.75  4577.52  4595.39  4615.97
                             4644.07

 Zero-point correction=                           0.393630 (Hartree/Particle)
 Thermal correction to Energy=                    0.411433
 Thermal correction to Enthalpy=                  0.412377
 Thermal correction to Gibbs Free Energy=         0.348950
 Sum of electronic and zero-point Energies=           -755.376702
 Sum of electronic and thermal Energies=              -755.358899
 Sum of electronic and thermal Enthalpies=            -755.357954
 Sum of electronic and thermal Free Energies=         -755.421381

                     E (Thermal)             CV                S
                      KCal/Mol        Cal/Mol-Kelvin    Cal/Mol-Kelvin
 Total                  258.178             72.375            133.493
 Electronic               0.000              0.000              0.000
 Translational            0.889              2.981             42.511
 Rotational               0.889              2.981             33.388
 Vibrational            256.401             66.413             57.595
 Vibration     1          0.594              1.981              5.326
 Vibration     2          0.596              1.976              4.635
 Vibration     3          0.598              1.970              4.220
 Vibration     4          0.599              1.966              4.051
 Vibration     5          0.608              1.935              3.136
 Vibration     6          0.616              1.911              2.774
 Vibration     7          0.619              1.898              2.623
 Vibration     8          0.636              1.846              2.173
 Vibration     9          0.648              1.809              1.949
 Vibration    10          0.653              1.792              1.861
 Vibration    11          0.661              1.767              1.747
 Vibration    12          0.667              1.750              1.679
 Vibration    13          0.674              1.728              1.596
 Vibration    14          0.677              1.718              1.560
 Vibration    15          0.685              1.695              1.482
 Vibration    16          0.701              1.650              1.351
 Vibration    17          0.721              1.593              1.207
 Vibration    18          0.742              1.534              1.080
 Vibration    19          0.754              1.502              1.019
 Vibration    20          0.770              1.461              0.947
 Vibration    21          0.795              1.395              0.844
 Vibration    22          0.803              1.376              0.817
 Vibration    23          0.813              1.350              0.781
 Vibration    24          0.844              1.278              0.690
 Vibration    25          0.870              1.218              0.622
 Vibration    26          0.876              1.203              0.607
 Vibration    27          0.909              1.132              0.537
 Vibration    28          0.930              1.088              0.497

                           ! Non-Optimized Parameters !
 Normal termination of Gaussian 16 at Sun Dec 13 16:50:06 2020.

 ----------------------------------------------------------------------
 # B3LYP/6-311++G(d,p) empiricaldispersion=gd3bj scf=xqc pop=npa geom=c
 heck
 ----------------------------------------------------------------------

 ---------------------------------------
 CID_140735878_JID_9119_Energie_neutraal
 ---------------------------------------
 Structure from the checkpoint file:  "JID_9119.chk"
 Charge =  0 Multiplicity = 1

 SCF Done:  E(RB3LYP) =  -755.964491971     A.U. after   15 cycles
 Normal termination of Gaussian 16 at Sun Dec 13 17:03:47 2020.

 ----------------------------------------------------------------------
 # B3LYP/6-311++G(d,p) empiricaldispersion=gd3bj scf=xqc pop=npa geom=c
 heck
 ----------------------------------------------------------------------

 -------------------------------------
 CID_140735878_JID_9119_Energie_kation
 -------------------------------------
 Structure from the checkpoint file:  "JID_9119.chk"
 Charge =  1 Multiplicity = 2

 SCF Done:  E(UB3LYP) =  -755.704701416     A.U. after   22 cycles
 Normal termination of Gaussian 16 at Sun Dec 13 17:32:39 2020.
 Gaussian 16:  ES64L-G16RevA.03 25-Dec-2016

 ----------------------------------------------------------------------
 # B3LYP/6-311++G(d,p) empiricaldispersion=gd3bj scf=xqc pop=npa geom=c
 heck
 ----------------------------------------------------------------------

 ------------------------------------
 CID_140735878_JID_9119_Energie_anion
 ------------------------------------
 Structure from the checkpoint file:  "JID_9119.chk"
 Charge = -1 Multiplicity = 2

                         Standard orientation:
 ---------------------------------------------------------------------
 Center     Atomic      Atomic             Coordinates (Angstroms)
 Number     Number       Type             X           Y           Z
 ---------------------------------------------------------------------
      1          6           0       -1.560669   -1.720765    1.738939
      2          6           0       -2.321911   -1.134617    0.578637
      3          6           0       -3.623087   -1.558148    0.288596
      4          6           0       -4.326968   -1.065096   -0.810092
      5          6           0       -3.722614   -0.141877   -1.660431
      6          6           0       -2.425250    0.293689   -1.392472
      7          6           0       -1.736741   -0.183369   -0.276654
      8          7           0       -0.405119    0.293503    0.000077
      9          6           0        0.635468   -0.488362   -0.175977
     10          6           0        1.850917    0.335370    0.230070
     11          6           0        2.652032    0.688873   -1.050827
     12          6           0        3.268419   -0.538884   -1.732356
     13          6           0        4.154135   -1.324723   -0.758041
     14          6           0        3.370838   -1.715974    0.500815
     15          6           0        2.752223   -0.487822    1.177720
     16          6           0        1.298863    1.607125    0.935652
     17          6           0       -0.188533    1.701313    0.546956
     18          6           0       -0.444002    2.753784   -0.540156
     19          6           0       -1.108097    1.955483    1.742772
     20          1           0       -2.152178   -2.492560    2.239664
     21          1           0       -0.621136   -2.159419    1.387080
     22          1           0       -1.299263   -0.959869    2.483239
     23          1           0       -4.087893   -2.295425    0.938154
     24          1           0       -5.337022   -1.412942   -1.006908
     25          1           0       -4.249403    0.232635   -2.533199
     26          1           0       -1.930449    0.984909   -2.064886
     27          1           0        3.451880    1.386628   -0.761837
     28          1           0        2.006697    1.227541   -1.756408
     29          1           0        3.850621   -0.221504   -2.607014
     30          1           0        2.461941   -1.187417   -2.092516
     31          1           0        4.556891   -2.219681   -1.248549
     32          1           0        5.018692   -0.705867   -0.472870
     33          1           0        2.564239   -2.403822    0.223999
     34          1           0        4.024118   -2.240800    1.209577
     35          1           0        3.550869    0.172174    1.549442
     36          1           0        2.166079   -0.794088    2.054551
     37          1           0        1.389842    1.496529    2.022339
     38          1           0        1.845870    2.512848    0.655621
     39          1           0       -1.500694    2.794131   -0.819201
     40          1           0       -0.161581    3.743441   -0.164537
     41          1           0        0.147690    2.548690   -1.437551
     42          1           0       -0.919800    1.234293    2.543616
     43          1           0       -0.927695    2.959583    2.142324
     44          1           0       -2.162615    1.889473    1.456413
 ---------------------------------------------------------------------

 SCF Done:  E(UB3LYP) =  -755.950749572     A.U. after   33 cycles
 SCF Done:  E(UB3LYP) =  -755.950749572     a.u. after    1 cycles

 The electronic state is 2-A.
 Alpha  occ. eigenvalues --  -14.26355 -10.12658 -10.11735 -10.09522 -10.08430
 Alpha  occ. eigenvalues --  -10.08377 -10.08295 -10.08179 -10.08091 -10.07330
 Alpha  occ. eigenvalues --  -10.07328 -10.07258 -10.07174 -10.06981 -10.06972
 Alpha  occ. eigenvalues --  -10.06946 -10.06883 -10.06866 -10.06696  -0.87950
 Alpha  occ. eigenvalues --   -0.77092  -0.74131  -0.71032  -0.68313  -0.67856
 Alpha  occ. eigenvalues --   -0.64855  -0.64694  -0.60208  -0.59876  -0.58625
 Alpha  occ. eigenvalues --   -0.54674  -0.51890  -0.51658  -0.50233  -0.48448
 Alpha  occ. eigenvalues --   -0.46838  -0.43701  -0.40143  -0.39512  -0.38838
 Alpha  occ. eigenvalues --   -0.37301  -0.36431  -0.35590  -0.35066  -0.34191
 Alpha  occ. eigenvalues --   -0.33650  -0.33072  -0.32618  -0.32302  -0.30623
 Alpha  occ. eigenvalues --   -0.30533  -0.29798  -0.29394  -0.28692  -0.28397
 Alpha  occ. eigenvalues --   -0.27511  -0.26782  -0.26508  -0.26219  -0.25350
 Alpha  occ. eigenvalues --   -0.24938  -0.24722  -0.24398  -0.22896  -0.21672
 Alpha  occ. eigenvalues --   -0.20117  -0.19290  -0.16314  -0.15436  -0.10233
 Alpha  occ. eigenvalues --    0.04163
 Alpha virt. eigenvalues --    0.05816   0.06361   0.06469   0.06904   0.07660
 Alpha virt. eigenvalues --    0.07705   0.07798   0.08381   0.08630   0.09187
 Alpha virt. eigenvalues --    0.09477   0.09754   0.10197   0.10881   0.10967

  Beta  occ. eigenvalues --  -14.26353 -10.12655 -10.11713 -10.09528 -10.08417
  Beta  occ. eigenvalues --  -10.08362 -10.08269 -10.08154 -10.08091 -10.07318
  Beta  occ. eigenvalues --  -10.07304 -10.07252 -10.07158 -10.06967 -10.06948
  Beta  occ. eigenvalues --  -10.06928 -10.06881 -10.06829 -10.06691  -0.87929
  Beta  occ. eigenvalues --   -0.77059  -0.74114  -0.71005  -0.68286  -0.67828
  Beta  occ. eigenvalues --   -0.64832  -0.64656  -0.60151  -0.59840  -0.58588
  Beta  occ. eigenvalues --   -0.54620  -0.51851  -0.51620  -0.50203  -0.48419
  Beta  occ. eigenvalues --   -0.46798  -0.43670  -0.40104  -0.39474  -0.38806
  Beta  occ. eigenvalues --   -0.37274  -0.36404  -0.35555  -0.35043  -0.34172
  Beta  occ. eigenvalues --   -0.33624  -0.33036  -0.32594  -0.32273  -0.30594
  Beta  occ. eigenvalues --   -0.30494  -0.29768  -0.29369  -0.28669  -0.28366
  Beta  occ. eigenvalues --   -0.27470  -0.26750  -0.26483  -0.26165  -0.25327
  Beta  occ. eigenvalues --   -0.24913  -0.24696  -0.24376  -0.22874  -0.21645
  Beta  occ. eigenvalues --   -0.20098  -0.19259  -0.16202  -0.15371  -0.10177
  Beta virt. eigenvalues --    0.06058   0.06407   0.06627   0.07119   0.07333
  Beta virt. eigenvalues --    0.07756   0.07984   0.08164   0.08728   0.09080
  Beta virt. eigenvalues --    0.09440   0.09657   0.10111   0.10449   0.11086

 Mulliken charges and spin densities:
               1          2
     1  C    0.418826  -0.836755
     2  C   -1.344035   1.444477
     3  C    0.412090  -0.622726
     4  C    0.904912  -1.182443
     5  C    0.399259  -0.714751
     6  C    0.340650  -0.215103
     7  C   -0.927086   0.876800
     8  N    0.650680  -0.063033
     9  C   -0.409453  -0.167476
    10  C    0.815367  -0.182928
    11  C   -0.009341  -0.536797
    12  C   -0.398055   0.074668
    13  C   -0.123132  -0.432128
    14  C    0.022950  -0.328296
    15  C   -0.226491  -0.154379
    16  C   -0.818113   0.717377
    17  C   -1.296375   1.287026
    18  C    1.129278  -1.846869
    19  C    0.893581  -1.479315
    20  H   -0.173721   0.328007
    21  H    0.183899  -0.004976
    22  H    0.042371   0.091810
    23  H   -0.171569   0.319873
    24  H   -0.344528   0.504186
    25  H   -0.408908   0.589206
    26  H    0.181049  -0.019247
    27  H   -0.059940   0.216574
    28  H    0.088691   0.051634
    29  H    0.047071   0.109665
    30  H    0.132979   0.016909
    31  H    0.088690   0.064898
    32  H    0.077448   0.032232
    33  H    0.138324   0.000226
    34  H   -0.003842   0.169402
    35  H   -0.148924   0.313695
    36  H    0.066814   0.069996
    37  H   -0.184265   0.391174
    38  H   -0.248525   0.456735
    39  H   -0.171836   0.343148
    40  H   -0.363911   0.525361
    41  H   -0.123321   0.252067
    42  H   -0.033049   0.167319
    43  H   -0.220108   0.397120
    44  H    0.173599  -0.024363
 Sum of Mulliken charges =  -1.00000   1.00000

 Dipole moment (field-independent basis, Debye):
    X=              2.6702    Y=             -2.8948    Z=             -0.5330  Tot=              3.9741
 Quadrupole moment (field-independent basis, Debye-Ang):
   XX=           -196.6606   YY=           -175.4355   ZZ=           -159.4613
   XY=             -5.5222   XZ=             -7.2675   YZ=             -2.3008

 Summary of Natural Population Analysis:

                                       Natural Population
                Natural  -----------------------------------------------
    Atom  No    Charge         Core      Valence    Rydberg      Total
 -----------------------------------------------------------------------
      C    1   -0.29646      0.99963     2.29118    0.00566     3.29646
      C    2   -0.01274      0.99946     2.00426    0.00902     3.01274
      C    3   -0.09589      0.99952     2.08696    0.00941     3.09589
      C    4   -0.09771      0.99956     2.08833    0.00982     3.09771
      C    5   -0.10199      0.99956     2.09265    0.00978     3.10199
      C    6   -0.09871      0.99950     2.09040    0.00881     3.09871
      C    7    0.08563      0.99938     1.90178    0.01320     2.91437
      N    8   -0.24466      0.99961     2.73072    0.01434     3.74466
      C    9    0.06340      0.99962     1.92449    0.01249     2.93660
      C   10   -0.08941      0.99955     2.07615    0.01371     3.08941
      C   11   -0.18328      0.99959     2.17273    0.01096     3.18328
      C   12   -0.19103      0.99962     2.18414    0.00726     3.19103
      C   13   -0.18692      0.99963     2.18053    0.00676     3.18692
      C   14   -0.19357      0.99963     2.18504    0.00890     3.19357
      C   15   -0.18296      0.99959     2.17248    0.01089     3.18296
      C   16   -0.19317      0.99955     2.18213    0.01149     3.19317
      C   17    0.06383      0.99954     1.92112    0.01551     2.93617
      C   18   -0.29115      0.99960     2.28442    0.00714     3.29115
      C   19   -0.29068      0.99961     2.28439    0.00668     3.29068
      H   20    0.10017      0.00000     0.39901    0.00082     0.39983
      H   21    0.11707      0.00000     0.38182    0.00112     0.38293
      H   22    0.10432      0.00000     0.39458    0.00110     0.39568
      H   23    0.09958      0.00000     0.39943    0.00099     0.40042
      H   24    0.10085      0.00000     0.39810    0.00105     0.39915
      H   25    0.10187      0.00000     0.39712    0.00101     0.39813
      H   26    0.10543      0.00000     0.39303    0.00153     0.39457
      H   27    0.09651      0.00000     0.40220    0.00129     0.40349
      H   28    0.09935      0.00000     0.39940    0.00124     0.40065
      H   29    0.09409      0.00000     0.40497    0.00094     0.40591
      H   30    0.10384      0.00000     0.39495    0.00121     0.39616
      H   31    0.09508      0.00000     0.40401    0.00091     0.40492
      H   32    0.08970      0.00000     0.40909    0.00121     0.41030
      H   33    0.10454      0.00000     0.39428    0.00119     0.39546
      H   34    0.09443      0.00000     0.40473    0.00084     0.40557
      H   35    0.09607      0.00000     0.40265    0.00128     0.40393
      H   36    0.09973      0.00000     0.39911    0.00117     0.40027
      H   37    0.10290      0.00000     0.39550    0.00160     0.39710
      H   38    0.10692      0.00000     0.39145    0.00163     0.39308
      H   39    0.10403      0.00000     0.39450    0.00148     0.39597
      H   40    0.10658      0.00000     0.39188    0.00154     0.39342
      H   41    0.10130      0.00000     0.39728    0.00142     0.39870
      H   42    0.10080      0.00000     0.39781    0.00139     0.39920
      H   43    0.10624      0.00000     0.39272    0.00104     0.39376
      H   44    0.10605      0.00000     0.39278    0.00116     0.39395
 =======================================================================
   * Total *    0.00000     18.99174    50.78630    0.22196    70.00000

 Normal termination of Gaussian 16 at Sun Dec 13 18:14:52 2020.
