 Gaussian 16, Revision A.03,

 -----------------------------------------------------------
 # opt freq B3LYP/6-31G(d) empiricaldispersion=gd3bj scf=xqc
 -----------------------------------------------------------

 -------------------------------
 CID_114126296_JID_9680_neutraal
 -------------------------------
 Symbolic Z-matrix:
 Charge =  0 Multiplicity = 1

 SCF Done:  E(RB3LYP) =  -1201.08742141     A.U. after   15 cycles
 SCF Done:  E(RB3LYP) =  -1201.08943569     A.U. after   14 cycles
 SCF Done:  E(RB3LYP) =  -1201.09148159     A.U. after   14 cycles
 SCF Done:  E(RB3LYP) =  -1201.09564943     A.U. after   13 cycles
 SCF Done:  E(RB3LYP) =  -1201.09735695     A.U. after   13 cycles
 SCF Done:  E(RB3LYP) =  -1201.09790754     A.U. after   12 cycles
 SCF Done:  E(RB3LYP) =  -1201.09824433     A.U. after   12 cycles
 SCF Done:  E(RB3LYP) =  -1201.09871653     A.U. after   12 cycles
 SCF Done:  E(RB3LYP) =  -1201.09946015     A.U. after   12 cycles
 SCF Done:  E(RB3LYP) =  -1201.10095435     A.U. after   12 cycles
 SCF Done:  E(RB3LYP) =  -1201.10704603     A.U. after    8 cycles
 SCF Done:  E(RB3LYP) =  -1201.10704233     A.U. after   10 cycles
 SCF Done:  E(RB3LYP) =  -1201.10704623     A.U. after   10 cycles
 SCF Done:  E(RB3LYP) =  -1201.10704627     A.U. after    7 cycles
 Optimization completed.
    -- Stationary point found.
 Normal termination of Gaussian 16 at Sat Dec 12 10:35:00 2020.

 --------------------------------------------------------------------
 #N Geom=AllCheck Guess=TCheck SCRF=Check GenChk RB3LYP/6-31G(d) Freq
 --------------------------------------------------------------------

 Structure from the checkpoint file:  "JID_9680.chk"
 -------------------------------
 CID_114126296_JID_9680_neutraal
 -------------------------------
 Charge =  0 Multiplicity = 1

 SCF Done:  E(RB3LYP) =  -1201.10704627     A.U. after    1 cycles

  Exact polarizability: 221.235  -2.977 181.726 -20.849  -6.162 140.562
 Approx polarizability: 299.783 -13.144 288.202 -37.397 -16.338 222.708

                      1                      2                      3
                      A                      A                      A
 Frequencies --     17.1972                22.6567                39.7389
 Red. masses --      5.1206                 5.1380                 4.6801
 Frc consts  --      0.0009                 0.0016                 0.0044
 IR Inten    --      2.3954                 1.4829                 0.6247

                      4                      5                      6
                      A                      A                      A
 Frequencies --     52.7636                72.4817                87.2126
 Red. masses --      3.7515                 4.5436                 3.3511
 Frc consts  --      0.0062                 0.0141                 0.0150
 IR Inten    --      0.7535                 0.2190                 2.6007

                      7                      8                      9
                      A                      A                      A
 Frequencies --     93.6941               107.6999               126.3193
 Red. masses --      4.6917                 4.3526                 3.5673
 Frc consts  --      0.0243                 0.0297                 0.0335
 IR Inten    --      0.4480                 3.1424                 6.4936

                     10                     11                     12
                      A                      A                      A
 Frequencies --    133.5303               164.8578               177.9006
 Red. masses --      3.9565                 3.1470                 2.3004
 Frc consts  --      0.0416                 0.0504                 0.0429
 IR Inten    --      4.4331                 4.6934                 1.7014

                     13                     14                     15
                      A                      A                      A
 Frequencies --    184.6181               207.3073               235.1246
 Red. masses --      1.5040                 4.1672                 2.8672
 Frc consts  --      0.0302                 0.1055                 0.0934
 IR Inten    --      1.8959                 5.1707                 2.5158

                     16                     17                     18
                      A                      A                      A
 Frequencies --    253.1841               263.5116               278.8908
 Red. masses --      2.9011                 4.7916                 2.7475
 Frc consts  --      0.1096                 0.1960                 0.1259
 IR Inten    --      8.5924                 7.3528                 2.5694

                     19                     20                     21
                      A                      A                      A
 Frequencies --    304.6342               305.1364               347.9292
 Red. masses --      2.0119                 1.3701                 2.2824
 Frc consts  --      0.1100                 0.0752                 0.1628
 IR Inten    --      4.9426                62.8613                 1.5514

                     22                     23                     24
                      A                      A                      A
 Frequencies --    378.7869               391.6724               433.5451
 Red. masses --      4.8153                 2.1085                 2.3094
 Frc consts  --      0.4071                 0.1906                 0.2557
 IR Inten    --      3.8457                 0.0046                 0.5589

                     25                     26                     27
                      A                      A                      A
 Frequencies --    451.3834               469.5897               504.1492
 Red. masses --      3.7203                 2.6884                 2.7071
 Frc consts  --      0.4466                 0.3493                 0.4054
 IR Inten    --      2.0927                 0.2279                 0.4413

                     28                     29                     30
                      A                      A                      A
 Frequencies --    552.2629               569.1164               625.6289
 Red. masses --      4.0844                 3.5426                 2.0961
 Frc consts  --      0.7340                 0.6760                 0.4834
 IR Inten    --     28.9738                43.4634                43.1961

                     31                     32                     33
                      A                      A                      A
 Frequencies --    638.1909               649.0756               662.7814
 Red. masses --      3.6065                 3.7544                 2.2111
 Frc consts  --      0.8654                 0.9319                 0.5723
 IR Inten    --     10.4399                 0.3286                85.7675

                     34                     35                     36
                      A                      A                      A
 Frequencies --    715.0554               720.1984               753.0144
 Red. masses --      3.3030                 3.3594                 1.9192
 Frc consts  --      0.9950                 1.0266                 0.6412
 IR Inten    --     15.0946                24.9424                 8.3019

                     37                     38                     39
                      A                      A                      A
 Frequencies --    759.6396               778.0538               797.0986
 Red. masses --      1.9428                 3.6897                 3.4076
 Frc consts  --      0.6605                 1.3160                 1.2756
 IR Inten    --      4.8630                 6.6875                 4.5613

                     40                     41                     42
                      A                      A                      A
 Frequencies --    830.1188               843.6431               860.2220
 Red. masses --      1.8963                 2.2908                 3.3106
 Frc consts  --      0.7699                 0.9606                 1.4434
 IR Inten    --     26.6825                48.1351                41.0999

                     43                     44                     45
                      A                      A                      A
 Frequencies --    864.6589               890.6155               916.7529
 Red. masses --      1.3843                 2.0584                 1.6884
 Frc consts  --      0.6098                 0.9620                 0.8360
 IR Inten    --     16.0423                 9.3732                 2.6528

                     46                     47                     48
                      A                      A                      A
 Frequencies --    940.1245               960.3324               967.0204
 Red. masses --      1.9092                 1.3899                 1.6426
 Frc consts  --      0.9942                 0.7552                 0.9050
 IR Inten    --     85.6150                 1.3701                 8.1481

                     49                     50                     51
                      A                      A                      A
 Frequencies --    984.6510               993.2136               996.2355
 Red. masses --      1.4542                 1.3117                 1.4125
 Frc consts  --      0.8307                 0.7624                 0.8260
 IR Inten    --      2.6647                16.4319                 1.2145

                     52                     53                     54
                      A                      A                      A
 Frequencies --   1003.5650              1027.3811              1064.4559
 Red. masses --      1.6841                 1.5297                 2.8306
 Frc consts  --      0.9994                 0.9513                 1.8896
 IR Inten    --      0.5381                 9.2807                15.3662

                     55                     56                     57
                      A                      A                      A
 Frequencies --   1083.5144              1098.1904              1115.0556
 Red. masses --      2.0571                 1.8942                 2.0614
 Frc consts  --      1.4229                 1.3460                 1.5101
 IR Inten    --     15.0104                 9.4685                 9.8768

                     58                     59                     60
                      A                      A                      A
 Frequencies --   1136.8341              1144.8812              1157.7118
 Red. masses --      2.2064                 2.9119                 2.9568
 Frc consts  --      1.6801                 2.2487                 2.3349
 IR Inten    --      3.3390                10.4685                47.1146

                     61                     62                     63
                      A                      A                      A
 Frequencies --   1186.6355              1198.3165              1227.0172
 Red. masses --      1.2208                 1.3352                 1.8100
 Frc consts  --      1.0128                 1.1296                 1.6056
 IR Inten    --      2.6802                24.2785                17.5925

                     64                     65                     66
                      A                      A                      A
 Frequencies --   1244.7548              1263.9297              1291.9253
 Red. masses --      1.3240                 1.3631                 2.2856
 Frc consts  --      1.2087                 1.2830                 2.2476
 IR Inten    --     31.0805                47.8069                30.2695

                     67                     68                     69
                      A                      A                      A
 Frequencies --   1313.7666              1324.8281              1331.2445
 Red. masses --      1.2390                 1.9554                 1.2397
 Frc consts  --      1.2600                 2.0221                 1.2944
 IR Inten    --     25.4294                46.4540                13.0012

                     70                     71                     72
                      A                      A                      A
 Frequencies --   1341.4672              1353.1308              1360.8758
 Red. masses --      1.3160                 3.1801                 1.1384
 Frc consts  --      1.3953                 3.4306                 1.2422
 IR Inten    --     20.2806                92.6369                 9.5251

                     73                     74                     75
                      A                      A                      A
 Frequencies --   1381.0479              1387.9617              1391.4573
 Red. masses --      1.4449                 1.7275                 1.2130
 Frc consts  --      1.6237                 1.9608                 1.3837
 IR Inten    --     35.7558                40.7308                 2.4435

                     76                     77                     78
                      A                      A                      A
 Frequencies --   1399.7583              1407.8046              1420.4280
 Red. masses --      1.3791                 1.4159                 1.4204
 Frc consts  --      1.5921                 1.6533                 1.6884
 IR Inten    --      5.6967                 7.8801                 2.1547

                     79                     80                     81
                      A                      A                      A
 Frequencies --   1422.7253              1464.0168              1475.3783
 Red. masses --      1.4448                 2.8633                 1.3527
 Frc consts  --      1.7231                 3.6159                 1.7348
 IR Inten    --      3.3839                36.3554                17.6446

                     82                     83                     84
                      A                      A                      A
 Frequencies --   1492.7961              1499.2593              1504.2872
 Red. masses --      1.0889                 1.0560                 1.8568
 Frc consts  --      1.4297                 1.3985                 2.4755
 IR Inten    --      2.8957                 6.1694                26.1208

                     85                     86                     87
                      A                      A                      A
 Frequencies --   1508.7201              1515.9016              1525.4375
 Red. masses --      1.0936                 1.0535                 1.0969
 Frc consts  --      1.4666                 1.4263                 1.5039
 IR Inten    --      4.1176                11.7089                 7.9206

                     88                     89                     90
                      A                      A                      A
 Frequencies --   1528.7286              1532.5658              1548.7741
 Red. masses --      1.0996                 1.1212                 1.0828
 Frc consts  --      1.5140                 1.5516                 1.5304
 IR Inten    --     17.9882                 2.9277                15.9395

                     91                     92                     93
                      A                      A                      A
 Frequencies --   1552.5123              1633.8906              1651.8541
 Red. masses --      2.2573                 2.8999                 5.0353
 Frc consts  --      3.2057                 4.5613                 8.0951
 IR Inten    --     50.4860                92.5039               201.4703

                     94                     95                     96
                      A                      A                      A
 Frequencies --   1726.2897              1772.9315              3023.9508
 Red. masses --      1.1446                 8.2610                 1.0721
 Frc consts  --      2.0097                15.2992                 5.7762
 IR Inten    --     33.8316               355.3111                27.7518

                     97                     98                     99
                      A                      A                      A
 Frequencies --   3031.1075              3034.7960              3039.9710
 Red. masses --      1.0677                 1.0693                 1.0639
 Frc consts  --      5.7796                 5.8024                 5.7928
 IR Inten    --     14.2537                40.9063                29.5454

                    100                    101                    102
                      A                      A                      A
 Frequencies --   3050.1761              3061.3305              3067.6838
 Red. masses --      1.0633                 1.0329                 1.0671
 Frc consts  --      5.8284                 5.7034                 5.9167
 IR Inten    --     14.6573                25.3418                 4.9417

                    103                    104                    105
                      A                      A                      A
 Frequencies --   3076.4301              3081.5445              3086.5231
 Red. masses --      1.0924                 1.0932                 1.0965
 Frc consts  --      6.0917                 6.1160                 6.1543
 IR Inten    --     15.4615                30.2507                54.2502

                    106                    107                    108
                      A                      A                      A
 Frequencies --   3091.9152              3117.6831              3142.0295
 Red. masses --      1.0964                 1.1051                 1.1059
 Frc consts  --      6.1755                 6.3288                 6.4328
 IR Inten    --     72.9859                18.2949                12.9001

                    109                    110                    111
                      A                      A                      A
 Frequencies --   3146.7767              3154.7886              3171.9530
 Red. masses --      1.0897                 1.1045                 1.0898
 Frc consts  --      6.3573                 6.4764                 6.4600
 IR Inten    --     13.0124                11.8005                36.7336

                    112                    113                    114
                      A                      A                      A
 Frequencies --   3189.6347              3249.3170              3448.6519
 Red. masses --      1.0908                 1.0920                 1.0500
 Frc consts  --      6.5382                 6.7927                 7.3574
 IR Inten    --      9.1735                 1.6279                 6.5409

                    115                    116                    117
                      A                      A                      A
 Frequencies --   3514.1457              3520.3031              3555.3577
 Red. masses --      1.0773                 1.0742                 1.0938
 Frc consts  --      7.8385                 7.8435                 8.1463
 IR Inten    --     37.5083                 2.8337                 4.9686

 - Thermochemistry -
 -------------------
 Temperature   298.150 Kelvin.  Pressure   1.00000 Atm.
 Atom     1 has atomic number  6 and mass  12.00000

 Molecular mass:   282.15143 amu.
 Principal axes and moments of inertia in atomic units:
                           1         2         3
     Eigenvalues --  2827.86161********************
           X            0.99995   0.00968  -0.00272
           Y           -0.00961   0.99970   0.02247
           Z            0.00294  -0.02244   0.99974
 This molecule is an asymmetric top.
 Rotational symmetry number  1.
 Warning -- assumption of classical behavior for rotation
           may cause significant error
 Rotational temperatures (Kelvin)      0.03063     0.00702     0.00637
 Rotational constants (GHZ):           0.63820     0.14637     0.13270
 Zero-point vibrational energy     928561.1 (Joules/Mol)
                                  221.93144 (Kcal/Mol)
 Warning -- explicit consideration of  29 degrees of freedom as
           vibrations may cause significant error
 Vibrational temperatures:     24.74    32.60    57.18    75.92   104.29
          (Kelvin)            125.48   134.80   154.96   181.75   192.12
                              237.19   255.96   265.62   298.27   338.29
                              364.28   379.13   401.26   438.30   439.02
                              500.59   544.99   563.53   623.77   649.44
                              675.63   725.36   794.58   818.83   900.14
                              918.21   933.88   953.59  1028.81  1036.20
                             1083.42  1092.95  1119.45  1146.85  1194.36
                             1213.81  1237.67  1244.05  1281.40  1319.00
                             1352.63  1381.70  1391.33  1416.69  1429.01
                             1433.36  1443.91  1478.17  1531.51  1558.94
                             1580.05  1604.32  1635.65  1647.23  1665.69
                             1707.30  1724.11  1765.40  1790.92  1818.51
                             1858.79  1890.22  1906.13  1915.36  1930.07
                             1946.85  1958.00  1987.02  1996.97  2002.00
                             2013.94  2025.52  2043.68  2046.98  2106.39
                             2122.74  2147.80  2157.10  2164.33  2170.71
                             2181.04  2194.76  2199.50  2205.02  2228.34
                             2233.72  2350.80  2376.65  2483.75  2550.85
                             4350.79  4361.09  4366.39  4373.84  4388.52
                             4404.57  4413.71  4426.30  4433.66  4440.82
                             4448.58  4485.65  4520.68  4527.51  4539.04
                             4563.73  4589.17  4675.04  4961.84  5056.07
                             5064.93  5115.37

 Zero-point correction=                           0.353670 (Hartree/Particle)
 Thermal correction to Energy=                    0.374050
 Thermal correction to Enthalpy=                  0.374995
 Thermal correction to Gibbs Free Energy=         0.302280
 Sum of electronic and zero-point Energies=          -1200.753376
 Sum of electronic and thermal Energies=             -1200.732996
 Sum of electronic and thermal Enthalpies=           -1200.732052
 Sum of electronic and thermal Free Energies=        -1200.804766

                     E (Thermal)             CV                S
                      KCal/Mol        Cal/Mol-Kelvin    Cal/Mol-Kelvin
 Total                  234.720             75.582            153.041
 Electronic               0.000              0.000              0.000
 Translational            0.889              2.981             42.810
 Rotational               0.889              2.981             34.516
 Vibrational            232.943             69.620             75.715
 Vibration     1          0.593              1.986              6.934
 Vibration     2          0.593              1.985              6.387
 Vibration     3          0.594              1.981              5.272
 Vibration     4          0.596              1.977              4.711
 Vibration     5          0.599              1.967              4.085
 Vibration     6          0.601              1.958              3.722
 Vibration     7          0.603              1.954              3.581
 Vibration     8          0.606              1.943              3.310
 Vibration     9          0.611              1.927              3.001
 Vibration    10          0.613              1.920              2.895
 Vibration    11          0.623              1.886              2.493
 Vibration    12          0.628              1.870              2.350
 Vibration    13          0.631              1.861              2.281
 Vibration    14          0.641              1.829              2.067
 Vibration    15          0.655              1.787              1.839
 Vibration    16          0.664              1.757              1.708
 Vibration    17          0.670              1.740              1.638
 Vibration    18          0.679              1.713              1.540
 Vibration    19          0.696              1.665              1.391
 Vibration    20          0.696              1.664              1.389
 Vibration    21          0.726              1.579              1.176
 Vibration    22          0.749              1.515              1.044
 Vibration    23          0.759              1.488              0.994
 Vibration    24          0.794              1.397              0.847
 Vibration    25          0.810              1.358              0.792
 Vibration    26          0.827              1.318              0.739
 Vibration    27          0.859              1.241              0.648
 Vibration    28          0.908              1.135              0.540
 Vibration    29          0.925              1.098              0.506

                           ! Non-Optimized Parameters !
 Normal termination of Gaussian 16 at Sat Dec 12 10:58:00 2020.

 ----------------------------------------------------------------------
 # B3LYP/6-311++G(d,p) empiricaldispersion=gd3bj scf=xqc pop=npa geom=c
 heck
 ----------------------------------------------------------------------

 ---------------------------------------
 CID_114126296_JID_9680_Energie_neutraal
 ---------------------------------------
 Structure from the checkpoint file:  "JID_9680.chk"
 Charge =  0 Multiplicity = 1

 SCF Done:  E(RB3LYP) =  -1201.36829061     A.U. after   16 cycles
 Normal termination of Gaussian 16 at Sat Dec 12 11:10:17 2020.

 ----------------------------------------------------------------------
 # B3LYP/6-311++G(d,p) empiricaldispersion=gd3bj scf=xqc pop=npa geom=c
 heck
 ----------------------------------------------------------------------

 -------------------------------------
 CID_114126296_JID_9680_Energie_kation
 -------------------------------------
 Structure from the checkpoint file:  "JID_9680.chk"
 Charge =  1 Multiplicity = 2

 SCF Done:  E(UB3LYP) =  -1201.08006567     A.U. after   33 cycles
 SCF Done:  E(UB3LYP) =  -1201.08006568     a.u. after    2 cycles
 Normal termination of Gaussian 16 at Sat Dec 12 12:15:07 2020.
 Gaussian 16:  ES64L-G16RevA.03 25-Dec-2016

 ----------------------------------------------------------------------
 # B3LYP/6-311++G(d,p) empiricaldispersion=gd3bj scf=xqc pop=npa geom=c
 heck
 ----------------------------------------------------------------------

 ------------------------------------
 CID_114126296_JID_9680_Energie_anion
 ------------------------------------
 Structure from the checkpoint file:  "JID_9680.chk"
 Charge = -1 Multiplicity = 2

                         Standard orientation:
 ---------------------------------------------------------------------
 Center     Atomic      Atomic             Coordinates (Angstroms)
 Number     Number       Type             X           Y           Z
 ---------------------------------------------------------------------
      1          6           0       -5.009573   -0.154141    1.509321
      2         16           0       -5.261306    0.889004    0.030187
      3          6           0       -4.326860   -0.047617   -1.250498
      4          6           0       -2.886438    0.424082   -1.478634
      5          6           0       -1.947238    0.294634   -0.272966
      6          6           0       -1.691786   -1.142774    0.209790
      7          6           0       -0.880486   -2.009265   -0.764894
      8          6           0        0.600009   -1.635420   -0.879521
      9          7           0        1.305820   -1.911288    0.384336
     10          6           0        2.656942   -1.600087    0.557176
     11          8           0        3.409950   -2.391689    1.109629
     12          6           0        3.122604   -0.261880    0.092306
     13          6           0        2.415333    0.950268    0.289140
     14          6           0        3.041628    2.136059   -0.131790
     15          6           0        4.297532    2.061969   -0.713824
     16          7           0        4.994142    0.926233   -0.897467
     17          6           0        4.400721   -0.190399   -0.476590
     18          7           0        1.160507    0.959694    0.861530
     19          7           0        0.643668    2.171802    1.350364
     20          1           0       -5.643319    0.262680    2.296516
     21          1           0       -3.972300   -0.147208    1.852805
     22          1           0       -5.325734   -1.183921    1.317333
     23          1           0       -4.374283   -1.110956   -0.992224
     24          1           0       -4.900131    0.077074   -2.174433
     25          1           0       -2.480942   -0.135333   -2.333740
     26          1           0       -2.912268    1.475432   -1.788417
     27          1           0       -0.988972    0.761557   -0.527904
     28          1           0       -2.368873    0.883110    0.552746
     29          1           0       -1.168879   -1.114815    1.174611
     30          1           0       -2.648535   -1.640205    0.408093
     31          1           0       -0.951346   -3.062851   -0.459847
     32          1           0       -1.319963   -1.961099   -1.768505
     33          1           0        1.055521   -2.205377   -1.701805
     34          1           0        0.716562   -0.576741   -1.116796
     35          1           0        1.150999   -2.860132    0.719260
     36          1           0        2.538896    3.083363    0.013853
     37          1           0        4.785790    2.976010   -1.048017
     38          1           0        4.959857   -1.116185   -0.592251
     39          1           0        0.867120    0.091693    1.300158
     40          1           0       -0.345393    2.216134    1.118771
     41          1           0        0.744203    2.219549    2.364333
 ---------------------------------------------------------------------

 SCF Done:  E(UB3LYP) =  -1201.36996344     A.U. after   33 cycles
 SCF Done:  E(UB3LYP) =  -1201.36996344     a.u. after    1 cycles

 The electronic state is 2-A.
 Alpha  occ. eigenvalues --  -88.75459 -18.98198 -14.25594 -14.24458 -14.23075
 Alpha  occ. eigenvalues --  -14.19022 -10.15978 -10.12296 -10.11810 -10.11495
 Alpha  occ. eigenvalues --  -10.10669 -10.09370 -10.09198 -10.08956 -10.08827
 Alpha  occ. eigenvalues --  -10.08075 -10.08021 -10.07077 -10.06310  -7.84053
 Alpha  occ. eigenvalues --   -5.80459  -5.80088  -5.79412  -0.93378  -0.90050
 Alpha  occ. eigenvalues --   -0.82792  -0.81986  -0.74077  -0.73789  -0.70635
 Alpha  occ. eigenvalues --   -0.67071  -0.65819  -0.65256  -0.62870  -0.58271
 Alpha  occ. eigenvalues --   -0.55175  -0.54336  -0.51182  -0.50894  -0.48187
 Alpha  occ. eigenvalues --   -0.46743  -0.45201  -0.42965  -0.41898  -0.40234
 Alpha  occ. eigenvalues --   -0.39843  -0.38859  -0.37304  -0.36139  -0.36055
 Alpha  occ. eigenvalues --   -0.35040  -0.34241  -0.33784  -0.33393  -0.32968
 Alpha  occ. eigenvalues --   -0.31965  -0.31451  -0.30801  -0.30260  -0.29298
 Alpha  occ. eigenvalues --   -0.28336  -0.27617  -0.27121  -0.25861  -0.24812
 Alpha  occ. eigenvalues --   -0.24187  -0.23896  -0.23083  -0.22230  -0.18980
 Alpha  occ. eigenvalues --   -0.17364  -0.16010  -0.15122  -0.14464  -0.14197
 Alpha  occ. eigenvalues --   -0.12455   0.03424
 Alpha virt. eigenvalues --    0.05157   0.05717   0.06310   0.07089   0.07815
 Alpha virt. eigenvalues --    0.08470   0.08852   0.09184   0.09283   0.09553
 Alpha virt. eigenvalues --    0.10117   0.10625   0.11036   0.11252   0.11580

  Beta  occ. eigenvalues --  -88.75454 -18.98037 -14.25571 -14.24417 -14.23072
  Beta  occ. eigenvalues --  -14.19056 -10.15833 -10.12212 -10.11800 -10.11480
  Beta  occ. eigenvalues --  -10.10622 -10.09299 -10.09196 -10.08816 -10.08780
  Beta  occ. eigenvalues --  -10.08061 -10.07996 -10.07026 -10.06332  -7.84049
  Beta  occ. eigenvalues --   -5.80453  -5.80079  -5.79409  -0.93091  -0.89967
  Beta  occ. eigenvalues --   -0.82687  -0.81891  -0.74024  -0.73689  -0.70595
  Beta  occ. eigenvalues --   -0.67015  -0.65603  -0.65173  -0.62821  -0.58211
  Beta  occ. eigenvalues --   -0.54865  -0.54284  -0.51097  -0.50828  -0.48035
  Beta  occ. eigenvalues --   -0.46695  -0.45115  -0.42876  -0.41840  -0.40155
  Beta  occ. eigenvalues --   -0.39806  -0.38811  -0.37182  -0.36009  -0.35966
  Beta  occ. eigenvalues --   -0.34999  -0.34184  -0.33687  -0.33350  -0.32887
  Beta  occ. eigenvalues --   -0.31904  -0.31258  -0.30642  -0.30019  -0.29163
  Beta  occ. eigenvalues --   -0.28274  -0.27522  -0.26757  -0.25750  -0.24714
  Beta  occ. eigenvalues --   -0.24131  -0.23858  -0.22817  -0.22184  -0.18885
  Beta  occ. eigenvalues --   -0.17143  -0.15671  -0.14978  -0.14207  -0.14130
  Beta  occ. eigenvalues --   -0.12195
  Beta virt. eigenvalues --    0.05599   0.06166   0.06697   0.06998   0.07284
  Beta virt. eigenvalues --    0.07973   0.08535   0.08947   0.09333   0.09484
  Beta virt. eigenvalues --    0.09599   0.10281   0.10884   0.11045   0.11349

 Mulliken charges and spin densities:
               1          2
     1  C    0.467434  -1.209266
     2  S   -0.268043   0.469751
     3  C   -0.176634  -0.165257
     4  C   -0.279320  -0.127816
     5  C   -0.604573   0.428328
     6  C    0.239333  -0.378329
     7  C    0.259615  -0.769273
     8  C   -0.247354   0.000087
     9  N   -0.311042   0.020931
    10  C   -0.503002  -0.255470
    11  O   -0.337663   0.057594
    12  C    0.743538  -0.268114
    13  C   -0.999969   0.488738
    14  C    0.973579  -0.208736
    15  C   -0.510033   0.139021
    16  N   -0.078893  -0.023834
    17  C   -0.505568   0.203508
    18  N    0.132424   0.008794
    19  N   -0.385439  -0.034460
    20  H   -0.212168   0.378309
    21  H   -0.431246   0.636109
    22  H   -0.169602   0.357896
    23  H    0.047904   0.090368
    24  H    0.159935   0.070882
    25  H    0.075160   0.035783
    26  H    0.139508   0.007142
    27  H    0.026045   0.139471
    28  H    0.317561  -0.234657
    29  H   -0.158563   0.321266
    30  H    0.162064  -0.010304
    31  H   -0.117418   0.278866
    32  H    0.079742   0.047105
    33  H    0.148647   0.062937
    34  H    0.156382  -0.025364
    35  H    0.292780  -0.000026
    36  H    0.212942   0.007578
    37  H    0.135300  -0.005281
    38  H    0.190511   0.005492
    39  H    0.292173  -0.004070
    40  H    0.076856   0.171037
    41  H   -0.032900   0.293264
 Sum of Mulliken charges =  -1.00000   1.00000

 Dipole moment (field-independent basis, Debye):
    X=             -3.4452    Y=              0.4618    Z=             -4.5456  Tot=              5.7223
 Quadrupole moment (field-independent basis, Debye-Ang):
   XX=           -243.4034   YY=           -158.5779   ZZ=           -153.5792
   XY=              3.3893   XZ=             11.5230   YZ=              4.3334

 Summary of Natural Population Analysis:

                                       Natural Population
                Natural  -----------------------------------------------
    Atom  No    Charge         Core      Valence    Rydberg      Total
 -----------------------------------------------------------------------
      C    1   -0.34830      0.99962     2.34209    0.00658     3.34830
      S    2    0.07803      4.99964     2.90262    0.01970     7.92197
      C    3   -0.24902      0.99959     2.24075    0.00868     3.24902
      C    4   -0.19394      0.99961     2.18629    0.00803     3.19394
      C    5   -0.20344      0.99962     2.19283    0.01100     3.20344
      C    6   -0.19683      0.99962     2.18692    0.01030     3.19683
      C    7   -0.19362      0.99962     2.18487    0.00913     3.19362
      C    8   -0.08916      0.99960     2.07977    0.00980     3.08916
      N    9   -0.34101      0.99969     2.83186    0.00946     3.84101
      C   10    0.35877      0.99963     1.61915    0.02244     2.64123
      O   11   -0.29972      0.99988     3.29450    0.00534     4.29972
      C   12   -0.11258      0.99942     2.10108    0.01207     3.11258
      C   13    0.12287      0.99947     1.86453    0.01313     2.87713
      C   14   -0.15836      0.99952     2.15125    0.00759     3.15836
      C   15    0.06323      0.99960     1.92344    0.01373     2.93677
      N   16   -0.26390      0.99972     2.75251    0.01168     3.76390
      C   17    0.06566      0.99957     1.92170    0.01308     2.93434
      N   18   -0.23323      0.99965     2.72078    0.01280     3.73323
      N   19   -0.32125      0.99976     2.80930    0.01219     3.82125
      H   20    0.10792      0.00000     0.39091    0.00118     0.39208
      H   21    0.10381      0.00000     0.39392    0.00226     0.39619
      H   22    0.10150      0.00000     0.39667    0.00183     0.39850
      H   23    0.10238      0.00000     0.39632    0.00129     0.39762
      H   24    0.10323      0.00000     0.39576    0.00101     0.39677
      H   25    0.09496      0.00000     0.40382    0.00122     0.40504
      H   26    0.09907      0.00000     0.39968    0.00125     0.40093
      H   27    0.10262      0.00000     0.39578    0.00160     0.39738
      H   28    0.10076      0.00000     0.39727    0.00197     0.39924
      H   29    0.10194      0.00000     0.39606    0.00200     0.39806
      H   30    0.09753      0.00000     0.40089    0.00157     0.40247
      H   31    0.09636      0.00000     0.40256    0.00108     0.40364
      H   32    0.09680      0.00000     0.40218    0.00101     0.40320
      H   33    0.08759      0.00000     0.41137    0.00104     0.41241
      H   34    0.10311      0.00000     0.39532    0.00157     0.39689
      H   35    0.18649      0.00000     0.31073    0.00278     0.31351
      H   36    0.11333      0.00000     0.38561    0.00106     0.38667
      H   37    0.08175      0.00000     0.41714    0.00112     0.41825
      H   38    0.09241      0.00000     0.40604    0.00155     0.40759
      H   39    0.19061      0.00000     0.30611    0.00329     0.30939
      H   40    0.17733      0.00000     0.32083    0.00184     0.32267
      H   41    0.17429      0.00000     0.32355    0.00216     0.32571
 =======================================================================
   * Total *    0.00000     22.99283    52.75475    0.25243    76.00000

 Normal termination of Gaussian 16 at Sat Dec 12 12:49:04 2020.
