 Gaussian 16, Revision A.03,

 -----------------------------------------------------------
 # opt freq B3LYP/6-31G(d) empiricaldispersion=gd3bj scf=xqc
 -----------------------------------------------------------

 -------------------------------
 CID_110733653_JID_8760_neutraal
 -------------------------------
 Symbolic Z-matrix:
 Charge =  0 Multiplicity = 1

 SCF Done:  E(RB3LYP) =  -1505.97215166     A.U. after   15 cycles
 SCF Done:  E(RB3LYP) =  -1505.97863959     A.U. after   12 cycles
 SCF Done:  E(RB3LYP) =  -1505.98113413     A.U. after   14 cycles
 SCF Done:  E(RB3LYP) =  -1505.98347726     A.U. after   14 cycles
 SCF Done:  E(RB3LYP) =  -1505.98557555     A.U. after   14 cycles
 SCF Done:  E(RB3LYP) =  -1505.98732068     A.U. after   14 cycles
 SCF Done:  E(RB3LYP) =  -1505.98945167     A.U. after   15 cycles
 SCF Done:  E(RB3LYP) =  -1505.99017897     A.U. after   13 cycles
 SCF Done:  E(RB3LYP) =  -1505.99056843     A.U. after   12 cycles
 SCF Done:  E(RB3LYP) =  -1505.99073907     A.U. after   12 cycles
 SCF Done:  E(RB3LYP) =  -1505.99107320     A.U. after    8 cycles
 SCF Done:  E(RB3LYP) =  -1505.99107340     A.U. after    8 cycles
 SCF Done:  E(RB3LYP) =  -1505.99107343     A.U. after    7 cycles
 SCF Done:  E(RB3LYP) =  -1505.99107345     A.U. after    6 cycles
 Optimization completed.
    -- Stationary point found.
 Normal termination of Gaussian 16 at Fri Dec 11 22:16:32 2020.

 --------------------------------------------------------------------
 #N Geom=AllCheck Guess=TCheck SCRF=Check GenChk RB3LYP/6-31G(d) Freq
 --------------------------------------------------------------------

 Structure from the checkpoint file:  "JID_8760.chk"
 -------------------------------
 CID_110733653_JID_8760_neutraal
 -------------------------------
 Charge =  0 Multiplicity = 1

 SCF Done:  E(RB3LYP) =  -1505.99107345     A.U. after    1 cycles

  Exact polarizability: 195.036 -17.240 171.798   0.821  -9.406 139.992
 Approx polarizability: 252.689 -33.651 309.156   0.373 -23.249 257.424

                      1                      2                      3
                      A                      A                      A
 Frequencies --     26.1303                32.6781                34.6164
 Red. masses --      4.9409                 5.6540                 6.3641
 Frc consts  --      0.0020                 0.0036                 0.0045
 IR Inten    --      0.3084                 0.2826                 0.4456

                      4                      5                      6
                      A                      A                      A
 Frequencies --     55.4661                75.5215                85.2380
 Red. masses --      4.4346                 4.7460                 5.5496
 Frc consts  --      0.0080                 0.0159                 0.0238
 IR Inten    --      0.5667                 2.4888                 1.2837

                      7                      8                      9
                      A                      A                      A
 Frequencies --    109.1882               156.0491               191.9051
 Red. masses --      4.1268                 1.9452                 4.0631
 Frc consts  --      0.0290                 0.0279                 0.0882
 IR Inten    --      0.3353                 2.1882                 0.6246

                     10                     11                     12
                      A                      A                      A
 Frequencies --    208.1803               236.3116               245.4207
 Red. masses --      3.0634                 2.9505                 4.5075
 Frc consts  --      0.0782                 0.0971                 0.1600
 IR Inten    --      0.8558                 5.0942                 0.1879

                     13                     14                     15
                      A                      A                      A
 Frequencies --    279.3496               289.2392               349.5166
 Red. masses --      5.0613                 4.6054                 2.7216
 Frc consts  --      0.2327                 0.2270                 0.1959
 IR Inten    --      1.7751                 0.3629                 4.9102

                     16                     17                     18
                      A                      A                      A
 Frequencies --    383.9813               389.1695               417.1589
 Red. masses --      3.5606                 2.4568                 2.9408
 Frc consts  --      0.3093                 0.2192                 0.3015
 IR Inten    --      1.7091                 3.0494                 0.0147

                     19                     20                     21
                      A                      A                      A
 Frequencies --    445.0043               458.6744               469.3337
 Red. masses --      4.9962                 3.7752                 5.3416
 Frc consts  --      0.5829                 0.4680                 0.6932
 IR Inten    --     16.2267                 8.9492                 7.5322

                     22                     23                     24
                      A                      A                      A
 Frequencies --    506.9898               537.1586               570.6181
 Red. masses --      4.9649                 5.8967                 3.6882
 Frc consts  --      0.7519                 1.0025                 0.7075
 IR Inten    --     25.8978                61.3943                 1.7096

                     25                     26                     27
                      A                      A                      A
 Frequencies --    603.5390               614.1377               637.2658
 Red. masses --      5.3080                 6.7461                 6.2672
 Frc consts  --      1.1392                 1.4991                 1.4996
 IR Inten    --      7.8400                15.7525                 0.1175

                     28                     29                     30
                      A                      A                      A
 Frequencies --    645.1698               703.0074               711.6644
 Red. masses --      4.6082                 1.4131                 1.7973
 Frc consts  --      1.1301                 0.4115                 0.5363
 IR Inten    --     16.5146                31.8194                36.9123

                     31                     32                     33
                      A                      A                      A
 Frequencies --    724.5065               750.4312               757.3301
 Red. masses --      2.7370                 6.4534                 3.1869
 Frc consts  --      0.8465                 2.1412                 1.0769
 IR Inten    --     36.2838                 1.3571                23.4321

                     34                     35                     36
                      A                      A                      A
 Frequencies --    802.9663               838.7176               856.8240
 Red. masses --      2.7598                 4.1542                 1.2558
 Frc consts  --      1.0484                 1.7218                 0.5432
 IR Inten    --     97.6226                 0.8488                 1.0523

                     37                     38                     39
                      A                      A                      A
 Frequencies --    863.4195               868.3070               915.1799
 Red. masses --      2.1598                 1.8038                 1.9817
 Frc consts  --      0.9487                 0.8013                 0.9779
 IR Inten    --     25.2832                 7.7549                88.3634

                     40                     41                     42
                      A                      A                      A
 Frequencies --    923.4620               931.4302               934.0393
 Red. masses --      1.9695                 1.4164                 1.6141
 Frc consts  --      0.9895                 0.7240                 0.8297
 IR Inten    --     83.2291                 9.5591                 2.1582

                     43                     44                     45
                      A                      A                      A
 Frequencies --    968.2551               968.7760               998.3011
 Red. masses --      1.7536                 1.6601                 1.2612
 Frc consts  --      0.9687                 0.9180                 0.7406
 IR Inten    --     31.4658                22.6787                 0.2876

                     46                     47                     48
                      A                      A                      A
 Frequencies --   1023.4273              1061.2223              1071.8070
 Red. masses --      6.1777                 2.2102                 1.6098
 Frc consts  --      3.8123                 1.4665                 1.0896
 IR Inten    --      0.7594                 2.4194                25.0938

                     49                     50                     51
                      A                      A                      A
 Frequencies --   1100.9694              1110.5474              1115.5667
 Red. masses --      3.3374                 1.4201                 1.8954
 Frc consts  --      2.3835                 1.0319                 1.3897
 IR Inten    --     57.0272                 6.0839                40.5830

                     52                     53                     54
                      A                      A                      A
 Frequencies --   1127.0720              1164.5630              1174.4975
 Red. masses --      1.7615                 1.7440                 1.3900
 Frc consts  --      1.3183                 1.3935                 1.1297
 IR Inten    --     43.8213                 4.0083                 7.9616

                     55                     56                     57
                      A                      A                      A
 Frequencies --   1180.0751              1195.6673              1217.7641
 Red. masses --      1.9905                 1.0970                 1.1396
 Frc consts  --      1.6332                 0.9240                 0.9957
 IR Inten    --     13.7816                 0.0160                 0.6376

                     58                     59                     60
                      A                      A                      A
 Frequencies --   1231.9145              1238.5599              1274.3894
 Red. masses --      2.0626                 2.2761                 1.4888
 Frc consts  --      1.8443                 2.0572                 1.4246
 IR Inten    --     28.9520                 1.7695                26.6480

                     61                     62                     63
                      A                      A                      A
 Frequencies --   1288.4780              1326.4888              1351.4102
 Red. masses --      2.0891                 4.1351                 1.3652
 Frc consts  --      2.0435                 4.2869                 1.4690
 IR Inten    --     50.6125               119.2509                13.3291

                     64                     65                     66
                      A                      A                      A
 Frequencies --   1364.7680              1372.4555              1395.2556
 Red. masses --      4.8841                 1.3398                 1.3101
 Frc consts  --      5.3598                 1.4869                 1.5027
 IR Inten    --      1.1759                 1.1831                48.9163

                     67                     68                     69
                      A                      A                      A
 Frequencies --   1411.9337              1484.4193              1486.4466
 Red. masses --      1.9285                 1.1485                 1.1247
 Frc consts  --      2.2652                 1.4910                 1.4642
 IR Inten    --      1.6476                 1.2943                 5.2126

                     70                     71                     72
                      A                      A                      A
 Frequencies --   1492.5907              1500.3019              1505.0946
 Red. masses --      6.0444                 1.1014                 2.1149
 Frc consts  --      7.9339                 1.4606                 2.8227
 IR Inten    --      8.4422                 6.9961                 9.5748

                     73                     74                     75
                      A                      A                      A
 Frequencies --   1513.3096              1534.3610              1549.2118
 Red. masses --      1.0636                 1.0506                 2.2328
 Frc consts  --      1.4352                 1.4573                 3.1573
 IR Inten    --      3.7601                13.5074                 8.1497

                     76                     77                     78
                      A                      A                      A
 Frequencies --   1600.4877              1647.9938              1667.9528
 Red. masses --      5.1735                 5.5669                 5.5519
 Frc consts  --      7.8080                 8.9079                 9.1003
 IR Inten    --      0.3661                 0.6026                 1.3023

                     79                     80                     81
                      A                      A                      A
 Frequencies --   3062.9524              3074.3275              3091.4153
 Red. masses --      1.0372                 1.0686                 1.0599
 Frc consts  --      5.7329                 5.9509                 5.9682
 IR Inten    --     24.0247                21.4902                 5.3702

                     82                     83                     84
                      A                      A                      A
 Frequencies --   3127.6252              3156.1022              3156.2200
 Red. masses --      1.1057                 1.0960                 1.1058
 Frc consts  --      6.3726                 6.4322                 6.4900
 IR Inten    --     13.2028                 0.4740                 1.4113

                     85                     86                     87
                      A                      A                      A
 Frequencies --   3185.8485              3192.2596              3193.3437
 Red. masses --      1.0853                 1.0996                 1.0880
 Frc consts  --      6.4899                 6.6023                 6.5366
 IR Inten    --      1.5829                 5.3002                 2.5778

                     88                     89                     90
                      A                      A                      A
 Frequencies --   3201.9675              3209.8018              3217.1788
 Red. masses --      1.0916                 1.0945                 1.0975
 Frc consts  --      6.5942                 6.6442                 6.6930
 IR Inten    --     21.9859                22.8044                 9.8354

                     91                     92                     93
                      A                      A                      A
 Frequencies --   3223.2048              3243.1436              3272.1090
 Red. masses --      1.0893                 1.0952                 1.0970
 Frc consts  --      6.6680                 6.7870                 6.9203
 IR Inten    --      7.6017                 1.0678                 1.3466

 - Thermochemistry -
 -------------------
 Temperature   298.150 Kelvin.  Pressure   1.00000 Atm.
 Atom     1 has atomic number  6 and mass  12.00000

 Molecular mass:   281.05442 amu.
 Principal axes and moments of inertia in atomic units:
                           1         2         3
     Eigenvalues --  2366.745439147.21796**********
           X            0.99995  -0.00950   0.00174
           Y            0.00949   0.99994   0.00562
           Z           -0.00179  -0.00561   0.99998
 This molecule is an asymmetric top.
 Rotational symmetry number  1.
 Warning -- assumption of classical behavior for rotation
           may cause significant error
 Rotational temperatures (Kelvin)      0.03660     0.00947     0.00853
 Rotational constants (GHZ):           0.76254     0.19730     0.17774
 Zero-point vibrational energy     687602.3 (Joules/Mol)
                                  164.34090 (Kcal/Mol)
 Warning -- explicit consideration of  26 degrees of freedom as
           vibrations may cause significant error
 Vibrational temperatures:     37.60    47.02    49.81    79.80   108.66
          (Kelvin)            122.64   157.10   224.52   276.11   299.53
                              340.00   353.11   401.92   416.15   502.88
                              552.46   559.93   600.20   640.26   659.93
                              675.27   729.45   772.85   820.99   868.36
                              883.61   916.88   928.26  1011.47  1023.93
                             1042.40  1079.70  1089.63  1155.29  1206.73
                             1232.78  1242.27  1249.30  1316.74  1328.66
                             1340.12  1343.87  1393.10  1393.85  1436.33
                             1472.48  1526.86  1542.09  1584.05  1597.83
                             1605.05  1621.61  1675.55  1689.84  1697.86
                             1720.30  1752.09  1772.45  1782.01  1833.56
                             1853.83  1908.52  1944.38  1963.60  1974.66
                             2007.46  2031.46  2135.75  2138.67  2147.51
                             2158.60  2165.50  2177.31  2207.60  2228.97
                             2302.74  2371.10  2399.81  4406.91  4423.27
                             4447.86  4499.96  4540.93  4541.10  4583.73
                             4592.95  4594.51  4606.92  4618.19  4628.80
                             4637.47  4666.16  4707.83

 Zero-point correction=                           0.261894 (Hartree/Particle)
 Thermal correction to Energy=                    0.278906
 Thermal correction to Enthalpy=                  0.279851
 Thermal correction to Gibbs Free Energy=         0.214820
 Sum of electronic and zero-point Energies=          -1505.729180
 Sum of electronic and thermal Energies=             -1505.712167
 Sum of electronic and thermal Enthalpies=           -1505.711223
 Sum of electronic and thermal Free Energies=        -1505.776253

                     E (Thermal)             CV                S
                      KCal/Mol        Cal/Mol-Kelvin    Cal/Mol-Kelvin
 Total                  175.016             64.804            136.868
 Electronic               0.000              0.000              0.000
 Translational            0.889              2.981             42.798
 Rotational               0.889              2.981             33.752
 Vibrational            173.239             58.842             60.318
 Vibration     1          0.593              1.985              6.103
 Vibration     2          0.594              1.983              5.660
 Vibration     3          0.594              1.983              5.546
 Vibration     4          0.596              1.975              4.612
 Vibration     5          0.599              1.965              4.004
 Vibration     6          0.601              1.959              3.767
 Vibration     7          0.606              1.942              3.283
 Vibration     8          0.620              1.896              2.597
 Vibration     9          0.634              1.851              2.209
 Vibration    10          0.641              1.828              2.060
 Vibration    11          0.655              1.785              1.830
 Vibration    12          0.660              1.770              1.763
 Vibration    13          0.680              1.712              1.538
 Vibration    14          0.686              1.694              1.478
 Vibration    15          0.727              1.576              1.168
 Vibration    16          0.753              1.504              1.023
 Vibration    17          0.757              1.493              1.003
 Vibration    18          0.780              1.433              0.902
 Vibration    19          0.804              1.372              0.811
 Vibration    20          0.817              1.342              0.770
 Vibration    21          0.826              1.318              0.739
 Vibration    22          0.862              1.235              0.641
 Vibration    23          0.892              1.168              0.571
 Vibration    24          0.927              1.095              0.503
 Vibration    25          0.962              1.024              0.444
 Vibration    26          0.974              1.002              0.426

 Optimization completed.
    -- Stationary point found.
 Normal termination of Gaussian 16 at Fri Dec 11 22:30:58 2020.

 ----------------------------------------------------------------------
 # B3LYP/6-311++G(d,p) empiricaldispersion=gd3bj scf=xqc pop=npa geom=c
 heck
 ----------------------------------------------------------------------

 ---------------------------------------
 CID_110733653_JID_8760_Energie_neutraal
 ---------------------------------------
 Structure from the checkpoint file:  "JID_8760.chk"
 Charge =  0 Multiplicity = 1

 SCF Done:  E(RB3LYP) =  -1506.23776622     A.U. after   16 cycles
 Normal termination of Gaussian 16 at Fri Dec 11 22:36:49 2020.

 ----------------------------------------------------------------------
 # B3LYP/6-311++G(d,p) empiricaldispersion=gd3bj scf=xqc pop=npa geom=c
 heck
 ----------------------------------------------------------------------

 -------------------------------------
 CID_110733653_JID_8760_Energie_kation
 -------------------------------------
 Structure from the checkpoint file:  "JID_8760.chk"
 Charge =  1 Multiplicity = 2

 SCF Done:  E(UB3LYP) =  -1505.93651127     A.U. after   33 cycles
 SCF Done:  E(UB3LYP) =  -1505.93651127     a.u. after    1 cycles
 Normal termination of Gaussian 16 at Fri Dec 11 22:53:43 2020.
 Gaussian 16:  ES64L-G16RevA.03 25-Dec-2016

 ----------------------------------------------------------------------
 # B3LYP/6-311++G(d,p) empiricaldispersion=gd3bj scf=xqc pop=npa geom=c
 heck
 ----------------------------------------------------------------------

 ------------------------------------
 CID_110733653_JID_8760_Energie_anion
 ------------------------------------
 Structure from the checkpoint file:  "JID_8760.chk"
 Charge = -1 Multiplicity = 2

                         Standard orientation:
 ---------------------------------------------------------------------
 Center     Atomic      Atomic             Coordinates (Angstroms)
 Number     Number       Type             X           Y           Z
 ---------------------------------------------------------------------
      1          6           0       -0.022000    1.209727    0.450084
      2          7           0        0.159475    0.143787   -0.545496
      3          6           0        1.417748    0.216286   -1.318777
      4          6           0        2.676745    0.211002   -0.494803
      5          6           0        3.272211   -0.849988    0.137625
      6          6           0        4.436312   -0.481749    0.876621
      7          6           0        4.715223    0.855638    0.801207
      8         16           0        3.550856    1.690196   -0.175797
      9         16           0       -0.306095   -1.404756   -0.035744
     10          8           0        0.529683   -2.387041   -0.742755
     11          8           0       -0.430134   -1.437936    1.426380
     12          6           0       -1.985199   -1.549771   -0.745055
     13          6           0       -2.893796   -0.435868   -0.319997
     14          6           0       -3.479625   -0.443746    0.951890
     15          6           0       -4.271469    0.625240    1.367677
     16          6           0       -4.486757    1.711104    0.516467
     17          6           0       -3.907186    1.723799   -0.753190
     18          6           0       -3.112407    0.656084   -1.167314
     19          1           0        0.061465    2.164984   -0.077120
     20          1           0        0.729469    1.168711    1.245446
     21          1           0       -1.016010    1.142644    0.888995
     22          1           0        1.426629   -0.626975   -2.009777
     23          1           0        1.352664    1.133602   -1.913719
     24          1           0        2.875250   -1.856383    0.074506
     25          1           0        5.042209   -1.185152    1.436995
     26          1           0        5.534529    1.397928    1.252922
     27          1           0       -1.834141   -1.581106   -1.826079
     28          1           0       -2.326725   -2.531757   -0.403477
     29          1           0       -3.291509   -1.278113    1.620454
     30          1           0       -4.718920    0.611428    2.357226
     31          1           0       -5.104821    2.543211    0.841250
     32          1           0       -4.071651    2.565550   -1.419730
     33          1           0       -2.646130    0.671162   -2.148380
 ---------------------------------------------------------------------

 SCF Done:  E(UB3LYP) =  -1506.22924484     A.U. after   33 cycles
 SCF Done:  E(UB3LYP) =  -1506.22924495     a.u. after    2 cycles

 The electronic state is 2-A.
 Alpha  occ. eigenvalues --  -88.95963 -88.77756 -19.02026 -19.01943 -14.24939
 Alpha  occ. eigenvalues --  -10.12299 -10.11369 -10.10239 -10.10033 -10.09964
 Alpha  occ. eigenvalues --  -10.08536 -10.08211 -10.07753 -10.07527 -10.07474
 Alpha  occ. eigenvalues --  -10.07325 -10.07313 -10.07231  -8.02218  -7.86390
 Alpha  occ. eigenvalues --   -5.98501  -5.98475  -5.98259  -5.82668  -5.82310
 Alpha  occ. eigenvalues --   -5.82010  -1.01936  -0.91128  -0.84210  -0.78302
 Alpha  occ. eigenvalues --   -0.76488  -0.70031  -0.66566  -0.64914  -0.63847
 Alpha  occ. eigenvalues --   -0.62993  -0.60586  -0.58188  -0.51120  -0.50581
 Alpha  occ. eigenvalues --   -0.48383  -0.46931  -0.44145  -0.43191  -0.41480
 Alpha  occ. eigenvalues --   -0.41393  -0.40393  -0.38130  -0.37399  -0.36178
 Alpha  occ. eigenvalues --   -0.35126  -0.33935  -0.33420  -0.32547  -0.32187
 Alpha  occ. eigenvalues --   -0.31478  -0.30867  -0.30147  -0.29611  -0.28131
 Alpha  occ. eigenvalues --   -0.27376  -0.27069  -0.25692  -0.25347  -0.24811
 Alpha  occ. eigenvalues --   -0.24673  -0.22509  -0.21504  -0.20977  -0.16723
 Alpha  occ. eigenvalues --   -0.16028  -0.15734  -0.15305  -0.14174   0.04279
 Alpha virt. eigenvalues --    0.05961   0.06701   0.06885   0.07097   0.07749
 Alpha virt. eigenvalues --    0.08244   0.08508   0.08811   0.09496   0.09652
 Alpha virt. eigenvalues --    0.10613   0.10744   0.11667   0.12135   0.12568

  Beta  occ. eigenvalues --  -88.95956 -88.77739 -19.02013 -19.01943 -14.24928
  Beta  occ. eigenvalues --  -10.12292 -10.11362 -10.10234 -10.09924 -10.09847
  Beta  occ. eigenvalues --  -10.08444 -10.08211 -10.07761 -10.07489 -10.07450
  Beta  occ. eigenvalues --  -10.07307 -10.07279 -10.07135  -8.02210  -7.86374
  Beta  occ. eigenvalues --   -5.98496  -5.98469  -5.98244  -5.82661  -5.82303
  Beta  occ. eigenvalues --   -5.81952  -1.01915  -0.91114  -0.84176  -0.78180
  Beta  occ. eigenvalues --   -0.76359  -0.69914  -0.66424  -0.64818  -0.63751
  Beta  occ. eigenvalues --   -0.62895  -0.60497  -0.58117  -0.51051  -0.50434
  Beta  occ. eigenvalues --   -0.48263  -0.46808  -0.44035  -0.43123  -0.41428
  Beta  occ. eigenvalues --   -0.41316  -0.40331  -0.38066  -0.37335  -0.36068
  Beta  occ. eigenvalues --   -0.35066  -0.33895  -0.33369  -0.32493  -0.32105
  Beta  occ. eigenvalues --   -0.31429  -0.30821  -0.30075  -0.29546  -0.27916
  Beta  occ. eigenvalues --   -0.27237  -0.26876  -0.25615  -0.25267  -0.24724
  Beta  occ. eigenvalues --   -0.24607  -0.22487  -0.21424  -0.20953  -0.16623
  Beta  occ. eigenvalues --   -0.15774  -0.15538  -0.14866  -0.13611
  Beta virt. eigenvalues --    0.06681   0.06843   0.07068   0.07446   0.07842
  Beta virt. eigenvalues --    0.08207   0.08346   0.08775   0.08932   0.09843
  Beta virt. eigenvalues --    0.10098   0.10716   0.10849   0.11667   0.12377

 Mulliken charges and spin densities:
               1          2
     1  C   -0.301863  -0.158717
     2  N    0.041095   0.081887
     3  C   -0.236627  -0.556521
     4  C    0.321787   0.212759
     5  C   -0.096265   0.132701
     6  C   -0.450487  -0.045719
     7  C   -0.204684   0.101831
     8  S   -0.051925  -0.039384
     9  S    0.180203  -0.221512
    10  O   -0.115012   0.010443
    11  O   -0.126120   0.007576
    12  C    1.370689  -2.491661
    13  C   -0.372547   1.323298
    14  C   -1.051080   0.891632
    15  C   -0.271178  -0.015653
    16  C    1.276942  -1.459729
    17  C    0.564945  -0.933950
    18  C   -0.721329   0.521783
    19  H    0.061471   0.087518
    20  H    0.204943  -0.022654
    21  H    0.219191  -0.042555
    22  H    0.195283   0.048382
    23  H   -0.254972   0.463213
    24  H    0.182243   0.024478
    25  H    0.121062   0.000385
    26  H    0.213848  -0.003536
    27  H   -0.042495   0.314184
    28  H    0.019283   0.227052
    29  H    0.093923   0.100396
    30  H   -0.167539   0.332152
    31  H   -0.224894   0.373017
    32  H   -0.748619   0.933034
    33  H   -0.629270   0.803869
 Sum of Mulliken charges =  -1.00000   1.00000

 Dipole moment (field-independent basis, Debye):
    X=              5.8565    Y=             -1.6318    Z=              3.0015  Tot=              6.7801
 Quadrupole moment (field-independent basis, Debye-Ang):
   XX=           -194.7802   YY=           -159.7821   ZZ=           -158.3198
   XY=             15.9429   XZ=             -2.9664   YZ=              6.6615

 Summary of Natural Population Analysis:

                                       Natural Population
                Natural  -----------------------------------------------
    Atom  No    Charge         Core      Valence    Rydberg      Total
 -----------------------------------------------------------------------
      C    1   -0.18230      0.99963     2.17367    0.00901     3.18230
      N    2   -0.37022      0.99975     2.85527    0.01520     3.87022
      C    3   -0.10533      0.99953     2.09059    0.01521     3.10533
      C    4   -0.09714      0.99949     2.08488    0.01276     3.09714
      C    5   -0.12420      0.99946     2.11526    0.00947     3.12420
      C    6   -0.12825      0.99954     2.11974    0.00897     3.12825
      C    7   -0.18179      0.99955     2.17237    0.00987     3.18179
      S    8    0.20209      4.99940     2.77620    0.02230     7.79791
      S    9    1.09931      4.99923     1.80327    0.09818     6.90069
      O   10   -0.46887      0.99991     3.46317    0.00579     4.46887
      O   11   -0.46241      0.99991     3.45727    0.00523     4.46241
      C   12   -0.28237      0.99954     2.26916    0.01368     3.28237
      C   13   -0.03385      0.99950     2.02246    0.01189     3.03385
      C   14   -0.08916      0.99951     2.08002    0.00963     3.08916
      C   15   -0.10689      0.99956     2.09701    0.01031     3.10689
      C   16   -0.08534      0.99956     2.07557    0.01021     3.08534
      C   17   -0.09853      0.99956     2.08822    0.01075     3.09853
      C   18   -0.08996      0.99951     2.07888    0.01157     3.08996
      H   19    0.09887      0.00000     0.40017    0.00096     0.40113
      H   20    0.09688      0.00000     0.40211    0.00102     0.40312
      H   21    0.11138      0.00000     0.38768    0.00094     0.38862
      H   22    0.12093      0.00000     0.37778    0.00130     0.37907
      H   23    0.10514      0.00000     0.39351    0.00135     0.39486
      H   24    0.11777      0.00000     0.38106    0.00117     0.38223
      H   25    0.10209      0.00000     0.39697    0.00093     0.39791
      H   26    0.10378      0.00000     0.39543    0.00079     0.39622
      H   27    0.11993      0.00000     0.37855    0.00152     0.38007
      H   28    0.11723      0.00000     0.38166    0.00111     0.38277
      H   29    0.10454      0.00000     0.39446    0.00100     0.39546
      H   30    0.09922      0.00000     0.39999    0.00079     0.40078
      H   31    0.09955      0.00000     0.39935    0.00111     0.40045
      H   32    0.10308      0.00000     0.39488    0.00204     0.39692
      H   33    0.10484      0.00000     0.39245    0.00271     0.39516
 =======================================================================
   * Total *   -0.00000     25.99213    47.69908    0.30879    74.00000

 Normal termination of Gaussian 16 at Fri Dec 11 23:26:03 2020.
