 Gaussian 16, Revision A.03,

 -----------------------------------------------------------
 # opt freq B3LYP/6-31G(d) empiricaldispersion=gd3bj scf=xqc
 -----------------------------------------------------------

 -----------------------------
 CID_4140400_JID_4799_neutraal
 -----------------------------
 Symbolic Z-matrix:
 Charge =  0 Multiplicity = 1

 SCF Done:  E(RB3LYP) =  -948.939115896     A.U. after   15 cycles
 SCF Done:  E(RB3LYP) =  -948.944708117     A.U. after   14 cycles
 SCF Done:  E(RB3LYP) =  -948.944778755     A.U. after   13 cycles
 SCF Done:  E(RB3LYP) =  -948.945136895     A.U. after   13 cycles
 SCF Done:  E(RB3LYP) =  -948.945276797     A.U. after   12 cycles
 SCF Done:  E(RB3LYP) =  -948.945283066     A.U. after   11 cycles
 SCF Done:  E(RB3LYP) =  -948.945290639     A.U. after   10 cycles
 SCF Done:  E(RB3LYP) =  -948.945291845     A.U. after   10 cycles
 SCF Done:  E(RB3LYP) =  -948.945293298     A.U. after    9 cycles
 SCF Done:  E(RB3LYP) =  -948.945293665     A.U. after    8 cycles
 SCF Done:  E(RB3LYP) =  -948.945293751     A.U. after    8 cycles
 Optimization completed.
    -- Stationary point found.
 Normal termination of Gaussian 16 at Thu Dec 10 10:40:47 2020.

 --------------------------------------------------------------------
 #N Geom=AllCheck Guess=TCheck SCRF=Check GenChk RB3LYP/6-31G(d) Freq
 --------------------------------------------------------------------

 Structure from the checkpoint file:  "JID_4799.chk"
 -----------------------------
 CID_4140400_JID_4799_neutraal
 -----------------------------
 Charge =  0 Multiplicity = 1

 SCF Done:  E(RB3LYP) =  -948.945293751     A.U. after    1 cycles

  Exact polarizability: 148.479  20.843 144.161  -3.969 -10.571 105.043
 Approx polarizability: 212.472  52.277 265.846 -12.192 -34.807 186.403

                      1                      2                      3
                      A                      A                      A
 Frequencies --     26.1308                43.3124                65.9116
 Red. masses --      4.8149                 5.1303                 5.1867
 Frc consts  --      0.0019                 0.0057                 0.0133
 IR Inten    --      0.0510                 0.0659                 1.3650

                      4                      5                      6
                      A                      A                      A
 Frequencies --     88.4271               167.7674               192.2544
 Red. masses --      7.5522                 6.0978                 5.9559
 Frc consts  --      0.0348                 0.1011                 0.1297
 IR Inten    --      0.7478                 0.1700                 0.0907

                      7                      8                      9
                      A                      A                      A
 Frequencies --    241.7419               275.5544               362.2530
 Red. masses --      6.4645                 5.5379                 2.4933
 Frc consts  --      0.2226                 0.2477                 0.1928
 IR Inten    --      1.5084                 0.3176                 0.6003

                     10                     11                     12
                      A                      A                      A
 Frequencies --    416.2596               448.0323               468.4043
 Red. masses --      2.9853                 6.4418                 4.2153
 Frc consts  --      0.3048                 0.7619                 0.5449
 IR Inten    --      0.1110                 0.7977                 0.7736

                     13                     14                     15
                      A                      A                      A
 Frequencies --    503.4506               599.5922               637.3627
 Red. masses --      4.2834                 5.3502                 5.8733
 Frc consts  --      0.6397                 1.1333                 1.4057
 IR Inten    --      4.0068                 7.1133                 1.3321

                     16                     17                     18
                      A                      A                      A
 Frequencies --    645.9774               674.7561               687.7188
 Red. masses --      4.2327                 3.5996                 5.2541
 Frc consts  --      1.0407                 0.9656                 1.4641
 IR Inten    --      9.2145                28.9580                14.4256

                     19                     20                     21
                      A                      A                      A
 Frequencies --    718.0114               763.1265               828.5660
 Red. masses --      1.8723                 1.8785                 4.0400
 Frc consts  --      0.5687                 0.6445                 1.6341
 IR Inten    --     39.0416                11.3855                 0.3530

                     22                     23                     24
                      A                      A                      A
 Frequencies --    849.2188               863.2717               892.3219
 Red. masses --      1.4509                 1.2476                 2.6644
 Frc consts  --      0.6165                 0.5478                 1.2499
 IR Inten    --     12.8904                 0.1714                42.5193

                     25                     26                     27
                      A                      A                      A
 Frequencies --    910.5649               925.2025               957.7611
 Red. masses --      1.3962                 1.4240                 6.4313
 Frc consts  --      0.6821                 0.7182                 3.4759
 IR Inten    --      3.6392                 7.1599                 9.9234

                     28                     29                     30
                      A                      A                      A
 Frequencies --    973.1246               985.9878              1002.0492
 Red. masses --      1.3499                 4.5881                 1.2850
 Frc consts  --      0.7532                 2.6280                 0.7602
 IR Inten    --      0.0128                75.4259                 1.9923

                     31                     32                     33
                      A                      A                      A
 Frequencies --   1021.7628              1054.8429              1062.1412
 Red. masses --      6.1251                 2.8853                 2.2686
 Frc consts  --      3.7676                 1.8915                 1.5079
 IR Inten    --      2.6853                 1.6068                 2.6965

                     34                     35                     36
                      A                      A                      A
 Frequencies --   1115.7278              1154.6981              1171.0019
 Red. masses --      1.6167                 2.5357                 3.4308
 Frc consts  --      1.1858                 1.9920                 2.7718
 IR Inten    --      2.5873                30.4212                25.3217

                     37                     38                     39
                      A                      A                      A
 Frequencies --   1196.0863              1211.6542              1219.0615
 Red. masses --      1.1013                 1.7833                 1.1642
 Frc consts  --      0.9283                 1.5425                 1.0193
 IR Inten    --      0.1011                44.8375                 0.5555

                     40                     41                     42
                      A                      A                      A
 Frequencies --   1225.3213              1276.1654              1286.0617
 Red. masses --      2.0104                 2.7411                 2.1582
 Frc consts  --      1.7784                 2.6302                 2.1031
 IR Inten    --     51.8607                25.3401                42.4362

                     43                     44                     45
                      A                      A                      A
 Frequencies --   1318.0582              1341.6832              1366.0717
 Red. masses --      2.0969                 1.9678                 3.9984
 Frc consts  --      2.1463                 2.0870                 4.3962
 IR Inten    --     87.6844                35.0219                 0.5595

                     46                     47                     48
                      A                      A                      A
 Frequencies --   1376.9594              1417.7766              1458.7813
 Red. masses --      1.3176                 3.6147                 7.0393
 Frc consts  --      1.4719                 4.2809                 8.8260
 IR Inten    --      4.3818               293.1663                 6.3439

                     49                     50                     51
                      A                      A                      A
 Frequencies --   1502.1222              1509.5771              1548.0978
 Red. masses --      1.7855                 1.2463                 2.1649
 Frc consts  --      2.3737                 1.6734                 3.0569
 IR Inten    --      2.0162                17.2545                13.6847

                     52                     53                     54
                      A                      A                      A
 Frequencies --   1586.3195              1647.3699              1666.1382
 Red. masses --      5.0373                 5.5466                 5.4956
 Frc consts  --      7.4685                 8.8687                 8.9886
 IR Inten    --     58.7477                 0.8799                 5.8063

                     55                     56                     57
                      A                      A                      A
 Frequencies --   3055.0133              3126.4682              3173.0376
 Red. masses --      1.0676                 1.0954                 1.0882
 Frc consts  --      5.8708                 6.3084                 6.4549
 IR Inten    --     11.8231                 1.5532                 9.7214

                     58                     59                     60
                      A                      A                      A
 Frequencies --   3189.9732              3198.4492              3206.6646
 Red. masses --      1.0862                 1.0900                 1.0938
 Frc consts  --      6.5121                 6.5698                 6.6268
 IR Inten    --      0.0962                 9.0124                21.9922

                     61                     62                     63
                      A                      A                      A
 Frequencies --   3216.1215              3284.2228              3312.4300
 Red. masses --      1.0980                 1.0974                 1.0987
 Frc consts  --      6.6914                 6.9738                 7.1024
 IR Inten    --     17.9209                 3.3173                 2.3332

 - Thermochemistry -
 -------------------
 Temperature   298.150 Kelvin.  Pressure   1.00000 Atm.
 Atom     1 has atomic number  6 and mass  12.00000

 Molecular mass:   203.05172 amu.
 Principal axes and moments of inertia in atomic units:
                           1         2         3
     Eigenvalues --  1874.989554008.171785010.51246
           X            1.00000  -0.00166   0.00139
           Y            0.00166   1.00000  -0.00241
           Z           -0.00138   0.00242   1.00000
 This molecule is an asymmetric top.
 Rotational symmetry number  1.
 Warning -- assumption of classical behavior for rotation
           may cause significant error
 Rotational temperatures (Kelvin)      0.04619     0.02161     0.01729
 Rotational constants (GHZ):           0.96253     0.45027     0.36019
 Zero-point vibrational energy     464808.9 (Joules/Mol)
                                  111.09199 (Kcal/Mol)
 Warning -- explicit consideration of  14 degrees of freedom as
           vibrations may cause significant error
 Vibrational temperatures:     37.60    62.32    94.83   127.23   241.38
          (Kelvin)            276.61   347.81   396.46   521.20   598.90
                              644.62   673.93   724.35   862.68   917.02
                              929.42   970.82   989.47  1033.06  1097.97
                             1192.12  1221.84  1242.06  1283.85  1310.10
                             1331.16  1378.00  1400.11  1418.62  1441.73
                             1470.09  1517.68  1528.18  1605.28  1661.35
                             1684.81  1720.90  1743.30  1753.96  1762.96
                             1836.12  1850.36  1896.39  1930.38  1965.47
                             1981.14  2039.86  2098.86  2161.22  2171.94
                             2227.37  2282.36  2370.20  2397.20  4395.48
                             4498.29  4565.29  4589.66  4601.85  4613.68
                             4627.28  4725.26  4765.85

 Zero-point correction=                           0.177036 (Hartree/Particle)
 Thermal correction to Energy=                    0.188378
 Thermal correction to Enthalpy=                  0.189322
 Thermal correction to Gibbs Free Energy=         0.137184
 Sum of electronic and zero-point Energies=           -948.768257
 Sum of electronic and thermal Energies=              -948.756916
 Sum of electronic and thermal Enthalpies=            -948.755972
 Sum of electronic and thermal Free Energies=         -948.808110

                     E (Thermal)             CV                S
                      KCal/Mol        Cal/Mol-Kelvin    Cal/Mol-Kelvin
 Total                  118.209             42.808            109.733
 Electronic               0.000              0.000              0.000
 Translational            0.889              2.981             41.829
 Rotational               0.889              2.981             31.999
 Vibrational            116.431             36.847             35.905
 Vibration     1          0.593              1.985              6.103
 Vibration     2          0.595              1.980              5.102
 Vibration     3          0.597              1.971              4.272
 Vibration     4          0.601              1.957              3.695
 Vibration     5          0.624              1.882              2.460
 Vibration     6          0.634              1.851              2.206
 Vibration     7          0.658              1.776              1.790
 Vibration     8          0.677              1.719              1.561
 Vibration     9          0.736              1.550              1.112
 Vibration    10          0.779              1.435              0.905
 Vibration    11          0.807              1.365              0.802
 Vibration    12          0.826              1.320              0.742
 Vibration    13          0.859              1.242              0.650
 Vibration    14          0.958              1.033              0.450

                           ! Non-Optimized Parameters !
 Normal termination of Gaussian 16 at Thu Dec 10 10:46:52 2020.

 ----------------------------------------------------------------------
 # B3LYP/6-311++G(d,p) empiricaldispersion=gd3bj scf=xqc pop=npa geom=c
 heck
 ----------------------------------------------------------------------

 -------------------------------------
 CID_4140400_JID_4799_Energie_neutraal
 -------------------------------------
 Structure from the checkpoint file:  "JID_4799.chk"
 Charge =  0 Multiplicity = 1

 SCF Done:  E(RB3LYP) =  -949.112625473     A.U. after   15 cycles
 Normal termination of Gaussian 16 at Thu Dec 10 10:49:06 2020.

 ----------------------------------------------------------------------
 # B3LYP/6-311++G(d,p) empiricaldispersion=gd3bj scf=xqc pop=npa geom=c
 heck
 ----------------------------------------------------------------------

 -----------------------------------
 CID_4140400_JID_4799_Energie_kation
 -----------------------------------
 Structure from the checkpoint file:  "JID_4799.chk"
 Charge =  1 Multiplicity = 2

 SCF Done:  E(UB3LYP) =  -948.801421800     A.U. after   31 cycles
 Normal termination of Gaussian 16 at Thu Dec 10 10:54:56 2020.
 Gaussian 16:  ES64L-G16RevA.03 25-Dec-2016

 ----------------------------------------------------------------------
 # B3LYP/6-311++G(d,p) empiricaldispersion=gd3bj scf=xqc pop=npa geom=c
 heck
 ----------------------------------------------------------------------

 ----------------------------------
 CID_4140400_JID_4799_Energie_anion
 ----------------------------------
 Structure from the checkpoint file:  "JID_4799.chk"
 Charge = -1 Multiplicity = 2

                         Standard orientation:
 ---------------------------------------------------------------------
 Center     Atomic      Atomic             Coordinates (Angstroms)
 Number     Number       Type             X           Y           Z
 ---------------------------------------------------------------------
      1          6           0       -3.672595   -0.483729   -0.796779
      2          6           0       -2.777112    0.358491   -1.458342
      3          6           0       -1.635230    0.822263   -0.806907
      4          6           0       -1.373442    0.446015    0.515167
      5          6           0       -2.275623   -0.396881    1.172828
      6          6           0       -3.420555   -0.858878    0.522569
      7          6           0       -0.140525    0.961777    1.244137
      8          6           0        1.123671    0.938259    0.406006
      9         16           0        1.860481    2.294353   -0.130900
     10          7           0        1.600732   -0.346998    0.116563
     11          6           0        1.052532   -1.571858    0.447344
     12          7           0        1.800035   -2.544954   -0.003669
     13          6           0        2.830844   -1.871421   -0.626249
     14          7           0        2.760847   -0.561619   -0.587278
     15          1           0       -4.560014   -0.846046   -1.307285
     16          1           0       -2.966503    0.655163   -2.485905
     17          1           0       -0.942021    1.477196   -1.326817
     18          1           0       -2.083364   -0.690349    2.202664
     19          1           0       -4.111111   -1.513273    1.046693
     20          1           0       -0.290809    1.999855    1.549150
     21          1           0        0.016255    0.377032    2.159481
     22          1           0        0.118191   -1.677231    0.975065
     23          1           0        3.648602   -2.381218   -1.116610
 ---------------------------------------------------------------------

 SCF Done:  E(UB3LYP) =  -949.156416518     A.U. after   23 cycles

 The electronic state is 2-A.
 Alpha  occ. eigenvalues --  -88.63231 -14.26000 -14.18901 -14.16565 -10.08816
 Alpha  occ. eigenvalues --  -10.08164 -10.07968 -10.07963 -10.07825 -10.07655
 Alpha  occ. eigenvalues --  -10.07466 -10.07141 -10.06801 -10.05725  -7.72044
 Alpha  occ. eigenvalues --   -5.68338  -5.68144  -5.67535  -0.93195  -0.77068
 Alpha  occ. eigenvalues --   -0.75939  -0.71282  -0.66867  -0.64971  -0.61845
 Alpha  occ. eigenvalues --   -0.56452  -0.50936  -0.50110  -0.48975  -0.47406
 Alpha  occ. eigenvalues --   -0.43003  -0.41816  -0.37224  -0.36089  -0.34895
 Alpha  occ. eigenvalues --   -0.33289  -0.32574  -0.31183  -0.30764  -0.29332
 Alpha  occ. eigenvalues --   -0.27708  -0.25595  -0.24978  -0.24730  -0.21723
 Alpha  occ. eigenvalues --   -0.19372  -0.18217  -0.15912  -0.15148  -0.14574
 Alpha  occ. eigenvalues --   -0.13950  -0.10846  -0.05316   0.01835
 Alpha virt. eigenvalues --    0.06922   0.08103   0.08302   0.08529   0.09589
 Alpha virt. eigenvalues --    0.10616   0.11124   0.11856   0.12778   0.13528
 Alpha virt. eigenvalues --    0.14456   0.15048   0.15403   0.15528   0.16214

  Beta  occ. eigenvalues --  -88.63082 -14.26161 -14.18755 -14.16530 -10.08544
  Beta  occ. eigenvalues --  -10.08161 -10.07966 -10.07913 -10.07815 -10.07576
  Beta  occ. eigenvalues --  -10.07454 -10.06809 -10.06393 -10.05775  -7.71910
  Beta  occ. eigenvalues --   -5.68280  -5.67654  -5.67452  -0.93051  -0.76761
  Beta  occ. eigenvalues --   -0.75874  -0.70831  -0.66781  -0.64950  -0.61281
  Beta  occ. eigenvalues --   -0.56153  -0.50902  -0.49622  -0.48828  -0.47210
  Beta  occ. eigenvalues --   -0.42681  -0.41751  -0.36931  -0.35982  -0.34700
  Beta  occ. eigenvalues --   -0.32769  -0.32491  -0.31014  -0.30632  -0.28945
  Beta  occ. eigenvalues --   -0.27614  -0.25479  -0.24766  -0.24626  -0.21105
  Beta  occ. eigenvalues --   -0.18143  -0.17882  -0.15867  -0.14897  -0.14408
  Beta  occ. eigenvalues --   -0.12985  -0.08724  -0.04976
  Beta virt. eigenvalues --    0.06874   0.07909   0.08318   0.08388   0.09186
  Beta virt. eigenvalues --    0.09637   0.10598   0.11215   0.11857   0.12756
  Beta virt. eigenvalues --    0.13564   0.14495   0.15144   0.15459   0.16232

 Mulliken charges and spin densities:
               1          2
     1  C   -0.392642  -0.005931
     2  C   -0.297289  -0.017570
     3  C   -0.268423   0.021540
     4  C    1.011374   0.140226
     5  C   -0.227961  -0.067543
     6  C   -0.241539  -0.009157
     7  C   -1.039594  -0.183675
     8  C    0.171760   0.412612
     9  S   -0.752218   0.366818
    10  N    0.174383  -0.067067
    11  C   -0.203921   0.190309
    12  N   -0.175636   0.017325
    13  C   -0.094523   0.055818
    14  N    0.072860   0.058932
    15  H    0.114410   0.001602
    16  H    0.164827  -0.000865
    17  H    0.136707   0.013309
    18  H    0.128083   0.018881
    19  H    0.147480   0.001505
    20  H    0.155028   0.012539
    21  H    0.116097   0.057704
    22  H    0.178819  -0.012454
    23  H    0.121915  -0.004855
 Sum of Mulliken charges =  -1.00000   1.00000

 Dipole moment (field-independent basis, Debye):
    X=             -7.8191    Y=             -2.5176    Z=              0.9971  Tot=              8.2748
 Quadrupole moment (field-independent basis, Debye-Ang):
   XX=           -120.4180   YY=           -124.5519   ZZ=            -93.8755
   XY=             -4.7559   XZ=              2.1180   YZ=             -0.3276

 Summary of Natural Population Analysis:

                                       Natural Population
                Natural  -----------------------------------------------
    Atom  No    Charge         Core      Valence    Rydberg      Total
 -----------------------------------------------------------------------
      C    1   -0.11455      0.99957     2.10578    0.00920     3.11455
      C    2   -0.09782      0.99957     2.08931    0.00893     3.09782
      C    3   -0.09924      0.99951     2.09163    0.00810     3.09924
      C    4    0.00320      0.99950     1.98691    0.01039     2.99680
      C    5   -0.10724      0.99951     2.09953    0.00820     3.10724
      C    6   -0.10311      0.99957     2.09440    0.00914     3.10311
      C    7   -0.23563      0.99956     2.22471    0.01136     3.23563
      C    8    0.15311      0.99964     1.82936    0.01789     2.84689
      S    9    0.00439      4.99945     2.98091    0.01525     7.99561
      N   10   -0.15887      0.99960     2.64190    0.01738     3.65887
      C   11    0.15772      0.99965     1.82698    0.01564     2.84228
      N   12   -0.27271      0.99972     2.76162    0.01137     3.77271
      C   13    0.09400      0.99972     1.88653    0.01976     2.90600
      N   14   -0.12213      0.99972     2.61210    0.01031     3.62213
      H   15    0.09493      0.00000     0.40410    0.00098     0.40507
      H   16    0.09657      0.00000     0.40250    0.00093     0.40343
      H   17    0.11509      0.00000     0.38354    0.00138     0.38491
      H   18    0.09760      0.00000     0.40101    0.00139     0.40240
      H   19    0.09523      0.00000     0.40380    0.00097     0.40477
      H   20    0.12078      0.00000     0.37809    0.00113     0.37922
      H   21    0.10297      0.00000     0.39493    0.00210     0.39703
      H   22    0.09325      0.00000     0.40542    0.00132     0.40675
      H   23    0.08247      0.00000     0.41658    0.00095     0.41753
 =======================================================================
   * Total *   -0.00000     17.99431    34.82164    0.18405    53.00000

 Normal termination of Gaussian 16 at Thu Dec 10 11:00:51 2020.
