 Gaussian 16, Revision A.03,

 -----------------------------------------------------------
 # opt freq B3LYP/6-31G(d) empiricaldispersion=gd3bj scf=xqc
 -----------------------------------------------------------

 ----------------------------
 CID_162518_JID_4656_neutraal
 ----------------------------
 Symbolic Z-matrix:
 Charge =  0 Multiplicity = 1

 SCF Done:  E(RB3LYP) =  -609.981794715     A.U. after   16 cycles
 SCF Done:  E(RB3LYP) =  -609.988602168     A.U. after   13 cycles
 SCF Done:  E(RB3LYP) =  -609.989805928     A.U. after   13 cycles
 SCF Done:  E(RB3LYP) =  -609.990336377     A.U. after   13 cycles
 SCF Done:  E(RB3LYP) =  -609.990409575     A.U. after   13 cycles
 SCF Done:  E(RB3LYP) =  -609.990760058     A.U. after   11 cycles
 SCF Done:  E(RB3LYP) =  -609.990840134     A.U. after   12 cycles
 SCF Done:  E(RB3LYP) =  -609.990846667     A.U. after   11 cycles
 SCF Done:  E(RB3LYP) =  -609.990851796     A.U. after    9 cycles
 SCF Done:  E(RB3LYP) =  -609.990855064     A.U. after    9 cycles
 SCF Done:  E(RB3LYP) =  -609.990857989     A.U. after    9 cycles
 SCF Done:  E(RB3LYP) =  -609.990859041     A.U. after    9 cycles
 SCF Done:  E(RB3LYP) =  -609.990859992     A.U. after    8 cycles
 Optimization completed.
    -- Stationary point found.
 Normal termination of Gaussian 16 at Thu Dec 10 10:16:56 2020.

 --------------------------------------------------------------------
 #N Geom=AllCheck Guess=TCheck SCRF=Check GenChk RB3LYP/6-31G(d) Freq
 --------------------------------------------------------------------

 Structure from the checkpoint file:  "JID_4656.chk"
 ----------------------------
 CID_162518_JID_4656_neutraal
 ----------------------------
 Charge =  0 Multiplicity = 1

 SCF Done:  E(RB3LYP) =  -609.990859992     A.U. after    2 cycles

  Exact polarizability: 175.883   8.704 153.888  -8.000   0.161  58.768
 Approx polarizability: 280.608  10.153 275.377 -23.497   0.625  90.684

                      1                      2                      3
                      A                      A                      A
 Frequencies --     30.5259                57.1770                92.5977
 Red. masses --      3.7632                 6.5676                 4.8573
 Frc consts  --      0.0021                 0.0127                 0.0245
 IR Inten    --      1.1943                 2.4816                 3.0236

                      4                      5                      6
                      A                      A                      A
 Frequencies --    144.6825               169.2447               187.5337
 Red. masses --      1.0862                 3.7334                 3.7702
 Frc consts  --      0.0134                 0.0630                 0.0781
 IR Inten    --      0.0872                 0.6919                 2.4088

                      7                      8                      9
                      A                      A                      A
 Frequencies --    271.9189               295.2629               376.8513
 Red. masses --      4.9956                 4.6955                 6.5538
 Frc consts  --      0.2176                 0.2412                 0.5484
 IR Inten    --      0.9499                 6.3222                 4.5520

                     10                     11                     12
                      A                      A                      A
 Frequencies --    424.1112               456.4050               482.2900
 Red. masses --      4.1309                 4.1206                 3.3258
 Frc consts  --      0.4378                 0.5057                 0.4558
 IR Inten    --      5.8914                 3.9158                 0.9167

                     13                     14                     15
                      A                      A                      A
 Frequencies --    502.1885               523.9907               546.5728
 Red. masses --      2.8112                 1.7737                 6.3892
 Frc consts  --      0.4177                 0.2869                 1.1246
 IR Inten    --     17.5194                20.8046                 6.5441

                     16                     17                     18
                      A                      A                      A
 Frequencies --    555.1152               579.4394               635.6062
 Red. masses --      5.0759                 3.6238                 2.2949
 Frc consts  --      0.9216                 0.7169                 0.5463
 IR Inten    --      5.4850                 4.1644                45.2114

                     19                     20                     21
                      A                      A                      A
 Frequencies --    641.4502               679.3838               764.6788
 Red. masses --      3.7109                 4.6030                 1.4491
 Frc consts  --      0.8996                 1.2518                 0.4992
 IR Inten    --     18.9294                11.7863                 2.6493

                     22                     23                     24
                      A                      A                      A
 Frequencies --    777.5851               821.1800               824.3489
 Red. masses --      4.9434                 3.7964                 1.4368
 Frc consts  --      1.7610                 1.5084                 0.5753
 IR Inten    --      1.7175                 6.2609                59.1820

                     25                     26                     27
                      A                      A                      A
 Frequencies --    839.8028               851.1664               924.1941
 Red. masses --      4.8932                 3.5347                 1.5318
 Frc consts  --      2.0333                 1.5088                 0.7708
 IR Inten    --      2.7911                 3.0760                 1.9117

                     28                     29                     30
                      A                      A                      A
 Frequencies --    929.3051               972.0753               989.5767
 Red. masses --      3.4255                 1.3944                 1.2933
 Frc consts  --      1.7430                 0.7763                 0.7462
 IR Inten    --      5.1417                 0.0949                 0.5693

                     31                     32                     33
                      A                      A                      A
 Frequencies --    997.4568              1036.2480              1054.0225
 Red. masses --      1.3247                 1.7853                 2.7362
 Frc consts  --      0.7765                 1.1295                 1.7910
 IR Inten    --      1.1337                14.8404                 8.8689

                     34                     35                     36
                      A                      A                      A
 Frequencies --   1067.8977              1084.1920              1110.4311
 Red. masses --      1.7129                 2.2247                 1.9652
 Frc consts  --      1.1509                 1.5407                 1.4277
 IR Inten    --      8.2400                13.1978                12.2758

                     37                     38                     39
                      A                      A                      A
 Frequencies --   1178.3351              1195.0576              1250.5212
 Red. masses --      1.2197                 1.3730                 2.5241
 Frc consts  --      0.9978                 1.1553                 2.3257
 IR Inten    --      2.3301                 0.7879                 1.9068

                     40                     41                     42
                      A                      A                      A
 Frequencies --   1278.2760              1297.9337              1344.4812
 Red. masses --      1.8569                 2.1628                 2.7049
 Frc consts  --      1.7877                 2.1467                 2.8808
 IR Inten    --      3.7519                 9.3011               338.2449

                     43                     44                     45
                      A                      A                      A
 Frequencies --   1374.3036              1399.9891              1424.6951
 Red. masses --      3.0028                 5.0726                 2.0043
 Frc consts  --      3.3415                 5.8577                 2.3969
 IR Inten    --     13.3158                 5.2599                 6.9207

                     46                     47                     48
                      A                      A                      A
 Frequencies --   1427.4910              1456.7169              1485.1729
 Red. masses --      1.3871                 2.1216                 2.0364
 Frc consts  --      1.6653                 2.6526                 2.6465
 IR Inten    --     82.3805                 8.0918                72.9062

                     49                     50                     51
                      A                      A                      A
 Frequencies --   1500.5471              1514.6011              1523.8665
 Red. masses --      1.0578                 1.1174                 2.5714
 Frc consts  --      1.4033                 1.5102                 3.5181
 IR Inten    --      7.5320                 8.7699                43.1737

                     52                     53                     54
                      A                      A                      A
 Frequencies --   1557.2930              1626.3650              1656.8589
 Red. masses --      3.7741                 6.9738                 5.5218
 Frc consts  --      5.3927                10.8681                 8.9310
 IR Inten    --      7.7634                42.2208                31.7055

                     55                     56                     57
                      A                      A                      A
 Frequencies --   1672.9091              1798.2685              3071.6605
 Red. masses --      6.2982                 8.2427                 1.0391
 Frc consts  --     10.3852                15.7047                 5.7763
 IR Inten    --     21.3230               447.1205                 2.4599

                     58                     59                     60
                      A                      A                      A
 Frequencies --   3139.4549              3166.4878              3175.5217
 Red. masses --      1.0968                 1.0895                 1.1044
 Frc consts  --      6.3691                 6.4363                 6.5615
 IR Inten    --      7.1267                32.3313                10.9396

                     61                     62                     63
                      A                      A                      A
 Frequencies --   3199.5545              3203.7538              3219.7849
 Red. masses --      1.0877                 1.0879                 1.0938
 Frc consts  --      6.5604                 6.5788                 6.6810
 IR Inten    --      8.6004                 6.2522                17.5126

                     64                     65                     66
                      A                      A                      A
 Frequencies --   3220.2664              3228.4396              3575.5504
 Red. masses --      1.0944                 1.0956                 1.0751
 Frc consts  --      6.6869                 6.7279                 8.0978
 IR Inten    --      9.1534                 8.3211                20.6150

 - Thermochemistry -
 -------------------
 Temperature   298.150 Kelvin.  Pressure   1.00000 Atm.
 Atom     1 has atomic number  6 and mass  12.00000

 Molecular mass:   186.07931 amu.
 Principal axes and moments of inertia in atomic units:
                           1         2         3
     Eigenvalues --  1411.883163636.209044766.87768
           X            0.99970   0.02301   0.00867
           Y           -0.02304   0.99973   0.00431
           Z           -0.00857  -0.00451   0.99995
 This molecule is an asymmetric top.
 Rotational symmetry number  1.
 Warning -- assumption of classical behavior for rotation
           may cause significant error
 Rotational temperatures (Kelvin)      0.06135     0.02382     0.01817
 Rotational constants (GHZ):           1.27825     0.49632     0.37860
 Zero-point vibrational energy     501598.2 (Joules/Mol)
                                  119.88484 (Kcal/Mol)
 Warning -- explicit consideration of  17 degrees of freedom as
           vibrations may cause significant error
 Vibrational temperatures:     43.92    82.26   133.23   208.17   243.51
          (Kelvin)            269.82   391.23   424.82   542.20   610.20
                              656.66   693.91   722.54   753.91   786.40
                              798.69   833.68   914.50   922.90   977.48
                             1100.20  1118.77  1181.49  1186.05  1208.29
                             1224.64  1329.71  1337.06  1398.60  1423.78
                             1435.12  1490.93  1516.50  1536.47  1559.91
                             1597.66  1695.36  1719.42  1799.22  1839.15
                             1867.44  1934.41  1977.32  2014.27  2049.82
                             2053.84  2095.89  2136.83  2158.95  2179.17
                             2192.50  2240.60  2339.98  2383.85  2406.94
                             2587.31  4419.43  4516.98  4555.87  4568.87
                             4603.45  4609.49  4632.55  4633.25  4645.00
                             5144.42

 Zero-point correction=                           0.191049 (Hartree/Particle)
 Thermal correction to Energy=                    0.202503
 Thermal correction to Enthalpy=                  0.203447
 Thermal correction to Gibbs Free Energy=         0.152441
 Sum of electronic and zero-point Energies=           -609.799811
 Sum of electronic and thermal Energies=              -609.788357
 Sum of electronic and thermal Enthalpies=            -609.787413
 Sum of electronic and thermal Free Energies=         -609.838419

                     E (Thermal)             CV                S
                      KCal/Mol        Cal/Mol-Kelvin    Cal/Mol-Kelvin
 Total                  127.073             44.544            107.352
 Electronic               0.000              0.000              0.000
 Translational            0.889              2.981             41.569
 Rotational               0.889              2.981             31.571
 Vibrational            125.295             38.582             34.213
 Vibration     1          0.594              1.984              5.795
 Vibration     2          0.596              1.975              4.552
 Vibration     3          0.602              1.954              3.604
 Vibration     4          0.616              1.908              2.741
 Vibration     5          0.625              1.880              2.444
 Vibration     6          0.632              1.857              2.252
 Vibration     7          0.675              1.725              1.584
 Vibration     8          0.689              1.683              1.444
 Vibration     9          0.747              1.519              1.052
 Vibration    10          0.786              1.418              0.878
 Vibration    11          0.815              1.347              0.777
 Vibration    12          0.839              1.289              0.704
 Vibration    13          0.858              1.245              0.653
 Vibration    14          0.879              1.197              0.601
 Vibration    15          0.902              1.147              0.551
 Vibration    16          0.911              1.129              0.534
 Vibration    17          0.936              1.076              0.486

                           ! Non-Optimized Parameters !
 Normal termination of Gaussian 16 at Thu Dec 10 10:23:17 2020.

 ----------------------------------------------------------------------
 # B3LYP/6-311++G(d,p) empiricaldispersion=gd3bj scf=xqc pop=npa geom=c
 heck
 ----------------------------------------------------------------------

 ------------------------------------
 CID_162518_JID_4656_Energie_neutraal
 ------------------------------------
 Structure from the checkpoint file:  "JID_4656.chk"
 Charge =  0 Multiplicity = 1

 SCF Done:  E(RB3LYP) =  -610.155279245     A.U. after   16 cycles
 Normal termination of Gaussian 16 at Thu Dec 10 10:26:06 2020.

 ----------------------------------------------------------------------
 # B3LYP/6-311++G(d,p) empiricaldispersion=gd3bj scf=xqc pop=npa geom=c
 heck
 ----------------------------------------------------------------------

 ----------------------------------
 CID_162518_JID_4656_Energie_kation
 ----------------------------------
 Structure from the checkpoint file:  "JID_4656.chk"
 Charge =  1 Multiplicity = 2

 SCF Done:  E(UB3LYP) =  -609.851398359     A.U. after   24 cycles
 Normal termination of Gaussian 16 at Thu Dec 10 10:32:17 2020.
 Gaussian 16:  ES64L-G16RevA.03 25-Dec-2016

 ----------------------------------------------------------------------
 # B3LYP/6-311++G(d,p) empiricaldispersion=gd3bj scf=xqc pop=npa geom=c
 heck
 ----------------------------------------------------------------------

 ---------------------------------
 CID_162518_JID_4656_Energie_anion
 ---------------------------------
 Structure from the checkpoint file:  "JID_4656.chk"
 Charge = -1 Multiplicity = 2

                         Standard orientation:
 ---------------------------------------------------------------------
 Center     Atomic      Atomic             Coordinates (Angstroms)
 Number     Number       Type             X           Y           Z
 ---------------------------------------------------------------------
      1          6           0        3.120339    0.410177    1.181097
      2          6           0        2.898716   -0.549086    0.027184
      3          8           0        3.751142   -1.343162   -0.339701
      4          7           0        1.668918   -0.515976   -0.607686
      5          6           0        0.560979    0.335142   -0.382709
      6          6           0        0.695580    1.708990   -0.404538
      7          6           0       -0.420095    2.548915   -0.185856
      8          6           0       -1.673180    2.017453    0.009831
      9          6           0       -1.855909    0.610683    0.021326
     10          6           0       -0.723859   -0.248326   -0.154276
     11          6           0       -0.945456   -1.645264   -0.075513
     12          6           0       -2.221613   -2.113281    0.129570
     13          6           0       -3.277558   -1.178647    0.261144
     14          7           0       -3.117175    0.128175    0.219237
     15          1           0        3.872832   -0.032728    1.835525
     16          1           0        2.205780    0.619486    1.741105
     17          1           0        3.514179    1.362965    0.810440
     18          1           0        1.579004   -1.237382   -1.314276
     19          1           0        1.667067    2.143542   -0.613331
     20          1           0       -0.279392    3.625535   -0.201051
     21          1           0       -2.548476    2.640567    0.157532
     22          1           0       -0.108100   -2.330871   -0.158283
     23          1           0       -2.426702   -3.176808    0.199477
     24          1           0       -4.295197   -1.534942    0.416046
 ---------------------------------------------------------------------

 SCF Done:  E(UB3LYP) =  -610.175816666     A.U. after   24 cycles

 The electronic state is 2-A.
 Alpha  occ. eigenvalues --  -18.97151 -14.21736 -14.13912 -10.15793 -10.06550
 Alpha  occ. eigenvalues --  -10.06196 -10.05919 -10.04870 -10.04149 -10.03108
 Alpha  occ. eigenvalues --  -10.03059 -10.02474 -10.02172 -10.01395  -0.92460
 Alpha  occ. eigenvalues --   -0.80768  -0.78665  -0.69515  -0.65508  -0.63055
 Alpha  occ. eigenvalues --   -0.60423  -0.59280  -0.50277  -0.48875  -0.47978
 Alpha  occ. eigenvalues --   -0.44389  -0.40098  -0.38005  -0.36491  -0.35727
 Alpha  occ. eigenvalues --   -0.33988  -0.33588  -0.30821  -0.29701  -0.29076
 Alpha  occ. eigenvalues --   -0.28766  -0.26982  -0.26656  -0.25942  -0.25119
 Alpha  occ. eigenvalues --   -0.22559  -0.21020  -0.20526  -0.17116  -0.14669
 Alpha  occ. eigenvalues --   -0.14469  -0.11256  -0.10642  -0.08867   0.03836
 Alpha virt. eigenvalues --    0.08379   0.09407   0.09856   0.10792   0.11099
 Alpha virt. eigenvalues --    0.11860   0.12040   0.12316   0.13301   0.13525
 Alpha virt. eigenvalues --    0.14104   0.14539   0.14962   0.15873   0.17044

  Beta  occ. eigenvalues --  -18.97101 -14.21773 -14.13485 -10.15747 -10.06553
  Beta  occ. eigenvalues --  -10.05991 -10.05893 -10.04779 -10.04235 -10.03045
  Beta  occ. eigenvalues --  -10.02994 -10.02394 -10.01814 -10.01127  -0.92369
  Beta  occ. eigenvalues --   -0.80592  -0.78133  -0.69168  -0.64961  -0.62987
  Beta  occ. eigenvalues --   -0.60159  -0.58823  -0.49728  -0.48638  -0.47738
  Beta  occ. eigenvalues --   -0.44153  -0.39848  -0.37741  -0.36330  -0.35579
  Beta  occ. eigenvalues --   -0.33811  -0.33477  -0.30709  -0.29608  -0.29008
  Beta  occ. eigenvalues --   -0.28598  -0.26785  -0.26117  -0.25430  -0.24918
  Beta  occ. eigenvalues --   -0.22385  -0.20651  -0.19458  -0.16087  -0.14608
  Beta  occ. eigenvalues --   -0.13450  -0.10445  -0.10174  -0.07206
  Beta virt. eigenvalues --    0.08325   0.09176   0.09499   0.09804   0.10792
  Beta virt. eigenvalues --    0.11229   0.11909   0.12153   0.12791   0.13298
  Beta virt. eigenvalues --    0.13651   0.14225   0.14520   0.15583   0.16368

 Mulliken charges and spin densities:
               1          2
     1  C   -0.462070  -0.000267
     2  C    0.104778   0.004855
     3  O   -0.373196   0.018098
     4  N   -0.133361  -0.014540
     5  C   -0.285212   0.121711
     6  C   -0.346024   0.108446
     7  C   -0.256154   0.058474
     8  C   -0.609000   0.196422
     9  C   -1.513812  -0.074705
    10  C    2.419784  -0.039963
    11  C   -0.583498   0.224198
    12  C   -0.274788   0.132463
    13  C   -0.055357   0.077037
    14  N   -0.034141   0.187299
    15  H    0.148450   0.000017
    16  H    0.176148   0.000837
    17  H    0.135326   0.018150
    18  H    0.254956   0.040401
    19  H    0.104092  -0.005107
    20  H    0.114918  -0.004217
    21  H    0.126476  -0.016319
    22  H    0.089906  -0.020908
    23  H    0.121152  -0.003306
    24  H    0.130630  -0.009076
 Sum of Mulliken charges =  -1.00000   1.00000

 Dipole moment (field-independent basis, Debye):
    X=              2.2287    Y=              0.9386    Z=              0.6390  Tot=              2.5013
 Quadrupole moment (field-independent basis, Debye-Ang):
   XX=           -133.4348   YY=            -97.9559   ZZ=            -90.6850
   XY=             11.0234   XZ=              4.5471   YZ=             -0.0786

 Summary of Natural Population Analysis:

                                       Natural Population
                Natural  -----------------------------------------------
    Atom  No    Charge         Core      Valence    Rydberg      Total
 -----------------------------------------------------------------------
      C    1   -0.33278      0.99959     2.32818    0.00501     3.33278
      C    2    0.34677      0.99971     1.63218    0.02134     2.65323
      O    3   -0.33143      0.99987     3.32445    0.00711     4.33143
      N    4   -0.33283      0.99968     2.81573    0.01743     3.83283
      C    5    0.17845      0.99944     1.81092    0.01119     2.82155
      C    6   -0.12336      0.99959     2.10750    0.01627     3.12336
      C    7   -0.10004      0.99958     2.09134    0.00912     3.10004
      C    8   -0.05359      0.99953     2.04324    0.01082     3.05359
      C    9    0.07221      0.99949     1.91497    0.01333     2.92779
      C   10   -0.08445      0.99951     2.06904    0.01590     3.08445
      C   11   -0.02486      0.99954     2.01666    0.00866     3.02486
      C   12   -0.11760      0.99957     2.10883    0.00920     3.11760
      C   13    0.04007      0.99962     1.94452    0.01579     2.95993
      N   14   -0.18570      0.99968     2.67269    0.01333     3.68570
      H   15    0.10390      0.00000     0.39433    0.00178     0.39610
      H   16    0.11530      0.00000     0.38418    0.00052     0.38470
      H   17    0.10881      0.00000     0.39059    0.00060     0.39119
      H   18    0.19647      0.00000     0.30131    0.00221     0.30353
      H   19    0.09125      0.00000     0.40701    0.00173     0.40875
      H   20    0.08871      0.00000     0.40975    0.00154     0.41129
      H   21    0.09365      0.00000     0.40428    0.00207     0.40635
      H   22    0.09003      0.00000     0.40844    0.00153     0.40997
      H   23    0.09006      0.00000     0.40868    0.00125     0.40994
      H   24    0.07519      0.00000     0.42336    0.00144     0.42481
 =======================================================================
   * Total *    0.00423     13.99439    34.81218    0.18920    48.99577

 Normal termination of Gaussian 16 at Thu Dec 10 10:38:47 2020.
