 Gaussian 16, Revision A.03,

 -----------------------------------------------------------
 # opt freq B3LYP/6-31G(d) empiricaldispersion=gd3bj scf=xqc
 -----------------------------------------------------------

 ------------------------------
 CID_19987406_JID_2152_neutraal
 ------------------------------
 Symbolic Z-matrix:
 Charge =  0 Multiplicity = 1

 SCF Done:  E(RB3LYP) =  -606.761038250     A.U. after   14 cycles
 SCF Done:  E(RB3LYP) =  -606.764897861     A.U. after   12 cycles
 SCF Done:  E(RB3LYP) =  -606.765618585     A.U. after   12 cycles
 SCF Done:  E(RB3LYP) =  -606.765849880     A.U. after   11 cycles
 SCF Done:  E(RB3LYP) =  -606.766066793     A.U. after   11 cycles
 SCF Done:  E(RB3LYP) =  -606.766180689     A.U. after   11 cycles
 SCF Done:  E(RB3LYP) =  -606.766227503     A.U. after   10 cycles
 SCF Done:  E(RB3LYP) =  -606.766245850     A.U. after   10 cycles
 SCF Done:  E(RB3LYP) =  -606.766250304     A.U. after    9 cycles
 SCF Done:  E(RB3LYP) =  -606.766251684     A.U. after    9 cycles
 SCF Done:  E(RB3LYP) =  -606.766252307     A.U. after    8 cycles
 SCF Done:  E(RB3LYP) =  -606.766252556     A.U. after    8 cycles
 SCF Done:  E(RB3LYP) =  -606.766252993     A.U. after    8 cycles
 SCF Done:  E(RB3LYP) =  -606.766253201     A.U. after    8 cycles
 SCF Done:  E(RB3LYP) =  -606.766253242     A.U. after    7 cycles
 Optimization completed.
    -- Stationary point found.
 Normal termination of Gaussian 16 at Wed Dec  9 16:49:58 2020.

 --------------------------------------------------------------------
 #N Geom=AllCheck Guess=TCheck SCRF=Check GenChk RB3LYP/6-31G(d) Freq
 --------------------------------------------------------------------

 Structure from the checkpoint file:  "JID_2152.chk"
 ------------------------------
 CID_19987406_JID_2152_neutraal
 ------------------------------
 Charge =  0 Multiplicity = 1

 SCF Done:  E(RB3LYP) =  -606.766253242     A.U. after    1 cycles

  Exact polarizability:  99.782  -2.576  89.058  10.337   5.250  63.266
 Approx polarizability: 131.799  -4.758 151.692  19.216  13.556 100.302

                      1                      2                      3
                      A                      A                      A
 Frequencies --     39.7006                46.9530                96.6858
 Red. masses --      5.4837                 6.9118                 5.6724
 Frc consts  --      0.0051                 0.0090                 0.0312
 IR Inten    --      3.7768                 3.3807                 0.7038

                      4                      5                      6
                      A                      A                      A
 Frequencies --    115.9600               180.9040               289.5514
 Red. masses --      5.1784                 5.9651                 3.8302
 Frc consts  --      0.0410                 0.1150                 0.1892
 IR Inten    --      0.7489                 4.4768                 3.0619

                      7                      8                      9
                      A                      A                      A
 Frequencies --    317.2881               360.0551               478.3320
 Red. masses --      3.1345                 2.6647                 2.6612
 Frc consts  --      0.1859                 0.2035                 0.3587
 IR Inten    --      4.9977                 3.6901                 1.9525

                     10                     11                     12
                      A                      A                      A
 Frequencies --    508.8857               567.4032               636.7337
 Red. masses --      5.0665                 1.5053                 3.1159
 Frc consts  --      0.7730                 0.2855                 0.7443
 IR Inten    --     10.0675               107.1991                17.0728

                     13                     14                     15
                      A                      A                      A
 Frequencies --    680.0362               711.0589               736.7790
 Red. masses --      3.8429                 4.8936                 3.4068
 Frc consts  --      1.0471                 1.4578                 1.0896
 IR Inten    --      5.8905                 7.1562                25.8519

                     16                     17                     18
                      A                      A                      A
 Frequencies --    758.3982               764.8398               808.5680
 Red. masses --      1.6141                 6.0771                 4.8721
 Frc consts  --      0.5470                 2.0945                 1.8767
 IR Inten    --     24.7922                16.4579                 6.0385

                     19                     20                     21
                      A                      A                      A
 Frequencies --    837.7279               869.1403               929.5464
 Red. masses --      1.4826                 2.5882                 4.6991
 Frc consts  --      0.6130                 1.1519                 2.3923
 IR Inten    --     11.9108                 2.3495                31.5944

                     22                     23                     24
                      A                      A                      A
 Frequencies --    935.5019               947.9952               995.9738
 Red. masses --      5.1447                 2.4093                 3.6927
 Frc consts  --      2.6528                 1.2757                 2.1582
 IR Inten    --     30.1042                 1.4966                31.3918

                     25                     26                     27
                      A                      A                      A
 Frequencies --   1011.0024              1061.6137              1097.8218
 Red. masses --      2.3391                 2.9464                 2.7042
 Frc consts  --      1.4086                 1.9565                 1.9202
 IR Inten    --     11.9821                18.7843                75.1816

                     28                     29                     30
                      A                      A                      A
 Frequencies --   1103.2311              1137.3263              1137.9677
 Red. masses --      3.0588                 8.5231                 2.0996
 Frc consts  --      2.1935                 6.4955                 1.6019
 IR Inten    --     18.0534                23.5199                24.8961

                     31                     32                     33
                      A                      A                      A
 Frequencies --   1205.6619              1231.0930              1250.4469
 Red. masses --      1.5181                 2.2485                 1.2413
 Frc consts  --      1.3002                 2.0078                 1.1435
 IR Inten    --     34.3085               150.5771                 5.0835

                     34                     35                     36
                      A                      A                      A
 Frequencies --   1259.0244              1290.7510              1308.0388
 Red. masses --      1.5568                 1.3792                 1.7283
 Frc consts  --      1.4540                 1.3538                 1.7423
 IR Inten    --     27.0436                 3.4555                 5.5560

                     37                     38                     39
                      A                      A                      A
 Frequencies --   1359.4984              1366.5067              1402.2720
 Red. masses --      2.5564                 1.6056                 1.2474
 Frc consts  --      2.7838                 1.7665                 1.4451
 IR Inten    --      1.8272                20.0854                 5.1035

                     40                     41                     42
                      A                      A                      A
 Frequencies --   1432.0375              1438.5540              1502.0742
 Red. masses --      1.7734                 1.6673                 1.1037
 Frc consts  --      2.1428                 2.0329                 1.4672
 IR Inten    --     66.6081                24.4864                 3.7333

                     43                     44                     45
                      A                      A                      A
 Frequencies --   1543.6769              1567.4843              1640.5499
 Red. masses --      1.0960                 5.5404                 6.7191
 Frc consts  --      1.5387                 8.0205                10.6547
 IR Inten    --      4.5803                37.1685                 6.8500

                     46                     47                     48
                      A                      A                      A
 Frequencies --   1899.3267              3054.9133              3072.8850
 Red. masses --     11.5492                 1.0597                 1.0645
 Frc consts  --     24.5471                 5.8269                 5.9223
 IR Inten    --    586.6294                12.8796                38.6417

                     49                     50                     51
                      A                      A                      A
 Frequencies --   3093.9341              3111.1428              3138.6488
 Red. masses --      1.0937                 1.0964                 1.1061
 Frc consts  --      6.1685                 6.2524                 6.4201
 IR Inten    --      2.6821                32.3168                21.6593

                     52                     53                     54
                      A                      A                      A
 Frequencies --   3299.1102              3314.5890              3622.3686
 Red. masses --      1.0983                 1.1012                 1.0771
 Frc consts  --      7.0432                 7.1279                 8.3274
 IR Inten    --      0.5478                 1.2929                30.0517

 - Thermochemistry -
 -------------------
 Temperature   298.150 Kelvin.  Pressure   1.00000 Atm.
 Atom     1 has atomic number  6 and mass  12.00000

 Molecular mass:   168.05349 amu.
 Principal axes and moments of inertia in atomic units:
                           1         2         3
     Eigenvalues --   822.696023327.845343790.87922
           X            0.99987  -0.01632   0.00176
           Y            0.01632   0.99987   0.00120
           Z           -0.00178  -0.00117   1.00000
 This molecule is an asymmetric top.
 Rotational symmetry number  1.
 Warning -- assumption of classical behavior for rotation
           may cause significant error
 Rotational temperatures (Kelvin)      0.10528     0.02603     0.02285
 Rotational constants (GHZ):           2.19369     0.54232     0.47607
 Zero-point vibrational energy     410125.1 (Joules/Mol)
                                   98.02226 (Kcal/Mol)
 Warning -- explicit consideration of  11 degrees of freedom as
           vibrations may cause significant error
 Vibrational temperatures:     57.12    67.55   139.11   166.84   260.28
          (Kelvin)            416.60   456.51   518.04   688.21   732.17
                              816.37   916.12   978.42  1023.06  1060.06
                             1091.17  1100.43  1163.35  1205.30  1250.50
                             1337.41  1345.98  1363.95  1432.98  1454.61
                             1527.43  1579.52  1587.30  1636.36  1637.28
                             1734.68  1771.27  1799.11  1811.46  1857.10
                             1881.98  1956.02  1966.10  2017.56  2060.38
                             2069.76  2161.15  2221.01  2255.26  2360.39
                             2732.71  4395.34  4421.20  4451.48  4476.24
                             4515.82  4746.68  4768.95  5211.78

 Zero-point correction=                           0.156208 (Hartree/Particle)
 Thermal correction to Energy=                    0.165919
 Thermal correction to Enthalpy=                  0.166863
 Thermal correction to Gibbs Free Energy=         0.119130
 Sum of electronic and zero-point Energies=           -606.610045
 Sum of electronic and thermal Energies=              -606.600335
 Sum of electronic and thermal Enthalpies=            -606.599390
 Sum of electronic and thermal Free Energies=         -606.647124

                     E (Thermal)             CV                S
                      KCal/Mol        Cal/Mol-Kelvin    Cal/Mol-Kelvin
 Total                  104.116             36.080            100.463
 Electronic               0.000              0.000              0.000
 Translational            0.889              2.981             41.265
 Rotational               0.889              2.981             30.718
 Vibrational            102.338             30.118             28.479
 Vibration     1          0.594              1.981              5.274
 Vibration     2          0.595              1.979              4.942
 Vibration     3          0.603              1.952              3.520
 Vibration     4          0.608              1.936              3.167
 Vibration     5          0.630              1.866              2.319
 Vibration     6          0.686              1.693              1.477
 Vibration     7          0.704              1.641              1.324
 Vibration     8          0.735              1.555              1.122
 Vibration     9          0.835              1.298              0.715
 Vibration    10          0.864              1.230              0.636
 Vibration    11          0.923              1.102              0.509

 Optimization completed.
    -- Stationary point found.
 Normal termination of Gaussian 16 at Wed Dec  9 16:53:48 2020.

 ----------------------------------------------------------------------
 # B3LYP/6-311++G(d,p) empiricaldispersion=gd3bj scf=xqc pop=npa geom=c
 heck
 ----------------------------------------------------------------------

 --------------------------------------
 CID_19987406_JID_2152_Energie_neutraal
 --------------------------------------
 Structure from the checkpoint file:  "JID_2152.chk"
 Charge =  0 Multiplicity = 1

 SCF Done:  E(RB3LYP) =  -606.942974463     A.U. after   15 cycles
 Normal termination of Gaussian 16 at Wed Dec  9 16:55:24 2020.

 ----------------------------------------------------------------------
 # B3LYP/6-311++G(d,p) empiricaldispersion=gd3bj scf=xqc pop=npa geom=c
 heck
 ----------------------------------------------------------------------

 ------------------------------------
 CID_19987406_JID_2152_Energie_kation
 ------------------------------------
 Structure from the checkpoint file:  "JID_2152.chk"
 Charge =  1 Multiplicity = 2

 SCF Done:  E(UB3LYP) =  -606.603592980     A.U. after   26 cycles
 Normal termination of Gaussian 16 at Wed Dec  9 16:59:06 2020.
 Gaussian 16:  ES64L-G16RevA.03 25-Dec-2016

 ----------------------------------------------------------------------
 # B3LYP/6-311++G(d,p) empiricaldispersion=gd3bj scf=xqc pop=npa geom=c
 heck
 ----------------------------------------------------------------------

 -----------------------------------
 CID_19987406_JID_2152_Energie_anion
 -----------------------------------
 Structure from the checkpoint file:  "JID_2152.chk"
 Charge = -1 Multiplicity = 2

                         Standard orientation:
 ---------------------------------------------------------------------
 Center     Atomic      Atomic             Coordinates (Angstroms)
 Number     Number       Type             X           Y           Z
 ---------------------------------------------------------------------
      1          6           0        2.216639   -1.443512    0.019556
      2          6           0        0.807989   -0.972598   -0.385031
      3          7           0        1.146955    0.367385   -0.840331
      4          6           0        2.271626    0.835611   -0.183389
      5          8           0        2.669452    1.970089   -0.101020
      6          8           0        2.910557   -0.239396    0.384535
      7          6           0       -0.186926   -0.969241    0.795172
      8          6           0       -1.482813   -0.329571    0.422381
      9          6           0       -1.993927    0.881194    0.770036
     10          8           0       -3.197333    1.039014    0.126674
     11          6           0       -3.342439   -0.101478   -0.593455
     12          7           0       -2.369306   -0.945661   -0.468437
     13          1           0        2.218593   -2.117372    0.879116
     14          1           0        2.739427   -1.915477   -0.819378
     15          1           0        0.398754   -1.572679   -1.202694
     16          1           0        0.417525    1.043779   -1.023866
     17          1           0       -0.366453   -2.005735    1.105713
     18          1           0        0.266255   -0.439481    1.641108
     19          1           0       -1.680230    1.685073    1.416427
     20          1           0       -4.239714   -0.190256   -1.188176
 ---------------------------------------------------------------------

 SCF Done:  E(UB3LYP) =  -606.930100826     A.U. after   33 cycles
 SCF Done:  E(UB3LYP) =  -606.930100826     a.u. after    1 cycles

 The electronic state is 2-A.
 Alpha  occ. eigenvalues --  -19.11725 -19.07134 -19.00756 -14.24944 -14.22768
 Alpha  occ. eigenvalues --  -10.22675 -10.17196 -10.14189 -10.14138 -10.13403
 Alpha  occ. eigenvalues --  -10.12252 -10.09478  -1.05055  -1.02215  -0.93531
 Alpha  occ. eigenvalues --   -0.84649  -0.83718  -0.71379  -0.67669  -0.62315
 Alpha  occ. eigenvalues --   -0.55273  -0.52248  -0.51925  -0.51352  -0.45047
 Alpha  occ. eigenvalues --   -0.43860  -0.40974  -0.39475  -0.39019  -0.37216
 Alpha  occ. eigenvalues --   -0.35631  -0.33509  -0.33149  -0.32777  -0.32762
 Alpha  occ. eigenvalues --   -0.30690  -0.28669  -0.26483  -0.23555  -0.21232
 Alpha  occ. eigenvalues --   -0.20700  -0.19690  -0.18005  -0.16324   0.04353
 Alpha virt. eigenvalues --    0.06164   0.06740   0.07265   0.08307   0.09593
 Alpha virt. eigenvalues --    0.10037   0.10644   0.11383   0.12036   0.12513
 Alpha virt. eigenvalues --    0.12978   0.13679   0.13956   0.15194   0.15761

  Beta  occ. eigenvalues --  -19.11719 -19.07132 -19.00753 -14.24930 -14.22761
  Beta  occ. eigenvalues --  -10.22674 -10.17170 -10.14161 -10.14096 -10.13391
  Beta  occ. eigenvalues --  -10.12252 -10.09450  -1.05038  -1.02205  -0.93525
  Beta  occ. eigenvalues --   -0.84628  -0.83701  -0.71340  -0.67623  -0.62255
  Beta  occ. eigenvalues --   -0.55230  -0.52201  -0.51889  -0.51309  -0.44996
  Beta  occ. eigenvalues --   -0.43803  -0.40937  -0.39434  -0.38985  -0.37154
  Beta  occ. eigenvalues --   -0.35597  -0.33470  -0.33106  -0.32747  -0.32733
  Beta  occ. eigenvalues --   -0.30658  -0.28635  -0.26447  -0.23535  -0.21212
  Beta  occ. eigenvalues --   -0.20683  -0.19678  -0.17984  -0.16277
  Beta virt. eigenvalues --    0.06861   0.06949   0.07742   0.08154   0.09198
  Beta virt. eigenvalues --    0.10298   0.10417   0.11191   0.11827   0.12259
  Beta virt. eigenvalues --    0.12573   0.13191   0.13923   0.14189   0.15427

 Mulliken charges and spin densities:
               1          2
     1  C    1.693563  -2.297384
     2  C   -2.329065   2.608564
     3  N   -0.106491  -0.134087
     4  C    0.571911  -0.366119
     5  O   -0.389289   0.012818
     6  O   -0.150383   0.033319
     7  C    3.258999  -4.102123
     8  C   -0.183453   0.349932
     9  C   -0.074354  -0.262711
    10  O   -0.031681   0.004060
    11  C    0.465722  -0.327566
    12  N   -0.233905   0.194189
    13  H   -0.496357   0.704996
    14  H   -0.470856   0.664885
    15  H   -0.487795   0.775626
    16  H    0.143924   0.175642
    17  H   -0.343726   0.535828
    18  H   -0.147561   0.344296
    19  H   -0.363718   0.545194
    20  H   -1.325489   1.540643
 Sum of Mulliken charges =  -1.00000   1.00000

 Dipole moment (field-independent basis, Debye):
    X=              0.8258    Y=              2.8841    Z=              0.7837  Tot=              3.1006
 Quadrupole moment (field-independent basis, Debye-Ang):
   XX=           -146.7472   YY=           -115.7365   ZZ=           -101.3531
   XY=             -3.0400   XZ=             -8.6966   YZ=             -0.5221

 Summary of Natural Population Analysis:

                                       Natural Population
                Natural  -----------------------------------------------
    Atom  No    Charge         Core      Valence    Rydberg      Total
 -----------------------------------------------------------------------
      C    1   -0.00916      0.99957     1.99674    0.01285     3.00916
      C    2   -0.01903      0.99960     2.00631    0.01312     3.01903
      N    3   -0.33825      0.99967     2.82840    0.01017     3.83825
      C    4    0.45955      0.99971     1.51421    0.02652     2.54045
      O    5   -0.31360      0.99986     3.30782    0.00592     4.31360
      O    6   -0.28137      0.99987     3.27410    0.00740     4.28137
      C    7   -0.21169      0.99957     2.20136    0.01076     3.21169
      C    8    0.03725      0.99953     1.94791    0.01531     2.96275
      C    9    0.04506      0.99941     1.94285    0.01268     2.95494
      O   10   -0.23295      0.99988     3.22472    0.00835     4.23295
      C   11    0.19008      0.99963     1.79117    0.01912     2.80992
      N   12   -0.25098      0.99970     2.73997    0.01131     3.75098
      H   13    0.09857      0.00000     0.39870    0.00274     0.40143
      H   14    0.09244      0.00000     0.40529    0.00226     0.40756
      H   15    0.10790      0.00000     0.39013    0.00198     0.39210
      H   16    0.20245      0.00000     0.29553    0.00202     0.29755
      H   17    0.11726      0.00000     0.38018    0.00256     0.38274
      H   18    0.10712      0.00000     0.39100    0.00188     0.39288
      H   19    0.10364      0.00000     0.39502    0.00134     0.39636
      H   20    0.09570      0.00000     0.39926    0.00504     0.40430
 =======================================================================
   * Total *    0.00000     11.99602    31.83066    0.17332    44.00000

 Normal termination of Gaussian 16 at Wed Dec  9 17:04:30 2020.
