 Gaussian 16, Revision A.03,

 -----------------------------------------------------------
 # opt freq B3LYP/6-31G(d) empiricaldispersion=gd3bj scf=xqc
 -----------------------------------------------------------

 -----------------------------
 CID_8084178_JID_9518_neutraal
 -----------------------------
 Symbolic Z-matrix:
 Charge =  0 Multiplicity = 1

 SCF Done:  E(RB3LYP) =  -1504.37871739     A.U. after   16 cycles
 SCF Done:  E(RB3LYP) =  -1504.38608702     A.U. after   14 cycles
 SCF Done:  E(RB3LYP) =  -1504.38659485     A.U. after   15 cycles
 SCF Done:  E(RB3LYP) =  -1504.38786633     A.U. after   13 cycles
 SCF Done:  E(RB3LYP) =  -1504.38876718     A.U. after   13 cycles
 SCF Done:  E(RB3LYP) =  -1504.38969424     A.U. after   15 cycles
 SCF Done:  E(RB3LYP) =  -1504.39037086     A.U. after   13 cycles
 SCF Done:  E(RB3LYP) =  -1504.39100483     A.U. after   15 cycles
 SCF Done:  E(RB3LYP) =  -1504.39132453     A.U. after   13 cycles
 SCF Done:  E(RB3LYP) =  -1504.39176736     A.U. after   15 cycles
 SCF Done:  E(RB3LYP) =  -1504.39195362     A.U. after    8 cycles
 SCF Done:  E(RB3LYP) =  -1504.39195370     A.U. after    8 cycles
 SCF Done:  E(RB3LYP) =  -1504.39195376     A.U. after    8 cycles
 SCF Done:  E(RB3LYP) =  -1504.39195378     A.U. after    7 cycles
 SCF Done:  E(RB3LYP) =  -1504.39195379     A.U. after    6 cycles
 Optimization completed.
    -- Stationary point found.
 Normal termination of Gaussian 16 at Mon Dec 14 19:06:50 2020.

 --------------------------------------------------------------------
 #N Geom=AllCheck Guess=TCheck SCRF=Check GenChk RB3LYP/6-31G(d) Freq
 --------------------------------------------------------------------

 Structure from the checkpoint file:  "JID_9518.chk"
 -----------------------------
 CID_8084178_JID_9518_neutraal
 -----------------------------
 Charge =  0 Multiplicity = 1

 SCF Done:  E(RB3LYP) =  -1504.39195379     A.U. after    1 cycles

  Exact polarizability: 321.945   2.114 176.471  11.312 -10.693 140.423
 Approx polarizability: 426.110  12.200 328.438  24.215 -38.552 226.355

                      1                      2                      3
                      A                      A                      A
 Frequencies --     13.1305                15.6740                39.1437
 Red. masses --      3.9209                 4.4481                 5.6789
 Frc consts  --      0.0004                 0.0006                 0.0051
 IR Inten    --      0.3054                 0.0562                 0.6813

                      4                      5                      6
                      A                      A                      A
 Frequencies --     40.8914                41.8348                59.1114
 Red. masses --      3.9012                 5.6985                 2.8507
 Frc consts  --      0.0038                 0.0059                 0.0059
 IR Inten    --      0.7760                 0.9923                 0.1154

                      7                      8                      9
                      A                      A                      A
 Frequencies --     74.0324               102.0383               113.2693
 Red. masses --      3.1849                 4.2540                 4.3808
 Frc consts  --      0.0103                 0.0261                 0.0331
 IR Inten    --      0.4424                 0.4034                 1.0476

                     10                     11                     12
                      A                      A                      A
 Frequencies --    172.3140               180.4457               209.6786
 Red. masses --      4.6576                 3.5794                 5.6875
 Frc consts  --      0.0815                 0.0687                 0.1473
 IR Inten    --      0.8486                 0.6993                 2.3274

                     13                     14                     15
                      A                      A                      A
 Frequencies --    230.8454               243.2444               261.6850
 Red. masses --      1.7518                 1.6228                 1.1321
 Frc consts  --      0.0550                 0.0566                 0.0457
 IR Inten    --      0.3187                 0.4463                 0.2027

                     16                     17                     18
                      A                      A                      A
 Frequencies --    287.2466               295.2146               323.1646
 Red. masses --      2.8501                 4.8981                 4.6636
 Frc consts  --      0.1386                 0.2515                 0.2870
 IR Inten    --      1.1906                 1.4650                 1.2215

                     19                     20                     21
                      A                      A                      A
 Frequencies --    348.9791               387.2763               411.6618
 Red. masses --      4.3435                 4.5518                 2.1801
 Frc consts  --      0.3117                 0.4022                 0.2177
 IR Inten    --      2.4057                 2.5408                 0.2128

                     22                     23                     24
                      A                      A                      A
 Frequencies --    412.9715               424.3992               451.0025
 Red. masses --      3.4650                 3.5414                 5.1817
 Frc consts  --      0.3482                 0.3758                 0.6210
 IR Inten    --      1.4437                 0.1221                 2.7520

                     25                     26                     27
                      A                      A                      A
 Frequencies --    491.4197               494.7122               552.3567
 Red. masses --      2.0580                 2.1627                 2.5211
 Frc consts  --      0.2928                 0.3119                 0.4532
 IR Inten    --     62.9448                29.9976                 7.5575

                     28                     29                     30
                      A                      A                      A
 Frequencies --    575.3142               582.0408               590.3391
 Red. masses --      3.9856                 3.8654                 3.1447
 Frc consts  --      0.7772                 0.7715                 0.6457
 IR Inten    --      6.7849                 4.4182                 3.0800

                     31                     32                     33
                      A                      A                      A
 Frequencies --    613.3072               634.4673               647.9919
 Red. masses --      9.0317                 5.7752                 8.4900
 Frc consts  --      2.0016                 1.3697                 2.1004
 IR Inten    --      5.0607                18.9239                 7.2451

                     34                     35                     36
                      A                      A                      A
 Frequencies --    672.5340               728.7685               735.5551
 Red. masses --      7.3680                 2.3794                 4.2749
 Frc consts  --      1.9635                 0.7445                 1.3627
 IR Inten    --      6.8207                18.2354                10.4762

                     37                     38                     39
                      A                      A                      A
 Frequencies --    753.6720               785.4371               831.6019
 Red. masses --      4.3058                 7.0775                 1.2712
 Frc consts  --      1.4410                 2.5725                 0.5179
 IR Inten    --      3.7638                13.4298                 1.4147

                     40                     41                     42
                      A                      A                      A
 Frequencies --    845.0011               891.5786               900.2238
 Red. masses --      1.6553                 4.0247                 1.4771
 Frc consts  --      0.6964                 1.8850                 0.7053
 IR Inten    --     34.4723                 2.3223                11.9905

                     43                     44                     45
                      A                      A                      A
 Frequencies --    909.3344               942.0780               944.6156
 Red. masses --      2.6569                 1.1786                 1.3558
 Frc consts  --      1.2944                 0.6163                 0.7128
 IR Inten    --      0.8207                 0.7958                44.4617

                     46                     47                     48
                      A                      A                      A
 Frequencies --    954.1450               955.7723               961.9529
 Red. masses --      1.3334                 1.3117                 2.2873
 Frc consts  --      0.7152                 0.7060                 1.2470
 IR Inten    --      0.0385                 2.2961                 3.3073

                     49                     50                     51
                      A                      A                      A
 Frequencies --    974.7676              1019.7483              1025.7337
 Red. masses --      1.4873                 5.9560                 1.2051
 Frc consts  --      0.8326                 3.6492                 0.7470
 IR Inten    --      0.0645                14.9921                17.5688

                     52                     53                     54
                      A                      A                      A
 Frequencies --   1037.6951              1086.6603              1106.1888
 Red. masses --      2.8657                 1.5567                 1.3650
 Frc consts  --      1.8181                 1.0830                 0.9841
 IR Inten    --      3.9096                20.7407                15.7856

                     55                     56                     57
                      A                      A                      A
 Frequencies --   1135.7760              1147.8457              1155.2640
 Red. masses --      2.2946                 5.0223                 1.7111
 Frc consts  --      1.7440                 3.8987                 1.3455
 IR Inten    --      0.7294                45.6493                41.1064

                     58                     59                     60
                      A                      A                      A
 Frequencies --   1191.3274              1222.9947              1240.6238
 Red. masses --      1.7641                 1.1635                 1.4463
 Frc consts  --      1.4751                 1.0254                 1.3116
 IR Inten    --      1.3100                13.9599                 2.4329

                     61                     62                     63
                      A                      A                      A
 Frequencies --   1246.6189              1252.6501              1273.8108
 Red. masses --      2.5086                 2.1778                 1.2301
 Frc consts  --      2.2970                 2.0133                 1.1760
 IR Inten    --     33.5878                 3.0980                20.2790

                     64                     65                     66
                      A                      A                      A
 Frequencies --   1328.7695              1337.6907              1345.2598
 Red. masses --      2.4771                 1.2556                 4.8425
 Frc consts  --      2.5768                 1.3237                 5.1633
 IR Inten    --     16.8791                 0.2862                20.1346

                     67                     68                     69
                      A                      A                      A
 Frequencies --   1356.2456              1362.4068              1401.9674
 Red. masses --      2.4337                 1.3272                 1.6865
 Frc consts  --      2.6375                 1.4514                 1.9531
 IR Inten    --      4.8605                 2.8967                 6.4830

                     70                     71                     72
                      A                      A                      A
 Frequencies --   1427.0030              1431.0982              1447.7501
 Red. masses --      1.2282                 1.9269                 1.2397
 Frc consts  --      1.4736                 2.3252                 1.5310
 IR Inten    --      3.5332               191.0453                 6.1362

                     73                     74                     75
                      A                      A                      A
 Frequencies --   1464.4438              1468.9467              1477.8975
 Red. masses --      1.3155                 5.3071                 2.8476
 Frc consts  --      1.6623                 6.7471                 3.6645
 IR Inten    --      3.0333                 7.2337               130.7339

                     76                     77                     78
                      A                      A                      A
 Frequencies --   1502.9619              1517.1972              1521.3469
 Red. masses --      1.1379                 1.0445                 1.0481
 Frc consts  --      1.5144                 1.4166                 1.4292
 IR Inten    --      7.8559                 0.0097                 2.2763

                     79                     80                     81
                      A                      A                      A
 Frequencies --   1532.8135              1537.5178              1564.1259
 Red. masses --      1.0510                 1.0749                 2.4044
 Frc consts  --      1.4549                 1.4971                 3.4657
 IR Inten    --      7.7193                 2.5233                 7.7596

                     82                     83                     84
                      A                      A                      A
 Frequencies --   1592.8316              1645.0561              1677.7445
 Red. masses --      3.6640                 4.7921                 5.8583
 Frc consts  --      5.4771                 7.6408                 9.7156
 IR Inten    --    819.5983                86.4585                43.6876

                     85                     86                     87
                      A                      A                      A
 Frequencies --   1726.6289              3034.9283              3045.0717
 Red. masses --      4.3431                 1.0842                 1.0347
 Frc consts  --      7.6286                 5.8839                 5.6528
 IR Inten    --      2.4128                15.2300                24.8289

                     88                     89                     90
                      A                      A                      A
 Frequencies --   3049.2542              3072.1460              3109.3172
 Red. masses --      1.0354                 1.0589                 1.1026
 Frc consts  --      5.6723                 5.8881                 6.2805
 IR Inten    --     37.1053                16.5778                 0.3092

                     91                     92                     93
                      A                      A                      A
 Frequencies --   3115.8845              3122.4124              3124.1081
 Red. masses --      1.1016                 1.1029                 1.1025
 Frc consts  --      6.3016                 6.3353                 6.3400
 IR Inten    --     85.0242                23.2340                37.0052

                     94                     95                     96
                      A                      A                      A
 Frequencies --   3127.2195              3161.9749              3179.2620
 Red. masses --      1.1062                 1.0593                 1.0874
 Frc consts  --      6.3737                 6.2402                 6.4757
 IR Inten    --      4.5741                 7.5582                18.4067

                     97                     98                     99
                      A                      A                      A
 Frequencies --   3181.1052              3184.5276              3198.2585
 Red. masses --      1.0929                 1.0892                 1.0937
 Frc consts  --      6.5161                 6.5081                 6.5916
 IR Inten    --      6.4301                12.8459                18.8123

                    100                    101                    102
                      A                      A                      A
 Frequencies --   3228.5612              3246.7082              3588.6250
 Red. masses --      1.0916                 1.1155                 1.0751
 Frc consts  --      6.7041                 6.9278                 8.1572
 IR Inten    --      8.5727                14.7455                48.7945

 - Thermochemistry -
 -------------------
 Temperature   298.150 Kelvin.  Pressure   1.00000 Atm.
 Atom     1 has atomic number  6 and mass  12.00000

 Molecular mass:   291.08639 amu.
 Principal axes and moments of inertia in atomic units:
                           1         2         3
     Eigenvalues --  2268.71010********************
           X            0.99997  -0.00177  -0.00794
           Y            0.00191   0.99985   0.01700
           Z            0.00791  -0.01701   0.99982
 This molecule is an asymmetric top.
 Rotational symmetry number  1.
 Warning -- assumption of classical behavior for rotation
           may cause significant error
 Rotational temperatures (Kelvin)      0.03818     0.00570     0.00551
 Rotational constants (GHZ):           0.79549     0.11880     0.11480
 Zero-point vibrational energy     757764.0 (Joules/Mol)
                                  181.10994 (Kcal/Mol)
 Warning -- explicit consideration of  31 degrees of freedom as
           vibrations may cause significant error
 Vibrational temperatures:     18.89    22.55    56.32    58.83    60.19
          (Kelvin)             85.05   106.52   146.81   162.97   247.92
                              259.62   301.68   332.14   349.97   376.51
                              413.28   424.75   464.96   502.10   557.20
                              592.29   594.17   610.62   648.89   707.04
                              711.78   794.72   827.75   837.43   849.37
                              882.41   912.86   932.32   967.63  1048.54
                             1058.30  1084.37  1130.07  1196.49  1215.77
                             1282.78  1295.22  1308.33  1355.44  1359.09
                             1372.80  1375.14  1384.04  1402.47  1467.19
                             1475.80  1493.01  1563.46  1591.56  1634.13
                             1651.49  1662.17  1714.05  1759.62  1784.98
                             1793.61  1802.28  1832.73  1911.80  1924.64
                             1935.53  1951.33  1960.20  2017.12  2053.14
                             2059.03  2082.99  2107.01  2113.49  2126.36
                             2162.43  2182.91  2188.88  2205.38  2212.15
                             2250.43  2291.73  2366.87  2413.90  2484.23
                             4366.58  4381.18  4387.20  4420.13  4473.61
                             4483.06  4492.46  4494.89  4499.37  4549.38
                             4574.25  4576.90  4581.82  4601.58  4645.18
                             4671.29  5163.23

 Zero-point correction=                           0.288617 (Hartree/Particle)
 Thermal correction to Energy=                    0.308258
 Thermal correction to Enthalpy=                  0.309202
 Thermal correction to Gibbs Free Energy=         0.236338
 Sum of electronic and zero-point Energies=          -1504.103337
 Sum of electronic and thermal Energies=             -1504.083696
 Sum of electronic and thermal Enthalpies=           -1504.082751
 Sum of electronic and thermal Free Energies=        -1504.155616

                     E (Thermal)             CV                S
                      KCal/Mol        Cal/Mol-Kelvin    Cal/Mol-Kelvin
 Total                  193.435             72.453            153.356
 Electronic               0.000              0.000              0.000
 Translational            0.889              2.981             42.903
 Rotational               0.889              2.981             34.648
 Vibrational            191.657             66.492             75.805
 Vibration     1          0.593              1.987              7.470
 Vibration     2          0.593              1.986              7.118
 Vibration     3          0.594              1.981              5.302
 Vibration     4          0.594              1.981              5.215
 Vibration     5          0.594              1.980              5.170
 Vibration     6          0.596              1.974              4.487
 Vibration     7          0.599              1.966              4.043
 Vibration     8          0.604              1.948              3.415
 Vibration     9          0.607              1.938              3.212
 Vibration    10          0.626              1.877              2.410
 Vibration    11          0.629              1.866              2.324
 Vibration    12          0.642              1.826              2.046
 Vibration    13          0.653              1.794              1.872
 Vibration    14          0.659              1.774              1.779
 Vibration    15          0.669              1.743              1.651
 Vibration    16          0.684              1.697              1.490
 Vibration    17          0.689              1.683              1.444
 Vibration    18          0.708              1.629              1.294
 Vibration    19          0.726              1.577              1.171
 Vibration    20          0.756              1.497              1.011
 Vibration    21          0.776              1.445              0.921
 Vibration    22          0.777              1.442              0.916
 Vibration    23          0.786              1.417              0.877
 Vibration    24          0.810              1.359              0.793
 Vibration    25          0.847              1.269              0.680
 Vibration    26          0.850              1.262              0.671
 Vibration    27          0.908              1.135              0.539
 Vibration    28          0.932              1.085              0.494
 Vibration    29          0.939              1.070              0.482
 Vibration    30          0.948              1.052              0.467
 Vibration    31          0.973              1.004              0.427

                           ! Non-Optimized Parameters !
 Normal termination of Gaussian 16 at Mon Dec 14 19:22:27 2020.

 ----------------------------------------------------------------------
 # B3LYP/6-311++G(d,p) empiricaldispersion=gd3bj scf=xqc pop=npa geom=c
 heck
 ----------------------------------------------------------------------

 -------------------------------------
 CID_8084178_JID_9518_Energie_neutraal
 -------------------------------------
 Structure from the checkpoint file:  "JID_9518.chk"
 Charge =  0 Multiplicity = 1

 SCF Done:  E(RB3LYP) =  -1504.63354047     A.U. after   17 cycles
 Normal termination of Gaussian 16 at Mon Dec 14 19:31:21 2020.

 ----------------------------------------------------------------------
 # B3LYP/6-311++G(d,p) empiricaldispersion=gd3bj scf=xqc pop=npa geom=c
 heck
 ----------------------------------------------------------------------

 -----------------------------------
 CID_8084178_JID_9518_Energie_kation
 -----------------------------------
 Structure from the checkpoint file:  "JID_9518.chk"
 Charge =  1 Multiplicity = 2

 SCF Done:  E(UB3LYP) =  -1504.36028266     A.U. after   24 cycles
 Normal termination of Gaussian 16 at Mon Dec 14 19:49:32 2020.
 Gaussian 16:  ES64L-G16RevA.03 25-Dec-2016

 ----------------------------------------------------------------------
 # B3LYP/6-311++G(d,p) empiricaldispersion=gd3bj scf=xqc pop=npa geom=c
 heck
 ----------------------------------------------------------------------

 ----------------------------------
 CID_8084178_JID_9518_Energie_anion
 ----------------------------------
 Structure from the checkpoint file:  "JID_9518.chk"
 Charge = -1 Multiplicity = 2

                         Standard orientation:
 ---------------------------------------------------------------------
 Center     Atomic      Atomic             Coordinates (Angstroms)
 Number     Number       Type             X           Y           Z
 ---------------------------------------------------------------------
      1          6           0        6.253720    0.861663    0.975943
      2          6           0        5.301158    1.072662   -0.212969
      3          6           0        5.956819    0.627966   -1.531400
      4          6           0        3.968372    0.379973    0.007882
      5          6           0        2.778233    1.107962    0.074206
      6          6           0        1.544561    0.490721    0.279127
      7          6           0        1.475047   -0.901508    0.399160
      8          6           0        2.662830   -1.646849    0.343451
      9          6           0        3.883679   -1.012053    0.157317
     10          7           0        0.271174   -1.593498    0.608848
     11          6           0       -1.001994   -1.286590    0.229727
     12          7           0       -1.996718   -2.089938    0.552507
     13          7           0       -3.195748   -1.666204    0.069920
     14          6           0       -3.132852   -0.568036   -0.621252
     15         16           0       -1.482961    0.088263   -0.746320
     16         16           0       -4.513212    0.230469   -1.358282
     17          6           0       -4.679643    1.686025   -0.200968
     18          6           0       -4.792516    1.259151    1.223728
     19          6           0       -3.850782    1.495467    2.137963
     20          1           0        6.507169   -0.198277    1.095111
     21          1           0        5.799111    1.203734    1.911579
     22          1           0        7.189128    1.412631    0.825063
     23          1           0        5.097896    2.149146   -0.289310
     24          1           0        6.196830   -0.441580   -1.510959
     25          1           0        5.290865    0.804619   -2.382446
     26          1           0        6.890330    1.175840   -1.703902
     27          1           0        2.811322    2.190454   -0.020953
     28          1           0        0.653555    1.099136    0.376554
     29          1           0        2.619473   -2.729314    0.435578
     30          1           0        4.785906   -1.615985    0.116629
     31          1           0        0.336484   -2.523271    1.005951
     32          1           0       -3.830584    2.357646   -0.354876
     33          1           0       -5.586001    2.186261   -0.559589
     34          1           0       -5.679702    0.685428    1.484891
     35          1           0       -3.950252    1.149299    3.162303
     36          1           0       -2.943527    2.042669    1.891594
 ---------------------------------------------------------------------

 SCF Done:  E(UB3LYP) =  -1504.63643589     A.U. after   33 cycles
 SCF Done:  E(UB3LYP) =  -1504.63643589     a.u. after    1 cycles

 The electronic state is 2-A.
 Alpha  occ. eigenvalues --  -88.75370 -88.73787 -14.24519 -14.20376 -14.20135
 Alpha  occ. eigenvalues --  -10.13676 -10.11415 -10.10680 -10.09527 -10.09228
 Alpha  occ. eigenvalues --  -10.07864 -10.07719 -10.07624 -10.07514 -10.07503
 Alpha  occ. eigenvalues --  -10.07472 -10.07025 -10.06897 -10.06605  -7.84032
 Alpha  occ. eigenvalues --   -7.82293  -5.80320  -5.80002  -5.79590  -5.78689
 Alpha  occ. eigenvalues --   -5.78336  -5.77674  -0.90338  -0.84917  -0.76089
 Alpha  occ. eigenvalues --   -0.72256  -0.71178  -0.68619  -0.67311  -0.65035
 Alpha  occ. eigenvalues --   -0.63594  -0.62113  -0.60172  -0.55694  -0.53726
 Alpha  occ. eigenvalues --   -0.52067  -0.49018  -0.46907  -0.46418  -0.45429
 Alpha  occ. eigenvalues --   -0.42337  -0.39592  -0.38737  -0.37056  -0.36201
 Alpha  occ. eigenvalues --   -0.34618  -0.34028  -0.33695  -0.33165  -0.32898
 Alpha  occ. eigenvalues --   -0.32584  -0.31674  -0.30592  -0.30423  -0.30198
 Alpha  occ. eigenvalues --   -0.29014  -0.27726  -0.26470  -0.26293  -0.25972
 Alpha  occ. eigenvalues --   -0.24235  -0.24060  -0.23686  -0.22100  -0.17813
 Alpha  occ. eigenvalues --   -0.16762  -0.16569  -0.16032  -0.15638  -0.13948
 Alpha  occ. eigenvalues --   -0.12500  -0.09453   0.03908
 Alpha virt. eigenvalues --    0.05236   0.07067   0.07290   0.07704   0.07820
 Alpha virt. eigenvalues --    0.07969   0.08384   0.09034   0.09108   0.09693
 Alpha virt. eigenvalues --    0.09965   0.10151   0.11224   0.11516   0.11743

  Beta  occ. eigenvalues --  -88.75325 -88.73780 -14.24561 -14.20224 -14.20182
  Beta  occ. eigenvalues --  -10.13356 -10.11306 -10.10415 -10.09384 -10.09235
  Beta  occ. eigenvalues --  -10.07861 -10.07704 -10.07627 -10.07523 -10.07487
  Beta  occ. eigenvalues --  -10.07444 -10.06885 -10.06843 -10.06559  -7.83992
  Beta  occ. eigenvalues --   -7.82283  -5.80304  -5.79986  -5.79435  -5.78663
  Beta  occ. eigenvalues --   -5.78338  -5.77668  -0.90086  -0.84760  -0.75941
  Beta  occ. eigenvalues --   -0.72014  -0.71047  -0.68441  -0.67007  -0.64924
  Beta  occ. eigenvalues --   -0.63428  -0.61974  -0.60127  -0.55437  -0.53592
  Beta  occ. eigenvalues --   -0.51996  -0.48869  -0.46753  -0.46277  -0.45311
  Beta  occ. eigenvalues --   -0.42186  -0.39455  -0.38631  -0.36977  -0.36073
  Beta  occ. eigenvalues --   -0.34546  -0.33854  -0.33603  -0.32982  -0.32712
  Beta  occ. eigenvalues --   -0.32221  -0.31523  -0.30511  -0.30257  -0.29988
  Beta  occ. eigenvalues --   -0.28667  -0.27343  -0.26360  -0.26234  -0.25869
  Beta  occ. eigenvalues --   -0.24015  -0.23904  -0.23568  -0.21699  -0.17726
  Beta  occ. eigenvalues --   -0.16324  -0.16052  -0.15751  -0.14740  -0.13727
  Beta  occ. eigenvalues --   -0.12361  -0.08945
  Beta virt. eigenvalues --    0.05498   0.07101   0.07213   0.07665   0.07867
  Beta virt. eigenvalues --    0.08015   0.08060   0.08916   0.09131   0.09147
  Beta virt. eigenvalues --    0.09704   0.10063   0.10836   0.11187   0.11476

 Mulliken charges and spin densities:
               1          2
     1  C   -0.365765  -0.309470
     2  C   -0.883663   1.033904
     3  C   -0.048977  -0.632579
     4  C    0.999448  -0.373842
     5  C   -0.513260   0.159038
     6  C    0.110919   0.061951
     7  C    0.121564  -0.337214
     8  C   -0.232394   0.008251
     9  C   -0.389723  -0.076716
    10  N    0.027059  -0.010426
    11  C   -0.493594   0.035779
    12  N    0.000870  -0.050805
    13  N   -0.122865   0.086622
    14  C    0.546482   0.161178
    15  S   -0.243177   0.082281
    16  S   -0.129986   0.052787
    17  C   -0.276155  -0.148600
    18  C    0.209326   0.034570
    19  C   -0.627543   0.035346
    20  H    0.044121   0.097790
    21  H    0.102271   0.029460
    22  H    0.009907   0.122609
    23  H    0.073223   0.084747
    24  H    0.055201   0.084614
    25  H    0.088759   0.048263
    26  H   -0.204620   0.342914
    27  H    0.138156   0.016253
    28  H    0.129627   0.000244
    29  H   -0.020083   0.146567
    30  H    0.108088   0.021713
    31  H    0.258588   0.025107
    32  H    0.194972  -0.014011
    33  H   -0.000607   0.178155
    34  H    0.140201   0.006858
    35  H    0.107422   0.000476
    36  H    0.086205  -0.003813
 Sum of Mulliken charges =  -1.00000   1.00000

 Dipole moment (field-independent basis, Debye):
    X=              2.8478    Y=              2.3934    Z=              1.3071  Tot=              3.9429
 Quadrupole moment (field-independent basis, Debye-Ang):
   XX=           -235.3282   YY=           -149.4026   ZZ=           -149.9577
   XY=            -13.6915   XZ=              2.5561   YZ=              1.3096

 Summary of Natural Population Analysis:

                                       Natural Population
                Natural  -----------------------------------------------
    Atom  No    Charge         Core      Valence    Rydberg      Total
 -----------------------------------------------------------------------
      C    1   -0.27811      0.99965     2.27391    0.00455     3.27811
      C    2   -0.11882      0.99959     2.10886    0.01037     3.11882
      C    3   -0.28082      0.99965     2.27518    0.00599     3.28082
      C    4   -0.00587      0.99949     1.99594    0.01044     3.00587
      C    5   -0.09760      0.99952     2.08962    0.00846     3.09760
      C    6   -0.11004      0.99953     2.10247    0.00804     3.11004
      C    7    0.09492      0.99948     1.89541    0.01019     2.90508
      C    8   -0.10852      0.99954     2.09977    0.00921     3.10852
      C    9   -0.10065      0.99952     2.09277    0.00836     3.10065
      N   10   -0.30398      0.99962     2.79392    0.01045     3.80398
      C   11    0.17161      0.99962     1.81060    0.01817     2.82839
      N   12   -0.20537      0.99965     2.69014    0.01559     3.70537
      N   13   -0.11955      0.99959     2.60085    0.01911     3.61955
      C   14   -0.04180      0.99961     2.02445    0.01774     3.04180
      S   15    0.15920      4.99939     2.82247    0.01894     7.84080
      S   16    0.11558      4.99949     2.86405    0.02089     7.88442
      C   17   -0.24560      0.99956     2.23193    0.01411     3.24560
      C   18   -0.09410      0.99957     2.08357    0.01096     3.09410
      C   19   -0.17884      0.99957     2.17219    0.00708     3.17884
      H   20    0.09586      0.00000     0.40319    0.00096     0.40414
      H   21    0.10018      0.00000     0.39902    0.00080     0.39982
      H   22    0.09452      0.00000     0.40459    0.00089     0.40548
      H   23    0.09271      0.00000     0.40519    0.00210     0.40729
      H   24    0.09565      0.00000     0.40349    0.00087     0.40435
      H   25    0.10170      0.00000     0.39762    0.00068     0.39830
      H   26    0.09602      0.00000     0.40293    0.00105     0.40398
      H   27    0.09601      0.00000     0.40294    0.00105     0.40399
      H   28    0.10700      0.00000     0.39172    0.00129     0.39300
      H   29    0.09701      0.00000     0.40192    0.00108     0.40299
      H   30    0.09674      0.00000     0.40222    0.00105     0.40326
      H   31    0.19716      0.00000     0.29917    0.00366     0.30284
      H   32    0.09921      0.00000     0.39947    0.00132     0.40079
      H   33    0.10321      0.00000     0.39502    0.00178     0.39679
      H   34    0.09441      0.00000     0.40402    0.00157     0.40559
      H   35    0.09095      0.00000     0.40802    0.00103     0.40905
      H   36    0.09004      0.00000     0.40879    0.00116     0.40996
 =======================================================================
   * Total *   -0.00000     26.99164    49.75737    0.25099    77.00000

 Normal termination of Gaussian 16 at Mon Dec 14 20:14:06 2020.
