 Gaussian 16, Revision A.03,

 -----------------------------------------------------------
 # opt freq B3LYP/6-31G(d) empiricaldispersion=gd3bj scf=xqc
 -----------------------------------------------------------

 -------------------------------
 CID_114696679_JID_2155_neutraal
 -------------------------------
 Symbolic Z-matrix:
 Charge =  0 Multiplicity = 1

 SCF Done:  E(RB3LYP) =  -574.495700877     A.U. after   14 cycles
 SCF Done:  E(RB3LYP) =  -574.499332743     A.U. after   12 cycles
 SCF Done:  E(RB3LYP) =  -574.499556912     A.U. after   11 cycles
 SCF Done:  E(RB3LYP) =  -574.499543159     A.U. after   12 cycles
 SCF Done:  E(RB3LYP) =  -574.499622116     A.U. after   10 cycles
 SCF Done:  E(RB3LYP) =  -574.499645777     A.U. after    9 cycles
 SCF Done:  E(RB3LYP) =  -574.499655474     A.U. after    9 cycles
 SCF Done:  E(RB3LYP) =  -574.499666474     A.U. after   10 cycles
 SCF Done:  E(RB3LYP) =  -574.499670052     A.U. after   10 cycles
 SCF Done:  E(RB3LYP) =  -574.499674139     A.U. after   10 cycles
 SCF Done:  E(RB3LYP) =  -574.499675759     A.U. after    8 cycles
 Optimization completed.
    -- Stationary point found.
 Normal termination of Gaussian 16 at Wed Dec  9 16:51:09 2020.

 --------------------------------------------------------------------
 #N Geom=AllCheck Guess=TCheck SCRF=Check GenChk RB3LYP/6-31G(d) Freq
 --------------------------------------------------------------------

 Structure from the checkpoint file:  "JID_2155.chk"
 -------------------------------
 CID_114696679_JID_2155_neutraal
 -------------------------------
 Charge =  0 Multiplicity = 1

 SCF Done:  E(RB3LYP) =  -574.499675759     A.U. after    1 cycles

  Exact polarizability: 116.430  -5.247  89.326   0.104   1.324  95.821
 Approx polarizability: 149.346  -9.673 122.561   7.589  -0.472 146.448

                      1                      2                      3
                      A                      A                      A
 Frequencies --     47.0565                56.9584               119.0975
 Red. masses --      4.9881                 3.8685                 1.5273
 Frc consts  --      0.0065                 0.0074                 0.0128
 IR Inten    --      0.1731                 0.7305                 1.0281

                      4                      5                      6
                      A                      A                      A
 Frequencies --    135.3280               145.6773               188.1268
 Red. masses --      2.7878                 2.1780                 3.3904
 Frc consts  --      0.0301                 0.0272                 0.0707
 IR Inten    --      0.1213                 1.9341                 2.7560

                      7                      8                      9
                      A                      A                      A
 Frequencies --    207.4819               251.6123               291.9007
 Red. masses --      2.9051                 1.0610                 1.9860
 Frc consts  --      0.0737                 0.0396                 0.0997
 IR Inten    --      0.7113                 0.1535                 0.7600

                     10                     11                     12
                      A                      A                      A
 Frequencies --    304.3206               320.3093               357.0225
 Red. masses --      2.8687                 3.4097                 2.9089
 Frc consts  --      0.1565                 0.2061                 0.2185
 IR Inten    --      9.7894                 8.3623                 6.4490

                     13                     14                     15
                      A                      A                      A
 Frequencies --    401.3363               406.1571               472.0328
 Red. masses --      2.0797                 2.6642                 1.6364
 Frc consts  --      0.1974                 0.2589                 0.2148
 IR Inten    --      3.5699                10.0296                59.6152

                     16                     17                     18
                      A                      A                      A
 Frequencies --    485.0790               514.1779               545.9859
 Red. masses --      2.6742                 1.8718                 3.1018
 Frc consts  --      0.3707                 0.2916                 0.5448
 IR Inten    --      4.5995                10.3205                 8.6246

                     19                     20                     21
                      A                      A                      A
 Frequencies --    608.3785               716.2815               757.0685
 Red. masses --      1.7807                 4.8169                 3.1321
 Frc consts  --      0.3883                 1.4561                 1.0577
 IR Inten    --      1.1736                 1.2159                11.0866

                     22                     23                     24
                      A                      A                      A
 Frequencies --    763.8666               807.8267               811.8088
 Red. masses --     10.3433                 1.6596                 2.0935
 Frc consts  --      3.5558                 0.6381                 0.8129
 IR Inten    --     29.3228                45.7813                89.0007

                     25                     26                     27
                      A                      A                      A
 Frequencies --    854.8130               895.7276               914.3642
 Red. masses --      3.1194                 2.2540                 1.7682
 Frc consts  --      1.3430                 1.0655                 0.8710
 IR Inten    --      6.4198                 3.6307                17.7669

                     28                     29                     30
                      A                      A                      A
 Frequencies --    974.7688               987.6232              1021.6241
 Red. masses --      2.3433                 1.5308                 2.0642
 Frc consts  --      1.3119                 0.8798                 1.2694
 IR Inten    --      6.7862                 5.8147                10.6537

                     31                     32                     33
                      A                      A                      A
 Frequencies --   1024.2226              1041.9139              1062.8131
 Red. masses --      2.2011                 1.7623                 1.7042
 Frc consts  --      1.3604                 1.1272                 1.1342
 IR Inten    --     11.1503                 4.3483                20.5300

                     34                     35                     36
                      A                      A                      A
 Frequencies --   1123.6572              1134.1535              1166.1052
 Red. masses --      5.6332                 2.4343                 2.6015
 Frc consts  --      4.1906                 1.8449                 2.0842
 IR Inten    --    114.4905                 6.0232                 3.2199

                     37                     38                     39
                      A                      A                      A
 Frequencies --   1189.9520              1190.6680              1220.1526
 Red. masses --      1.2661                 1.4103                 1.5252
 Frc consts  --      1.0563                 1.1780                 1.3378
 IR Inten    --      0.8776                16.7666                35.2891

                     40                     41                     42
                      A                      A                      A
 Frequencies --   1220.9133              1238.2084              1296.5952
 Red. masses --      2.1849                 2.0035                 1.5797
 Frc consts  --      1.9189                 1.8098                 1.5647
 IR Inten    --     14.7559                17.3934                 9.4566

                     43                     44                     45
                      A                      A                      A
 Frequencies --   1318.9921              1357.2374              1369.9012
 Red. masses --      1.5089                 1.4579                 1.4103
 Frc consts  --      1.5466                 1.5823                 1.5593
 IR Inten    --     60.8234                20.2110                 3.6981

                     46                     47                     48
                      A                      A                      A
 Frequencies --   1383.3102              1390.8567              1409.9862
 Red. masses --      1.3470                 2.5189                 1.5521
 Frc consts  --      1.5187                 2.8710                 1.8181
 IR Inten    --     25.0646               304.8150                41.6035

                     49                     50                     51
                      A                      A                      A
 Frequencies --   1422.6405              1436.9432              1478.2542
 Red. masses --      1.3162                 1.2713                 1.3692
 Frc consts  --      1.5695                 1.5467                 1.7629
 IR Inten    --      3.5813                22.5928                10.3604

                     52                     53                     54
                      A                      A                      A
 Frequencies --   1496.7278              1500.7791              1510.9793
 Red. masses --      1.1416                 1.1934                 1.0856
 Frc consts  --      1.5068                 1.5837                 1.4602
 IR Inten    --     18.0917                28.1493                 3.2782

                     55                     56                     57
                      A                      A                      A
 Frequencies --   1511.6428              1515.6368              1518.0890
 Red. masses --      1.0490                 1.1366                 1.1147
 Frc consts  --      1.4123                 1.5384                 1.5136
 IR Inten    --      4.7508                 6.2935                17.4847

                     58                     59                     60
                      A                      A                      A
 Frequencies --   1523.0079              1527.3223              1532.1697
 Red. masses --      1.1050                 1.0957                 1.0925
 Frc consts  --      1.5102                 1.5060                 1.5111
 IR Inten    --      9.9163                 5.8462                 3.6694

                     61                     62                     63
                      A                      A                      A
 Frequencies --   1537.6318              1822.5565              3027.0761
 Red. masses --      1.0762                 8.5577                 1.0635
 Frc consts  --      1.4992                16.7482                 5.7417
 IR Inten    --     16.4807               509.2106                28.3904

                     64                     65                     66
                      A                      A                      A
 Frequencies --   3036.6424              3042.9029              3054.7850
 Red. masses --      1.0700                 1.0648                 1.0392
 Frc consts  --      5.8133                 5.8090                 5.7137
 IR Inten    --     21.1799                28.3322                33.8647

                     67                     68                     69
                      A                      A                      A
 Frequencies --   3055.7994              3074.5701              3075.7375
 Red. masses --      1.0607                 1.0966                 1.0292
 Frc consts  --      5.8357                 6.1073                 5.7367
 IR Inten    --     36.0095                34.6053                43.3923

                     70                     71                     72
                      A                      A                      A
 Frequencies --   3093.2995              3098.7260              3118.4166
 Red. masses --      1.1025                 1.1049                 1.1021
 Frc consts  --      6.2155                 6.2506                 6.3143
 IR Inten    --     46.2960                40.2952                38.0580

                     73                     74                     75
                      A                      A                      A
 Frequencies --   3127.2798              3150.7848              3150.9064
 Red. masses --      1.0928                 1.1005                 1.1073
 Frc consts  --      6.2968                 6.4367                 6.4772
 IR Inten    --     15.5320                17.2537                20.7889

                     76                     77                     78
                      A                      A                      A
 Frequencies --   3176.5365              3461.5865              3632.7880
 Red. masses --      1.1074                 1.0735                 1.0763
 Frc consts  --      6.5833                 7.5786                 8.3692
 IR Inten    --     17.8560                 3.1468                26.7309

 - Thermochemistry -
 -------------------
 Temperature   298.150 Kelvin.  Pressure   1.00000 Atm.
 Atom     1 has atomic number  6 and mass  12.00000

 Molecular mass:   172.12118 amu.
 Principal axes and moments of inertia in atomic units:
                           1         2         3
     Eigenvalues --  1138.391803046.517163106.50420
           X            0.99978  -0.00782  -0.01964
           Y            0.00901   0.99809   0.06104
           Z            0.01913  -0.06121   0.99794
 This molecule is an asymmetric top.
 Rotational symmetry number  1.
 Warning -- assumption of classical behavior for rotation
           may cause significant error
 Rotational temperatures (Kelvin)      0.07608     0.02843     0.02788
 Rotational constants (GHZ):           1.58534     0.59239     0.58096
 Zero-point vibrational energy     653254.8 (Joules/Mol)
                                  156.13164 (Kcal/Mol)
 Warning -- explicit consideration of  19 degrees of freedom as
           vibrations may cause significant error
 Vibrational temperatures:     67.70    81.95   171.35   194.71   209.60
          (Kelvin)            270.67   298.52   362.01   419.98   437.85
                              460.85   513.68   577.43   584.37   679.15
                              697.92   739.79   785.55   875.32  1030.57
                             1089.25  1099.03  1162.28  1168.01  1229.89
                             1288.75  1315.57  1402.47  1420.97  1469.89
                             1473.63  1499.08  1529.15  1616.69  1631.79
                             1677.77  1712.08  1713.11  1755.53  1756.62
                             1781.51  1865.51  1897.74  1952.76  1970.98
                             1990.27  2001.13  2028.66  2046.86  2067.44
                             2126.88  2153.46  2159.29  2173.96  2174.92
                             2180.66  2184.19  2191.27  2197.48  2204.45
                             2212.31  2622.25  4355.29  4369.05  4378.06
                             4395.15  4396.61  4423.62  4425.30  4450.57
                             4458.38  4486.71  4499.46  4533.28  4533.45
                             4570.33  4980.45  5226.77

 Zero-point correction=                           0.248812 (Hartree/Particle)
 Thermal correction to Energy=                    0.261272
 Thermal correction to Enthalpy=                  0.262216
 Thermal correction to Gibbs Free Energy=         0.210252
 Sum of electronic and zero-point Energies=           -574.250864
 Sum of electronic and thermal Energies=              -574.238404
 Sum of electronic and thermal Enthalpies=            -574.237460
 Sum of electronic and thermal Free Energies=         -574.289424

                     E (Thermal)             CV                S
                      KCal/Mol        Cal/Mol-Kelvin    Cal/Mol-Kelvin
 Total                  163.951             47.356            109.368
 Electronic               0.000              0.000              0.000
 Translational            0.889              2.981             41.337
 Rotational               0.889              2.981             30.755
 Vibrational            162.173             41.395             37.276
 Vibration     1          0.595              1.979              4.937
 Vibration     2          0.596              1.975              4.560
 Vibration     3          0.609              1.933              3.115
 Vibration     4          0.613              1.918              2.869
 Vibration     5          0.617              1.907              2.728
 Vibration     6          0.633              1.856              2.246
 Vibration     7          0.641              1.829              2.066
 Vibration     8          0.664              1.760              1.719
 Vibration     9          0.687              1.689              1.463
 Vibration    10          0.695              1.666              1.393
 Vibration    11          0.706              1.635              1.309
 Vibration    12          0.732              1.561              1.135
 Vibration    13          0.767              1.467              0.958
 Vibration    14          0.771              1.457              0.940
 Vibration    15          0.829              1.312              0.732
 Vibration    16          0.841              1.283              0.696
 Vibration    17          0.869              1.219              0.624
 Vibration    18          0.901              1.148              0.553
 Vibration    19          0.967              1.014              0.435

                           ! Non-Optimized Parameters !
 Normal termination of Gaussian 16 at Wed Dec  9 16:57:44 2020.

 ----------------------------------------------------------------------
 # B3LYP/6-311++G(d,p) empiricaldispersion=gd3bj scf=xqc pop=npa geom=c
 heck
 ----------------------------------------------------------------------

 ---------------------------------------
 CID_114696679_JID_2155_Energie_neutraal
 ---------------------------------------
 Structure from the checkpoint file:  "JID_2155.chk"
 Charge =  0 Multiplicity = 1

 SCF Done:  E(RB3LYP) =  -574.672825962     A.U. after   13 cycles
 Normal termination of Gaussian 16 at Wed Dec  9 17:00:22 2020.

 ----------------------------------------------------------------------
 # B3LYP/6-311++G(d,p) empiricaldispersion=gd3bj scf=xqc pop=npa geom=c
 heck
 ----------------------------------------------------------------------

 -------------------------------------
 CID_114696679_JID_2155_Energie_kation
 -------------------------------------
 Structure from the checkpoint file:  "JID_2155.chk"
 Charge =  1 Multiplicity = 2

 SCF Done:  E(UB3LYP) =  -574.368204229     A.U. after   23 cycles
 Normal termination of Gaussian 16 at Wed Dec  9 17:06:58 2020.
 Gaussian 16:  ES64L-G16RevA.03 25-Dec-2016

 ----------------------------------------------------------------------
 # B3LYP/6-311++G(d,p) empiricaldispersion=gd3bj scf=xqc pop=npa geom=c
 heck
 ----------------------------------------------------------------------

 ------------------------------------
 CID_114696679_JID_2155_Energie_anion
 ------------------------------------
 Structure from the checkpoint file:  "JID_2155.chk"
 Charge = -1 Multiplicity = 2

                         Standard orientation:
 ---------------------------------------------------------------------
 Center     Atomic      Atomic             Coordinates (Angstroms)
 Number     Number       Type             X           Y           Z
 ---------------------------------------------------------------------
      1          6           0        0.006094    2.067316   -0.867950
      2          6           0       -0.554395    0.789699   -0.228315
      3          6           0       -0.813571   -0.298686   -1.295314
      4          6           0       -1.530741   -1.520807   -0.706333
      5          7           0       -2.788541   -1.202247   -0.022799
      6          6           0       -2.595525   -0.172229    0.997863
      7          6           0       -1.891112    1.095488    0.482141
      8          7           0        0.361521    0.291600    0.820028
      9          6           0        1.668644   -0.090043    0.733035
     10          8           0        2.368871   -0.349104    1.696428
     11          8           0        2.103289   -0.166901   -0.555087
     12          6           0        3.465864   -0.588475   -0.692025
     13          1           0        0.962889    1.866630   -1.355926
     14          1           0       -0.691166    2.456252   -1.618276
     15          1           0        0.158482    2.839957   -0.105898
     16          1           0       -1.441088    0.146303   -2.080289
     17          1           0        0.130769   -0.590333   -1.762053
     18          1           0       -0.873341   -2.011825    0.021744
     19          1           0       -1.741058   -2.253360   -1.493346
     20          1           0       -3.457267   -0.858106   -0.712414
     21          1           0       -2.011784   -0.622384    1.811740
     22          1           0       -3.571626    0.089277    1.421460
     23          1           0       -1.720224    1.808104    1.302093
     24          1           0       -2.544866    1.600771   -0.240053
     25          1           0        0.076379    0.413051    1.781195
     26          1           0        4.138758    0.105547   -0.182174
     27          1           0        3.605190   -1.588065   -0.272498
     28          1           0        3.660257   -0.592820   -1.765254
 ---------------------------------------------------------------------

 SCF Done:  E(UB3LYP) =  -574.659121374     A.U. after   30 cycles

 The electronic state is 2-A.
 Alpha  occ. eigenvalues --  -19.06699 -18.99647 -14.23563 -14.19286 -10.21986
 Alpha  occ. eigenvalues --  -10.12632 -10.12351 -10.09126 -10.08609 -10.06898
 Alpha  occ. eigenvalues --  -10.05859 -10.05653  -1.01129  -0.91766  -0.83773
 Alpha  occ. eigenvalues --   -0.80423  -0.69618  -0.65343  -0.62677  -0.60015
 Alpha  occ. eigenvalues --   -0.53240  -0.52132  -0.49799  -0.47566  -0.42558
 Alpha  occ. eigenvalues --   -0.40907  -0.39064  -0.37029  -0.35750  -0.34667
 Alpha  occ. eigenvalues --   -0.34440  -0.33631  -0.33298  -0.32018  -0.29922
 Alpha  occ. eigenvalues --   -0.29048  -0.28549  -0.27095  -0.26432  -0.25993
 Alpha  occ. eigenvalues --   -0.24950  -0.23547  -0.21501  -0.20800  -0.18559
 Alpha  occ. eigenvalues --   -0.16139  -0.12268   0.04454
 Alpha virt. eigenvalues --    0.06285   0.07527   0.08027   0.08733   0.09648
 Alpha virt. eigenvalues --    0.10110   0.10511   0.10722   0.11629   0.12010
 Alpha virt. eigenvalues --    0.12278   0.13142   0.13792   0.14230   0.14860

  Beta  occ. eigenvalues --  -19.06693 -18.99643 -14.23549 -14.19263 -10.21986
  Beta  occ. eigenvalues --  -10.12597 -10.12352 -10.09108 -10.08598 -10.06866
  Beta  occ. eigenvalues --  -10.05836 -10.05626  -1.01119  -0.91756  -0.83752
  Beta  occ. eigenvalues --   -0.80380  -0.69587  -0.65302  -0.62625  -0.59966
  Beta  occ. eigenvalues --   -0.53181  -0.52080  -0.49736  -0.47521  -0.42532
  Beta  occ. eigenvalues --   -0.40864  -0.39043  -0.36986  -0.35701  -0.34637
  Beta  occ. eigenvalues --   -0.34401  -0.33585  -0.33276  -0.31990  -0.29878
  Beta  occ. eigenvalues --   -0.29012  -0.28509  -0.27065  -0.26397  -0.25951
  Beta  occ. eigenvalues --   -0.24899  -0.23510  -0.21469  -0.20787  -0.18551
  Beta  occ. eigenvalues --   -0.16122  -0.12221
  Beta virt. eigenvalues --    0.06764   0.07419   0.08312   0.08562   0.09314
  Beta virt. eigenvalues --    0.10345   0.10587   0.10857   0.11125   0.12206
  Beta virt. eigenvalues --    0.12322   0.12686   0.13301   0.14216   0.14427

 Mulliken charges and spin densities:
               1          2
     1  C    1.542838  -1.850576
     2  C   -1.016170   1.559797
     3  C    0.257761  -0.679581
     4  C    0.645795  -1.270572
     5  N   -0.371598   0.283572
     6  C    0.597838  -1.176610
     7  C   -0.805784   0.304844
     8  N   -0.297891  -0.095568
     9  C    0.189824  -0.030254
    10  O   -0.327401   0.015126
    11  O   -0.143760   0.034526
    12  C    0.740785  -0.996141
    13  H   -0.223612   0.371083
    14  H   -0.059610   0.206323
    15  H   -0.167755   0.321477
    16  H   -0.555455   0.734446
    17  H    0.233862  -0.074786
    18  H    0.149309   0.024621
    19  H   -0.173435   0.354139
    20  H    0.005181   0.234657
    21  H    0.171796  -0.031172
    22  H   -0.563665   0.757785
    23  H   -0.140911   0.297319
    24  H   -0.316544   0.494277
    25  H    0.241286   0.103220
    26  H   -0.122267   0.298528
    27  H   -0.061263   0.232491
    28  H   -0.429156   0.577027
 Sum of Mulliken charges =  -1.00000   1.00000

 Dipole moment (field-independent basis, Debye):
    X=              2.2877    Y=             -1.0664    Z=              1.9631  Tot=              3.1976
 Quadrupole moment (field-independent basis, Debye-Ang):
   XX=           -146.6158   YY=           -110.1123   ZZ=           -115.5476
   XY=              2.7818   XZ=             -1.8778   YZ=              1.2210

 Summary of Natural Population Analysis:

                                       Natural Population
                Natural  -----------------------------------------------
    Atom  No    Charge         Core      Valence    Rydberg      Total
 -----------------------------------------------------------------------
      C    1   -0.28827      0.99961     2.28176    0.00691     3.28827
      C    2    0.06286      0.99955     1.92296    0.01463     2.93714
      C    3   -0.20595      0.99957     2.19608    0.01030     3.20595
      C    4   -0.08929      0.99962     2.07780    0.01186     3.08929
      N    5   -0.33597      0.99976     2.82355    0.01267     3.83597
      C    6   -0.08890      0.99962     2.07671    0.01256     3.08890
      C    7   -0.20315      0.99958     2.19267    0.01090     3.20315
      N    8   -0.33375      0.99964     2.82312    0.01100     3.83375
      C    9    0.46564      0.99969     1.51088    0.02379     2.53436
      O   10   -0.33658      0.99987     3.33131    0.00539     4.33658
      O   11   -0.28805      0.99987     3.27973    0.00846     4.28805
      C   12   -0.10072      0.99959     2.09196    0.00917     3.10072
      H   13    0.10792      0.00000     0.39057    0.00151     0.39208
      H   14    0.10317      0.00000     0.39552    0.00131     0.39683
      H   15    0.09946      0.00000     0.39941    0.00114     0.40054
      H   16    0.10042      0.00000     0.39740    0.00218     0.39958
      H   17    0.11136      0.00000     0.38694    0.00170     0.38864
      H   18    0.09054      0.00000     0.40793    0.00153     0.40946
      H   19    0.09588      0.00000     0.40322    0.00090     0.40412
      H   20    0.17103      0.00000     0.32571    0.00326     0.32897
      H   21    0.08621      0.00000     0.41234    0.00145     0.41379
      H   22    0.09856      0.00000     0.40021    0.00123     0.40144
      H   23    0.10002      0.00000     0.39846    0.00152     0.39998
      H   24    0.10665      0.00000     0.39044    0.00291     0.39335
      H   25    0.19731      0.00000     0.30055    0.00214     0.30269
      H   26    0.09076      0.00000     0.40814    0.00110     0.40924
      H   27    0.09006      0.00000     0.40892    0.00103     0.40994
      H   28    0.09278      0.00000     0.40576    0.00146     0.40722
 =======================================================================
   * Total *   -0.00000     11.99598    34.84002    0.16400    47.00000

 Normal termination of Gaussian 16 at Wed Dec  9 17:16:34 2020.
