 Gaussian 16, Revision A.03,

 -----------------------------------------------------------
 # opt freq B3LYP/6-31G(d) empiricaldispersion=gd3bj scf=xqc
 -----------------------------------------------------------

 ------------------------------
 CID_76945880_JID_6067_neutraal
 ------------------------------
 Symbolic Z-matrix:
 Charge =  0 Multiplicity = 1

 SCF Done:  E(RB3LYP) =  -731.745896153     A.U. after   14 cycles
 SCF Done:  E(RB3LYP) =  -731.750405249     A.U. after   12 cycles
 SCF Done:  E(RB3LYP) =  -731.748830892     A.U. after   12 cycles
 SCF Done:  E(RB3LYP) =  -731.748748385     A.U. after   12 cycles
 SCF Done:  E(RB3LYP) =  -731.745211765     A.U. after   12 cycles
 SCF Done:  E(RB3LYP) =  -731.750576841     A.U. after    9 cycles
 SCF Done:  E(RB3LYP) =  -731.751893449     A.U. after   11 cycles
 SCF Done:  E(RB3LYP) =  -731.752377800     A.U. after   11 cycles
 SCF Done:  E(RB3LYP) =  -731.752758990     A.U. after   11 cycles
 SCF Done:  E(RB3LYP) =  -731.752759278     A.U. after   11 cycles
 SCF Done:  E(RB3LYP) =  -731.753012362     A.U. after   10 cycles
 SCF Done:  E(RB3LYP) =  -731.753014245     A.U. after    8 cycles
 SCF Done:  E(RB3LYP) =  -731.753014383     A.U. after    8 cycles
 SCF Done:  E(RB3LYP) =  -731.753014594     A.U. after    8 cycles
 SCF Done:  E(RB3LYP) =  -731.753014626     A.U. after    6 cycles
 Optimization completed.
    -- Stationary point found.
 Normal termination of Gaussian 16 at Thu Dec 10 21:22:19 2020.

 --------------------------------------------------------------------
 #N Geom=AllCheck Guess=TCheck SCRF=Check GenChk RB3LYP/6-31G(d) Freq
 --------------------------------------------------------------------

 Structure from the checkpoint file:  "JID_6067.chk"
 ------------------------------
 CID_76945880_JID_6067_neutraal
 ------------------------------
 Charge =  0 Multiplicity = 1

 SCF Done:  E(RB3LYP) =  -731.753014626     A.U. after    1 cycles

  Exact polarizability: 163.409  -5.828 136.265   0.552   0.066 126.812
 Approx polarizability: 213.164 -12.095 202.587   3.779   0.013 187.613

                      1                      2                      3
                      A                      A                      A
 Frequencies --     23.3498                56.5681                78.8379
 Red. masses --      4.2578                 3.3332                 3.6058
 Frc consts  --      0.0014                 0.0063                 0.0132
 IR Inten    --      0.0241                 0.4897                 0.8382

                      4                      5                      6
                      A                      A                      A
 Frequencies --     90.2356                94.5256               123.9480
 Red. masses --      3.4376                 3.3118                 3.9784
 Frc consts  --      0.0165                 0.0174                 0.0360
 IR Inten    --      0.2555                 0.3657                 0.8932

                      7                      8                      9
                      A                      A                      A
 Frequencies --    171.0212               185.3846               205.9782
 Red. masses --      3.0132                 3.9875                 2.9983
 Frc consts  --      0.0519                 0.0807                 0.0749
 IR Inten    --      1.3602                 2.3637                 2.3260

                     10                     11                     12
                      A                      A                      A
 Frequencies --    232.3077               248.8629               260.5340
 Red. masses --      1.0978                 2.0264                 1.8847
 Frc consts  --      0.0349                 0.0739                 0.0754
 IR Inten    --      2.0114                 4.9472                 6.1397

                     13                     14                     15
                      A                      A                      A
 Frequencies --    266.5295               286.1959               296.0238
 Red. masses --      1.2799                 1.7376                 1.7454
 Frc consts  --      0.0536                 0.0839                 0.0901
 IR Inten    --      5.3308                 1.3044                 8.5913

                     16                     17                     18
                      A                      A                      A
 Frequencies --    307.5180               313.3428               330.3511
 Red. masses --      1.6977                 1.3676                 1.8361
 Frc consts  --      0.0946                 0.0791                 0.1181
 IR Inten    --     14.6678                31.6668                 7.4538

                     19                     20                     21
                      A                      A                      A
 Frequencies --    347.1105               364.1174               368.9165
 Red. masses --      1.9855                 2.0206                 2.5245
 Frc consts  --      0.1409                 0.1578                 0.2024
 IR Inten    --     28.2653                50.0251                13.1812

                     22                     23                     24
                      A                      A                      A
 Frequencies --    399.2256               408.7396               425.8147
 Red. masses --      2.5217                 2.5985                 2.6003
 Frc consts  --      0.2368                 0.2558                 0.2778
 IR Inten    --     44.6325                 5.8992                 0.6383

                     25                     26                     27
                      A                      A                      A
 Frequencies --    438.1772               493.6099               532.0292
 Red. masses --      3.2394                 3.6669                 2.2556
 Frc consts  --      0.3664                 0.5264                 0.3762
 IR Inten    --     15.1305                12.2270                 1.7722

                     28                     29                     30
                      A                      A                      A
 Frequencies --    582.1083               637.1375               661.9102
 Red. masses --      2.3749                 3.4473                 1.5525
 Frc consts  --      0.4741                 0.8245                 0.4007
 IR Inten    --      4.2814                 9.8502                22.1252

                     31                     32                     33
                      A                      A                      A
 Frequencies --    684.3618               748.9210               783.1688
 Red. masses --      1.8500                 3.7391                 2.9100
 Frc consts  --      0.5105                 1.2356                 1.0516
 IR Inten    --     21.5377                28.1774                 1.0273

                     34                     35                     36
                      A                      A                      A
 Frequencies --    802.6574               823.6290               852.0117
 Red. masses --      3.7949                 1.7822                 2.2467
 Frc consts  --      1.4405                 0.7123                 0.9609
 IR Inten    --      4.7032                 7.1188                18.0515

                     37                     38                     39
                      A                      A                      A
 Frequencies --    870.3179               886.2759               903.6919
 Red. masses --      2.3392                 1.8655                 1.7566
 Frc consts  --      1.0439                 0.8634                 0.8452
 IR Inten    --     16.9349                 7.2899                63.2345

                     40                     41                     42
                      A                      A                      A
 Frequencies --    919.6197               947.4976               949.2669
 Red. masses --      2.3702                 1.9695                 1.6797
 Frc consts  --      1.1810                 1.0418                 0.8918
 IR Inten    --      1.2302                22.0446                 8.1662

                     43                     44                     45
                      A                      A                      A
 Frequencies --    954.0132               975.8730               978.8477
 Red. masses --      1.6441                 1.4638                 1.5957
 Frc consts  --      0.8816                 0.8214                 0.9008
 IR Inten    --      1.0768                29.2661                13.7830

                     46                     47                     48
                      A                      A                      A
 Frequencies --    999.7519              1014.9310              1048.2912
 Red. masses --      2.0087                 1.5759                 1.9950
 Frc consts  --      1.1829                 0.9564                 1.2917
 IR Inten    --     25.7387                 3.9171                 3.1182

                     49                     50                     51
                      A                      A                      A
 Frequencies --   1053.9157              1069.0185              1078.5142
 Red. masses --      1.3420                 1.4709                 1.4517
 Frc consts  --      0.8783                 0.9904                 0.9949
 IR Inten    --      1.6352                24.2034                 0.7961

                     52                     53                     54
                      A                      A                      A
 Frequencies --   1092.4415              1106.1682              1118.9440
 Red. masses --      4.6696                 1.8910                 2.4997
 Frc consts  --      3.2835                 1.3633                 1.8440
 IR Inten    --    112.1940                24.4453                 6.3233

                     55                     56                     57
                      A                      A                      A
 Frequencies --   1162.1595              1188.2675              1211.6010
 Red. masses --      1.9297                 1.6165                 1.6702
 Frc consts  --      1.5356                 1.3448                 1.4446
 IR Inten    --      5.4169                 3.5289                24.9024

                     58                     59                     60
                      A                      A                      A
 Frequencies --   1236.1009              1250.2050              1261.3277
 Red. masses --      1.8809                 1.7558                 1.4684
 Frc consts  --      1.6932                 1.6169                 1.3764
 IR Inten    --     39.4071                14.1075                12.4426

                     61                     62                     63
                      A                      A                      A
 Frequencies --   1267.6412              1276.0344              1280.3632
 Red. masses --      1.4359                 2.6079                 1.5304
 Frc consts  --      1.3594                 2.5018                 1.4781
 IR Inten    --     10.7653                10.8238                 3.8444

                     64                     65                     66
                      A                      A                      A
 Frequencies --   1288.8521              1329.8803              1336.5178
 Red. masses --      2.3918                 1.9772                 1.3596
 Frc consts  --      2.3409                 2.0603                 1.4309
 IR Inten    --      4.5881                72.2525                14.8822

                     67                     68                     69
                      A                      A                      A
 Frequencies --   1359.9555              1364.7553              1373.5629
 Red. masses --      1.2806                 1.3875                 1.5176
 Frc consts  --      1.3955                 1.5226                 1.6870
 IR Inten    --      2.4420                 2.4631                 4.1587

                     70                     71                     72
                      A                      A                      A
 Frequencies --   1392.6387              1404.5753              1418.8002
 Red. masses --      1.3094                 1.4370                 1.2463
 Frc consts  --      1.4962                 1.6703                 1.4782
 IR Inten    --      9.9830                46.7836                10.0484

                     73                     74                     75
                      A                      A                      A
 Frequencies --   1423.9211              1436.9728              1447.6095
 Red. masses --      1.2495                 1.2549                 1.8272
 Frc consts  --      1.4926                 1.5267                 2.2559
 IR Inten    --      2.9446                54.9734                58.3635

                     76                     77                     78
                      A                      A                      A
 Frequencies --   1453.5615              1498.0677              1509.7605
 Red. masses --      1.2304                 1.5852                 1.0489
 Frc consts  --      1.5317                 2.0960                 1.4087
 IR Inten    --     13.7233                58.3831                 2.8346

                     79                     80                     81
                      A                      A                      A
 Frequencies --   1518.5281              1520.7461              1521.8079
 Red. masses --      1.0789                 1.0885                 1.0691
 Frc consts  --      1.4659                 1.4832                 1.4588
 IR Inten    --      2.2891                 2.1935                 1.7130

                     82                     83                     84
                      A                      A                      A
 Frequencies --   1523.9832              1528.6560              1529.2510
 Red. masses --      1.0759                 1.0524                 1.0801
 Frc consts  --      1.4722                 1.4489                 1.4882
 IR Inten    --      3.7305                 1.2265                 3.6797

                     85                     86                     87
                      A                      A                      A
 Frequencies --   1532.5016              1541.9524              1545.9672
 Red. masses --      1.0580                 1.0573                 1.1038
 Frc consts  --      1.4640                 1.4811                 1.5544
 IR Inten    --      4.7129                 4.9879                 7.9742

                     88                     89                     90
                      A                      A                      A
 Frequencies --   1560.2167              1696.1191              1749.4051
 Red. masses --      1.0561                 1.0947                 6.6688
 Frc consts  --      1.5146                 1.8555                12.0248
 IR Inten    --     14.4890                42.7374               338.2653

                     91                     92                     93
                      A                      A                      A
 Frequencies --   3025.2765              3035.0179              3045.3794
 Red. masses --      1.0679                 1.0399                 1.0685
 Frc consts  --      5.7583                 5.6436                 5.8385
 IR Inten    --     31.4898                24.2671                31.4418

                     94                     95                     96
                      A                      A                      A
 Frequencies --   3047.5519              3051.8782              3056.0412
 Red. masses --      1.0374                 1.0735                 1.0443
 Frc consts  --      5.6766                 5.8912                 5.7464
 IR Inten    --     25.4753                30.9733                36.1825

                     97                     98                     99
                      A                      A                      A
 Frequencies --   3056.9269              3060.6314              3096.3724
 Red. masses --      1.0687                 1.0623                 1.0984
 Frc consts  --      5.8842                 5.8628                 6.2045
 IR Inten    --     28.2876                43.7889                20.8260

                    100                    101                    102
                      A                      A                      A
 Frequencies --   3105.0966              3107.3154              3111.7492
 Red. masses --      1.0955                 1.0994                 1.1013
 Frc consts  --      6.2232                 6.2540                 6.2830
 IR Inten    --     52.7759                49.2328                48.3057

                    103                    104                    105
                      A                      A                      A
 Frequencies --   3112.8518              3117.0665              3127.5064
 Red. masses --      1.0982                 1.0985                 1.1003
 Frc consts  --      6.2695                 6.2886                 6.3407
 IR Inten    --     19.6690                31.0597                13.4637

                    106                    107                    108
                      A                      A                      A
 Frequencies --   3129.4107              3136.4772              3139.0704
 Red. masses --      1.0858                 1.0920                 1.0997
 Frc consts  --      6.2652                 6.3294                 6.3846
 IR Inten    --     52.8622                11.4079                17.9488

                    109                    110                    111
                      A                      A                      A
 Frequencies --   3144.1181              3161.4127              3463.4350
 Red. masses --      1.0898                 1.1006                 1.0495
 Frc consts  --      6.3475                 6.4807                 7.4172
 IR Inten    --     16.7928                 7.8179                 3.2852

                    112                    113                    114
                      A                      A                      A
 Frequencies --   3548.9041              3550.4161              3737.4252
 Red. masses --      1.0921                 1.0750                 1.0657
 Frc consts  --      8.1040                 7.9838                 8.7705
 IR Inten    --      3.2623                56.1668                11.8034

 - Thermochemistry -
 -------------------
 Temperature   298.150 Kelvin.  Pressure   1.00000 Atm.
 Atom     1 has atomic number  6 and mass  12.00000

 Molecular mass:   228.18378 amu.
 Principal axes and moments of inertia in atomic units:
                           1         2         3
     Eigenvalues --  2317.785124935.378685670.66565
           X            0.99994  -0.00622  -0.00928
           Y            0.00623   0.99998   0.00127
           Z            0.00927  -0.00133   0.99996
 This molecule is an asymmetric top.
 Rotational symmetry number  1.
 Warning -- assumption of classical behavior for rotation
           may cause significant error
 Rotational temperatures (Kelvin)      0.03737     0.01755     0.01527
 Rotational constants (GHZ):           0.77865     0.36567     0.31826
 Zero-point vibrational energy     951044.0 (Joules/Mol)
                                  227.30497 (Kcal/Mol)
 Warning -- explicit consideration of  28 degrees of freedom as
           vibrations may cause significant error
 Vibrational temperatures:     33.60    81.39   113.43   129.83   136.00
          (Kelvin)            178.33   246.06   266.73   296.36   334.24
                              358.06   374.85   383.48   411.77   425.91
                              442.45   450.83   475.30   499.41   523.88
                              530.79   574.40   588.09   612.65   630.44
                              710.19   765.47   837.52   916.70   952.34
                              984.64  1077.53  1126.81  1154.84  1185.02
                             1225.85  1252.19  1275.15  1300.21  1323.13
                             1363.24  1365.78  1372.61  1404.06  1408.34
                             1438.42  1460.26  1508.26  1516.35  1538.08
                             1551.74  1571.78  1591.53  1609.91  1672.09
                             1709.65  1743.22  1778.47  1798.77  1814.77
                             1823.85  1835.93  1842.16  1854.37  1913.40
                             1922.95  1956.67  1963.58  1976.25  2003.70
                             2020.87  2041.34  2048.70  2067.48  2082.79
                             2091.35  2155.39  2172.21  2184.82  2188.01
                             2189.54  2192.67  2199.40  2200.25  2204.93
                             2218.53  2224.30  2244.80  2440.34  2517.00
                             4352.70  4366.71  4381.62  4384.75  4390.97
                             4396.96  4398.24  4403.57  4454.99  4467.54
                             4470.73  4477.11  4478.70  4484.76  4499.78
                             4502.52  4512.69  4516.42  4523.68  4548.57
                             4983.11  5106.08  5108.26  5377.32

 Zero-point correction=                           0.362234 (Hartree/Particle)
 Thermal correction to Energy=                    0.380073
 Thermal correction to Enthalpy=                  0.381017
 Thermal correction to Gibbs Free Energy=         0.317511
 Sum of electronic and zero-point Energies=           -731.390781
 Sum of electronic and thermal Energies=              -731.372942
 Sum of electronic and thermal Enthalpies=            -731.371997
 Sum of electronic and thermal Free Energies=         -731.435504

                     E (Thermal)             CV                S
                      KCal/Mol        Cal/Mol-Kelvin    Cal/Mol-Kelvin
 Total                  238.499             69.446            133.661
 Electronic               0.000              0.000              0.000
 Translational            0.889              2.981             42.177
 Rotational               0.889              2.981             32.539
 Vibrational            236.722             63.484             58.944
 Vibration     1          0.593              1.985              6.327
 Vibration     2          0.596              1.975              4.573
 Vibration     3          0.600              1.963              3.920
 Vibration     4          0.602              1.956              3.655
 Vibration     5          0.603              1.953              3.564
 Vibration     6          0.610              1.929              3.038
 Vibration     7          0.626              1.878              2.424
 Vibration     8          0.631              1.860              2.273
 Vibration     9          0.640              1.831              2.079
 Vibration    10          0.653              1.792              1.861
 Vibration    11          0.662              1.765              1.739
 Vibration    12          0.669              1.745              1.658
 Vibration    13          0.672              1.735              1.619
 Vibration    14          0.684              1.699              1.496
 Vibration    15          0.690              1.681              1.439
 Vibration    16          0.697              1.659              1.376
 Vibration    17          0.701              1.648              1.345
 Vibration    18          0.713              1.615              1.258
 Vibration    19          0.725              1.581              1.179
 Vibration    20          0.738              1.546              1.104
 Vibration    21          0.741              1.536              1.084
 Vibration    22          0.765              1.472              0.965
 Vibration    23          0.773              1.451              0.931
 Vibration    24          0.788              1.414              0.872
 Vibration    25          0.798              1.387              0.832
 Vibration    26          0.849              1.264              0.674
 Vibration    27          0.887              1.179              0.583
 Vibration    28          0.939              1.070              0.481

 Optimization completed.
    -- Stationary point found.
 Normal termination of Gaussian 16 at Thu Dec 10 21:38:20 2020.

 ----------------------------------------------------------------------
 # B3LYP/6-311++G(d,p) empiricaldispersion=gd3bj scf=xqc pop=npa geom=c
 heck
 ----------------------------------------------------------------------

 --------------------------------------
 CID_76945880_JID_6067_Energie_neutraal
 --------------------------------------
 Structure from the checkpoint file:  "JID_6067.chk"
 Charge =  0 Multiplicity = 1

 SCF Done:  E(RB3LYP) =  -731.979696195     A.U. after   15 cycles
 Normal termination of Gaussian 16 at Thu Dec 10 21:45:35 2020.

 ----------------------------------------------------------------------
 # B3LYP/6-311++G(d,p) empiricaldispersion=gd3bj scf=xqc pop=npa geom=c
 heck
 ----------------------------------------------------------------------

 ------------------------------------
 CID_76945880_JID_6067_Energie_kation
 ------------------------------------
 Structure from the checkpoint file:  "JID_6067.chk"
 Charge =  1 Multiplicity = 2

 SCF Done:  E(UB3LYP) =  -731.671365218     A.U. after   33 cycles
 SCF Done:  E(UB3LYP) =  -731.671365218     a.u. after    1 cycles
 Normal termination of Gaussian 16 at Thu Dec 10 22:11:43 2020.
 Gaussian 16:  ES64L-G16RevA.03 25-Dec-2016

 ----------------------------------------------------------------------
 # B3LYP/6-311++G(d,p) empiricaldispersion=gd3bj scf=xqc pop=npa geom=c
 heck
 ----------------------------------------------------------------------

 -----------------------------------
 CID_76945880_JID_6067_Energie_anion
 -----------------------------------
 Structure from the checkpoint file:  "JID_6067.chk"
 Charge = -1 Multiplicity = 2

                         Standard orientation:
 ---------------------------------------------------------------------
 Center     Atomic      Atomic             Coordinates (Angstroms)
 Number     Number       Type             X           Y           Z
 ---------------------------------------------------------------------
      1          6           0        3.694658   -0.664806   -0.138545
      2          6           0        2.504848    0.249094   -0.481104
      3          6           0        2.964080    1.716016   -0.426538
      4          6           0        2.014756   -0.079365   -1.900816
      5          6           0        1.339796    0.090562    0.551247
      6          6           0        0.572244   -1.226164    0.382724
      7          8           0        1.161479   -2.303794    0.480131
      8          7           0       -0.779932   -1.216548    0.170473
      9          6           0       -1.789190   -0.158866    0.120527
     10          6           0       -1.771275    0.849588    1.319193
     11          6           0       -1.685927    2.264472    0.713249
     12          6           0       -2.262256    2.101359   -0.703794
     13          6           0       -1.710532    0.740679   -1.145719
     14          6           0       -3.143694   -0.903717    0.162646
     15          8           0       -3.232473   -1.981871   -0.754431
     16          7           0        1.861847    0.198595    1.924521
     17          1           0        4.488444   -0.529320   -0.882692
     18          1           0        3.393912   -1.714317   -0.129487
     19          1           0        4.112234   -0.409428    0.840448
     20          1           0        3.827217    1.873863   -1.083705
     21          1           0        2.165524    2.394308   -0.755622
     22          1           0        3.247089    1.988404    0.593965
     23          1           0        1.674149   -1.116620   -1.979645
     24          1           0        1.195681    0.579812   -2.211639
     25          1           0        2.831112    0.060131   -2.618644
     26          1           0        0.669204    0.937047    0.396350
     27          1           0       -1.148425   -2.149393    0.010947
     28          1           0       -2.700507    0.744094    1.892980
     29          1           0       -0.959660    0.624882    2.013601
     30          1           0       -0.641428    2.591960    0.647466
     31          1           0       -2.219060    3.010192    1.310803
     32          1           0       -1.979195    2.914357   -1.379695
     33          1           0       -3.359111    2.078269   -0.664727
     34          1           0       -0.667363    0.841638   -1.451728
     35          1           0       -2.244780    0.308306   -2.001509
     36          1           0       -3.273890   -1.355348    1.150745
     37          1           0       -3.953310   -0.174415    0.012899
     38          1           0       -3.171857   -1.621597   -1.653409
     39          1           0        1.094499    0.370329    2.572609
     40          1           0        2.249007   -0.709289    2.180708
 ---------------------------------------------------------------------

 SCF Done:  E(UB3LYP) =  -731.972795387     A.U. after   31 cycles

 The electronic state is 2-A.
 Alpha  occ. eigenvalues --  -19.03664 -18.99207 -14.23830 -14.21301 -10.17726
 Alpha  occ. eigenvalues --  -10.13090 -10.12765 -10.11721 -10.09742 -10.08095
 Alpha  occ. eigenvalues --  -10.07287 -10.07196 -10.06853 -10.06723 -10.06523
 Alpha  occ. eigenvalues --  -10.06168  -0.94587  -0.93874  -0.82992  -0.80789
 Alpha  occ. eigenvalues --   -0.74026  -0.72108  -0.64905  -0.62552  -0.60418
 Alpha  occ. eigenvalues --   -0.59550  -0.59062  -0.56853  -0.51609  -0.48361
 Alpha  occ. eigenvalues --   -0.47148  -0.44824  -0.43298  -0.42284  -0.40299
 Alpha  occ. eigenvalues --   -0.39002  -0.37583  -0.37499  -0.35667  -0.35219
 Alpha  occ. eigenvalues --   -0.35202  -0.33484  -0.32500  -0.32315  -0.31335
 Alpha  occ. eigenvalues --   -0.30082  -0.29432  -0.28806  -0.28166  -0.27621
 Alpha  occ. eigenvalues --   -0.27119  -0.25991  -0.25388  -0.24726  -0.24302
 Alpha  occ. eigenvalues --   -0.24142  -0.23643  -0.23274  -0.22630  -0.19525
 Alpha  occ. eigenvalues --   -0.18290  -0.15738  -0.14941   0.03975
 Alpha virt. eigenvalues --    0.06414   0.06524   0.07369   0.08074   0.08811
 Alpha virt. eigenvalues --    0.09215   0.09255   0.09802   0.10172   0.10876
 Alpha virt. eigenvalues --    0.10945   0.11398   0.12017   0.12060   0.13000

  Beta  occ. eigenvalues --  -19.03623 -18.99206 -14.23825 -14.21290 -10.17725
  Beta  occ. eigenvalues --  -10.13093 -10.12736 -10.11715 -10.09742 -10.08080
  Beta  occ. eigenvalues --  -10.07264 -10.07155 -10.06818 -10.06712 -10.06511
  Beta  occ. eigenvalues --  -10.06163  -0.94567  -0.93804  -0.82979  -0.80773
  Beta  occ. eigenvalues --   -0.73991  -0.72097  -0.64853  -0.62490  -0.60397
  Beta  occ. eigenvalues --   -0.59530  -0.59041  -0.56769  -0.51578  -0.48270
  Beta  occ. eigenvalues --   -0.47113  -0.44783  -0.43262  -0.42257  -0.40233
  Beta  occ. eigenvalues --   -0.38959  -0.37566  -0.37448  -0.35638  -0.35206
  Beta  occ. eigenvalues --   -0.35165  -0.33455  -0.32480  -0.32284  -0.31309
  Beta  occ. eigenvalues --   -0.30068  -0.29418  -0.28766  -0.28147  -0.27598
  Beta  occ. eigenvalues --   -0.27093  -0.25965  -0.25331  -0.24663  -0.24283
  Beta  occ. eigenvalues --   -0.24125  -0.23627  -0.23236  -0.22599  -0.19483
  Beta  occ. eigenvalues --   -0.18277  -0.15720  -0.14934
  Beta virt. eigenvalues --    0.06180   0.07048   0.07424   0.07976   0.08611
  Beta virt. eigenvalues --    0.09089   0.09298   0.09553   0.10105   0.10399
  Beta virt. eigenvalues --    0.11088   0.11329   0.11634   0.12028   0.12203

 Mulliken charges and spin densities:
               1          2
     1  C   -0.719411   0.011294
     2  C    0.284048   0.151600
     3  C   -0.427493  -0.318628
     4  C   -0.179486  -0.362571
     5  C   -0.151366   0.250879
     6  C   -0.546515   0.251722
     7  O   -0.303960   0.001780
     8  N   -0.045443   0.033111
     9  C   -2.217247   1.511778
    10  C    0.683115  -0.771027
    11  C   -0.917273   0.676571
    12  C    1.790419  -2.444562
    13  C   -0.903809   1.208618
    14  C    2.256921  -2.788714
    15  O   -0.210170   0.009039
    16  N   -0.221184  -0.041786
    17  H    0.100899   0.029200
    18  H    0.164815   0.036425
    19  H    0.121040   0.004069
    20  H    0.056259   0.086857
    21  H   -0.048741   0.181904
    22  H    0.132729   0.041021
    23  H    0.234801  -0.053264
    24  H   -0.461472   0.613880
    25  H   -0.012202   0.175569
    26  H    1.486816  -1.233421
    27  H    0.263310   0.075550
    28  H   -0.378862   0.592475
    29  H    0.171043  -0.012441
    30  H   -0.222807   0.365701
    31  H   -0.628698   0.824057
    32  H   -0.533049   0.715875
    33  H   -0.002179   0.151988
    34  H    1.399835  -1.299569
    35  H   -1.148469   1.310027
    36  H    0.121658   0.088257
    37  H   -0.331062   0.516912
    38  H    0.021231   0.239825
    39  H    0.075596   0.154039
    40  H    0.246365   0.015961
 Sum of Mulliken charges =  -1.00000   1.00000

 Dipole moment (field-independent basis, Debye):
    X=              6.8333    Y=             -1.9798    Z=              2.4308  Tot=              7.5182
 Quadrupole moment (field-independent basis, Debye-Ang):
   XX=           -174.7077   YY=           -156.2159   ZZ=           -141.6589
   XY=              8.6835   XZ=             -8.0971   YZ=             -1.4343

 Summary of Natural Population Analysis:

                                       Natural Population
                Natural  -----------------------------------------------
    Atom  No    Charge         Core      Valence    Rydberg      Total
 -----------------------------------------------------------------------
      C    1   -0.29329      0.99962     2.28757    0.00610     3.29329
      C    2   -0.04039      0.99958     2.02946    0.01135     3.04039
      C    3   -0.28579      0.99962     2.28024    0.00592     3.28579
      C    4   -0.28777      0.99962     2.28108    0.00707     3.28777
      C    5   -0.05415      0.99949     2.04120    0.01346     3.05415
      C    6    0.34540      0.99963     1.63217    0.02280     2.65460
      O    7   -0.33936      0.99988     3.33376    0.00572     4.33936
      N    8   -0.32174      0.99963     2.81101    0.01110     3.82174
      C    9    0.04934      0.99954     1.93637    0.01475     2.95066
      C   10   -0.19326      0.99959     2.18433    0.00934     3.19326
      C   11   -0.19164      0.99963     2.18369    0.00831     3.19164
      C   12   -0.19126      0.99963     2.18282    0.00881     3.19126
      C   13   -0.19581      0.99958     2.18535    0.01089     3.19581
      C   14   -0.00675      0.99952     1.99341    0.01382     3.00675
      O   15   -0.37121      0.99990     3.36481    0.00650     4.37121
      N   16   -0.41756      0.99977     2.90770    0.01009     3.91756
      H   17    0.09485      0.00000     0.40433    0.00082     0.40515
      H   18    0.11446      0.00000     0.38470    0.00084     0.38554
      H   19    0.10025      0.00000     0.39890    0.00085     0.39975
      H   20    0.09630      0.00000     0.40292    0.00078     0.40370
      H   21    0.09866      0.00000     0.40036    0.00098     0.40134
      H   22    0.10837      0.00000     0.39059    0.00104     0.39163
      H   23    0.10608      0.00000     0.39310    0.00082     0.39392
      H   24    0.09959      0.00000     0.39931    0.00110     0.40041
      H   25    0.09872      0.00000     0.40056    0.00072     0.40128
      H   26    0.10175      0.00000     0.39435    0.00390     0.39825
      H   27    0.20247      0.00000     0.29455    0.00298     0.29753
      H   28    0.10347      0.00000     0.39498    0.00155     0.39653
      H   29    0.09898      0.00000     0.39956    0.00146     0.40102
      H   30    0.09321      0.00000     0.40500    0.00179     0.40679
      H   31    0.10442      0.00000     0.39405    0.00153     0.39558
      H   32    0.10379      0.00000     0.39486    0.00134     0.39621
      H   33    0.09912      0.00000     0.39783    0.00305     0.40088
      H   34    0.10000      0.00000     0.39751    0.00249     0.40000
      H   35    0.10318      0.00000     0.39337    0.00344     0.39682
      H   36    0.08813      0.00000     0.41050    0.00137     0.41187
      H   37    0.08967      0.00000     0.40839    0.00194     0.41033
      H   38    0.23485      0.00000     0.26047    0.00468     0.26515
      H   39    0.17537      0.00000     0.32312    0.00151     0.32463
      H   40    0.17955      0.00000     0.31872    0.00173     0.32045
 =======================================================================
   * Total *   -0.00000     15.99425    46.79700    0.20875    63.00000

 Normal termination of Gaussian 16 at Thu Dec 10 22:35:55 2020.
