 Gaussian 16, Revision A.03,

 -----------------------------------------------------------
 # opt freq B3LYP/6-31G(d) empiricaldispersion=gd3bj scf=xqc
 -----------------------------------------------------------

 -------------------------------
 CID_101711850_JID_4074_neutraal
 -------------------------------
 Symbolic Z-matrix:
 Charge =  0 Multiplicity = 1

 SCF Done:  E(RB3LYP) =  -652.087870140     A.U. after   15 cycles
 SCF Done:  E(RB3LYP) =  -652.090986096     A.U. after   12 cycles
 SCF Done:  E(RB3LYP) =  -652.090066162     A.U. after   13 cycles
 SCF Done:  E(RB3LYP) =  -652.091921081     A.U. after   12 cycles
 SCF Done:  E(RB3LYP) =  -652.092170817     A.U. after   12 cycles
 SCF Done:  E(RB3LYP) =  -652.092355272     A.U. after   12 cycles
 SCF Done:  E(RB3LYP) =  -652.092474291     A.U. after   12 cycles
 SCF Done:  E(RB3LYP) =  -652.092589894     A.U. after   12 cycles
 SCF Done:  E(RB3LYP) =  -652.092624788     A.U. after   11 cycles
 SCF Done:  E(RB3LYP) =  -652.092632235     A.U. after   10 cycles
 SCF Done:  E(RB3LYP) =  -652.092637200     A.U. after   10 cycles
 SCF Done:  E(RB3LYP) =  -652.092638514     A.U. after    8 cycles
 SCF Done:  E(RB3LYP) =  -652.092638486     A.U. after    8 cycles
 SCF Done:  E(RB3LYP) =  -652.092639166     A.U. after   10 cycles
 SCF Done:  E(RB3LYP) =  -652.092639180     A.U. after    7 cycles
 Optimization completed.
    -- Stationary point found.
 Normal termination of Gaussian 16 at Thu Dec 10 09:16:29 2020.

 --------------------------------------------------------------------
 #N Geom=AllCheck Guess=TCheck SCRF=Check GenChk RB3LYP/6-31G(d) Freq
 --------------------------------------------------------------------

 Structure from the checkpoint file:  "JID_4074.chk"
 -------------------------------
 CID_101711850_JID_4074_neutraal
 -------------------------------
 Charge =  0 Multiplicity = 1

 SCF Done:  E(RB3LYP) =  -652.092639180     A.U. after    1 cycles

  Exact polarizability: 195.681   7.993 123.468   4.454   3.784  58.894
 Approx polarizability: 249.609  16.865 219.126  10.106   8.972  88.938

                      1                      2                      3
                      A                      A                      A
 Frequencies --     25.4323                37.1568                67.5292
 Red. masses --      3.7440                 5.2530                 6.9243
 Frc consts  --      0.0014                 0.0043                 0.0186
 IR Inten    --      1.9023                 0.3846                 1.5870

                      4                      5                      6
                      A                      A                      A
 Frequencies --     82.4337               115.6716               163.7889
 Red. masses --      4.8659                 2.8065                 4.3745
 Frc consts  --      0.0195                 0.0221                 0.0691
 IR Inten    --      0.3560                 1.1822                 1.2528

                      7                      8                      9
                      A                      A                      A
 Frequencies --    190.5000               206.8098               252.4720
 Red. masses --      3.6709                 5.2837                 1.3844
 Frc consts  --      0.0785                 0.1331                 0.0520
 IR Inten    --      3.6195                 2.5585                 4.6807

                     10                     11                     12
                      A                      A                      A
 Frequencies --    283.9347               328.7306               378.1714
 Red. masses --      1.8979                 6.1423                 1.2482
 Frc consts  --      0.0902                 0.3911                 0.1052
 IR Inten    --     11.5671                15.2567                88.3094

                     13                     14                     15
                      A                      A                      A
 Frequencies --    393.7211               416.2107               451.2274
 Red. masses --      2.9740                 2.9833                 3.7329
 Frc consts  --      0.2716                 0.3045                 0.4478
 IR Inten    --     17.6996                 0.0039                 4.1988

                     16                     17                     18
                      A                      A                      A
 Frequencies --    461.4544               477.1806               514.3362
 Red. masses --      5.6326                 5.1270                 3.8780
 Frc consts  --      0.7067                 0.6878                 0.6044
 IR Inten    --     27.2938                31.8169                 3.3426

                     19                     20                     21
                      A                      A                      A
 Frequencies --    631.5817               634.9499               696.4844
 Red. masses --      4.2276                 5.3524                 4.1196
 Frc consts  --      0.9936                 1.2714                 1.1774
 IR Inten    --      1.5901                 1.5399                 0.0462

                     22                     23                     24
                      A                      A                      A
 Frequencies --    715.8336               720.6579               807.3648
 Red. masses --      1.7316                 4.8088                 2.5337
 Frc consts  --      0.5228                 1.4714                 0.9731
 IR Inten    --     64.0169                14.7249                 4.5400

                     25                     26                     27
                      A                      A                      A
 Frequencies --    822.6857               854.9929               867.4047
 Red. masses --      5.9888                 1.9429                 1.2469
 Frc consts  --      2.3881                 0.8368                 0.5528
 IR Inten    --      9.2691                 3.1216                 0.0511

                     28                     29                     30
                      A                      A                      A
 Frequencies --    882.2002               955.3262               971.6025
 Red. masses --      2.8358                 1.3942                 1.7198
 Frc consts  --      1.3003                 0.7497                 0.9565
 IR Inten    --     12.1944                 1.2663                 2.9481

                     31                     32                     33
                      A                      A                      A
 Frequencies --    984.4033              1001.2922              1008.9359
 Red. masses --      1.3507                 1.1000                 1.2715
 Frc consts  --      0.7712                 0.6498                 0.7626
 IR Inten    --      0.1129                36.8201                 0.0709

                     34                     35                     36
                      A                      A                      A
 Frequencies --   1021.7121              1026.8895              1052.6301
 Red. masses --      5.9019                 4.6137                 1.9995
 Frc consts  --      3.6300                 2.8665                 1.3053
 IR Inten    --     18.1716                17.8104                26.8290

                     37                     38                     39
                      A                      A                      A
 Frequencies --   1062.6161              1090.8324              1116.2166
 Red. masses --      1.8375                 2.3118                 1.5750
 Frc consts  --      1.2224                 1.6208                 1.1562
 IR Inten    --     15.4598                66.0386                 4.0397

                     40                     41                     42
                      A                      A                      A
 Frequencies --   1167.7157              1191.0358              1195.7405
 Red. masses --      1.9903                 4.8770                 1.1050
 Frc consts  --      1.5990                 4.0762                 0.9308
 IR Inten    --    107.8775               285.3405                 0.8000

                     43                     44                     45
                      A                      A                      A
 Frequencies --   1209.5879              1288.6250              1294.9813
 Red. masses --      1.1480                 3.0630                 1.6686
 Frc consts  --      0.9896                 2.9968                 1.6487
 IR Inten    --     61.4582               360.9769               194.1102

                     46                     47                     48
                      A                      A                      A
 Frequencies --   1316.9327              1352.5940              1355.1780
 Red. masses --      1.5219                 1.4902                 1.4843
 Frc consts  --      1.5552                 1.6064                 1.6061
 IR Inten    --     51.5814                 1.2747                21.5694

                     49                     50                     51
                      A                      A                      A
 Frequencies --   1371.3568              1388.3219              1429.4913
 Red. masses --      4.8803                 1.2641                 1.2093
 Frc consts  --      5.4075                 1.4355                 1.4559
 IR Inten    --      4.0989               119.8521                13.9141

                     52                     53                     54
                      A                      A                      A
 Frequencies --   1433.7741              1499.3120              1521.8878
 Red. masses --      1.2522                 2.2616                 1.0491
 Frc consts  --      1.5167                 2.9954                 1.4316
 IR Inten    --     33.9040                12.3440                 7.6932

                     55                     56                     57
                      A                      A                      A
 Frequencies --   1524.0555              1542.6090              1644.1304
 Red. masses --      1.0545                 2.2301                 5.7270
 Frc consts  --      1.4431                 3.1266                 9.1211
 IR Inten    --      0.3764                 0.5470                 3.9337

                     58                     59                     60
                      A                      A                      A
 Frequencies --   1664.2204              1723.3785              1801.4878
 Red. masses --      5.5743                 6.0480                12.2333
 Frc consts  --      9.0963                10.5834                23.3914
 IR Inten    --     16.2767                63.8868               172.1060

                     61                     62                     63
                      A                      A                      A
 Frequencies --   3041.6497              3046.9099              3112.9457
 Red. masses --      1.0684                 1.0523                 1.0997
 Frc consts  --      5.8238                 5.7559                 6.2786
 IR Inten    --     14.1402                29.8114                34.0534

                     64                     65                     66
                      A                      A                      A
 Frequencies --   3137.1222              3189.0277              3201.0559
 Red. masses --      1.1031                 1.0859                 1.0900
 Frc consts  --      6.3964                 6.5064                 6.5807
 IR Inten    --     30.0508                 0.1742                15.6976

                     67                     68                     69
                      A                      A                      A
 Frequencies --   3211.4423              3229.6415              3238.6590
 Red. masses --      1.0950                 1.0932                 1.0926
 Frc consts  --      6.6538                 6.7183                 6.7523
 IR Inten    --     26.3576                 5.5910                 4.1605

                     70                     71                     72
                      A                      A                      A
 Frequencies --   3241.5202              3270.3202              3710.4383
 Red. masses --      1.0916                 1.0905                 1.0655
 Frc consts  --      6.7577                 6.8715                 8.6431
 IR Inten    --      6.0952                 0.7625                 6.6922

 - Thermochemistry -
 -------------------
 Temperature   298.150 Kelvin.  Pressure   1.00000 Atm.
 Atom     1 has atomic number  6 and mass  12.00000

 Molecular mass:   192.07864 amu.
 Principal axes and moments of inertia in atomic units:
                           1         2         3
     Eigenvalues --   759.017346978.980297639.45986
           X            0.99996   0.00787  -0.00320
           Y           -0.00787   0.99997   0.00034
           Z            0.00321  -0.00032   0.99999
 This molecule is an asymmetric top.
 Rotational symmetry number  1.
 Warning -- assumption of classical behavior for rotation
           may cause significant error
 Rotational temperatures (Kelvin)      0.11411     0.01241     0.01134
 Rotational constants (GHZ):           2.37773     0.25860     0.23624
 Zero-point vibrational energy     552199.4 (Joules/Mol)
                                  131.97881 (Kcal/Mol)
 Warning -- explicit consideration of  18 degrees of freedom as
           vibrations may cause significant error
 Vibrational temperatures:     36.59    53.46    97.16   118.60   166.43
          (Kelvin)            235.66   274.09   297.55   363.25   408.52
                              472.97   544.10   566.48   598.83   649.22
                              663.93   686.56   740.02   908.71   913.55
                             1002.09  1029.92  1036.87  1161.62  1183.66
                             1230.14  1248.00  1269.29  1374.50  1397.92
                             1416.34  1440.64  1451.63  1470.02  1477.47
                             1514.50  1528.87  1569.46  1605.99  1680.08
                             1713.63  1720.40  1740.33  1854.04  1863.19
                             1894.77  1946.08  1949.80  1973.08  1997.49
                             2056.72  2062.88  2157.18  2189.66  2192.78
                             2219.47  2365.54  2394.44  2479.56  2591.94
                             4376.26  4383.82  4478.83  4513.62  4588.30
                             4605.61  4620.55  4646.73  4659.71  4663.82
                             4705.26  5338.49

 Zero-point correction=                           0.210322 (Hartree/Particle)
 Thermal correction to Energy=                    0.223633
 Thermal correction to Enthalpy=                  0.224578
 Thermal correction to Gibbs Free Energy=         0.168723
 Sum of electronic and zero-point Energies=           -651.882318
 Sum of electronic and thermal Energies=              -651.869006
 Sum of electronic and thermal Enthalpies=            -651.868062
 Sum of electronic and thermal Free Energies=         -651.923917

                     E (Thermal)             CV                S
                      KCal/Mol        Cal/Mol-Kelvin    Cal/Mol-Kelvin
 Total                  140.332             49.578            117.557
 Electronic               0.000              0.000              0.000
 Translational            0.889              2.981             41.664
 Rotational               0.889              2.981             32.070
 Vibrational            138.555             43.616             43.823
 Vibration     1          0.593              1.985              6.157
 Vibration     2          0.594              1.982              5.405
 Vibration     3          0.598              1.970              4.224
 Vibration     4          0.600              1.961              3.832
 Vibration     5          0.608              1.936              3.171
 Vibration     6          0.623              1.887              2.506
 Vibration     7          0.634              1.853              2.223
 Vibration     8          0.641              1.830              2.072
 Vibration     9          0.664              1.759              1.713
 Vibration    10          0.682              1.703              1.510
 Vibration    11          0.712              1.618              1.266
 Vibration    12          0.748              1.517              1.046
 Vibration    13          0.761              1.484              0.986
 Vibration    14          0.779              1.435              0.905
 Vibration    15          0.810              1.358              0.792
 Vibration    16          0.819              1.336              0.762
 Vibration    17          0.834              1.301              0.718
 Vibration    18          0.869              1.218              0.623

 Optimization completed.
    -- Stationary point found.
 Normal termination of Gaussian 16 at Thu Dec 10 09:21:56 2020.

 ----------------------------------------------------------------------
 # B3LYP/6-311++G(d,p) empiricaldispersion=gd3bj scf=xqc pop=npa geom=c
 heck
 ----------------------------------------------------------------------

 ---------------------------------------
 CID_101711850_JID_4074_Energie_neutraal
 ---------------------------------------
 Structure from the checkpoint file:  "JID_4074.chk"
 Charge =  0 Multiplicity = 1

 SCF Done:  E(RB3LYP) =  -652.284323213     A.U. after   15 cycles
 Normal termination of Gaussian 16 at Thu Dec 10 09:24:02 2020.

 ----------------------------------------------------------------------
 # B3LYP/6-311++G(d,p) empiricaldispersion=gd3bj scf=xqc pop=npa geom=c
 heck
 ----------------------------------------------------------------------

 -------------------------------------
 CID_101711850_JID_4074_Energie_kation
 -------------------------------------
 Structure from the checkpoint file:  "JID_4074.chk"
 Charge =  1 Multiplicity = 2

 SCF Done:  E(UB3LYP) =  -651.967068349     A.U. after   29 cycles
 Normal termination of Gaussian 16 at Thu Dec 10 09:29:38 2020.
 Gaussian 16:  ES64L-G16RevA.03 25-Dec-2016

 ----------------------------------------------------------------------
 # B3LYP/6-311++G(d,p) empiricaldispersion=gd3bj scf=xqc pop=npa geom=c
 heck
 ----------------------------------------------------------------------

 ------------------------------------
 CID_101711850_JID_4074_Energie_anion
 ------------------------------------
 Structure from the checkpoint file:  "JID_4074.chk"
 Charge = -1 Multiplicity = 2

                         Standard orientation:
 ---------------------------------------------------------------------
 Center     Atomic      Atomic             Coordinates (Angstroms)
 Number     Number       Type             X           Y           Z
 ---------------------------------------------------------------------
      1          6           0        4.750829    0.998909   -0.575989
      2          6           0        3.995775    0.012685    0.321086
      3          6           0        2.505769    0.269455    0.278889
      4          6           0        1.638443   -0.736661    0.166708
      5          8           0        0.254889   -0.709030    0.098845
      6          6           0       -0.485705    0.435308    0.111208
      7          8           0       -0.021652    1.553697    0.183919
      8          6           0       -1.939131    0.134486    0.022012
      9          6           0       -2.825315    1.219963    0.020516
     10          6           0       -4.196890    1.000518   -0.061299
     11          6           0       -4.691315   -0.303608   -0.141796
     12          6           0       -3.810909   -1.387631   -0.140158
     13          6           0       -2.437067   -1.173017   -0.058633
     14          8           0        4.339707   -1.336309    0.005461
     15          1           0        4.429226    0.890032   -1.619749
     16          1           0        5.827000    0.809948   -0.518744
     17          1           0        4.557206    2.034602   -0.275490
     18          1           0        4.347919    0.142353    1.353269
     19          1           0        2.172068    1.295918    0.339581
     20          1           0        1.964885   -1.768755    0.127185
     21          1           0       -2.417624    2.222934    0.084188
     22          1           0       -4.881124    1.843883   -0.062210
     23          1           0       -5.762228   -0.475026   -0.205474
     24          1           0       -4.195608   -2.401381   -0.202232
     25          1           0       -1.748122   -2.009164   -0.056236
     26          1           0        4.095951   -1.474636   -0.925160
 ---------------------------------------------------------------------

 SCF Done:  E(UB3LYP) =  -652.292671751     A.U. after   28 cycles

 The electronic state is 2-A.
 Alpha  occ. eigenvalues --  -19.03353 -19.02607 -18.93768 -10.12481 -10.12340
 Alpha  occ. eigenvalues --  -10.10295 -10.06720 -10.03840 -10.03444 -10.03432
 Alpha  occ. eigenvalues --  -10.02752 -10.02479 -10.02406 -10.02355  -0.96225
 Alpha  occ. eigenvalues --   -0.92859  -0.86730  -0.71390  -0.67930  -0.63670
 Alpha  occ. eigenvalues --   -0.60932  -0.60566  -0.54990  -0.50709  -0.47297
 Alpha  occ. eigenvalues --   -0.46015  -0.41837  -0.40343  -0.37782  -0.36144
 Alpha  occ. eigenvalues --   -0.34748  -0.33628  -0.32075  -0.31923  -0.30589
 Alpha  occ. eigenvalues --   -0.29594  -0.28657  -0.28499  -0.28154  -0.27232
 Alpha  occ. eigenvalues --   -0.24070  -0.23481  -0.22864  -0.21423  -0.20657
 Alpha  occ. eigenvalues --   -0.20315  -0.18240  -0.12831  -0.12106  -0.11948
 Alpha  occ. eigenvalues --   -0.11398   0.04615
 Alpha virt. eigenvalues --    0.06805   0.08617   0.08829   0.09590   0.10210
 Alpha virt. eigenvalues --    0.10532   0.11234   0.12187   0.12319   0.12382
 Alpha virt. eigenvalues --    0.13106   0.13588   0.14793   0.15845   0.16332

  Beta  occ. eigenvalues --  -19.03371 -19.02599 -18.93358 -10.12487 -10.12022
  Beta  occ. eigenvalues --  -10.10266 -10.06695 -10.03749 -10.03498 -10.03497
  Beta  occ. eigenvalues --  -10.02605 -10.02261 -10.02198 -10.02149  -0.96011
  Beta  occ. eigenvalues --   -0.92839  -0.86105  -0.71051  -0.67810  -0.63421
  Beta  occ. eigenvalues --   -0.60533  -0.60299  -0.54724  -0.50504  -0.46867
  Beta  occ. eigenvalues --   -0.45807  -0.41690  -0.40265  -0.37677  -0.36072
  Beta  occ. eigenvalues --   -0.34533  -0.33375  -0.31836  -0.31022  -0.30464
  Beta  occ. eigenvalues --   -0.29387  -0.28525  -0.28429  -0.28103  -0.27105
  Beta  occ. eigenvalues --   -0.23956  -0.22904  -0.22456  -0.21192  -0.20209
  Beta  occ. eigenvalues --   -0.19081  -0.18168  -0.11961  -0.11723  -0.11159
  Beta  occ. eigenvalues --   -0.10115
  Beta virt. eigenvalues --    0.06895   0.08598   0.08805   0.09528   0.10144
  Beta virt. eigenvalues --    0.10369   0.10583   0.11228   0.12229   0.12453
  Beta virt. eigenvalues --    0.12622   0.13473   0.13546   0.14819   0.15818

 Mulliken charges and spin densities:
               1          2
     1  C   -0.018585  -0.519672
     2  C   -0.775333   0.492177
     3  C    0.539217  -0.304949
     4  C   -0.109107   0.068166
     5  O   -0.093741  -0.016061
     6  C   -0.027699   0.116017
     7  O   -0.356137   0.145575
     8  C    0.606668   0.064246
     9  C   -0.357953   0.194459
    10  C   -0.302952  -0.042781
    11  C   -0.527057   0.247812
    12  C   -0.176026  -0.026426
    13  C   -0.442768   0.113777
    14  O   -0.238052  -0.006978
    15  H    0.042752   0.097539
    16  H   -0.103909   0.246238
    17  H    0.081893   0.051161
    18  H    0.069493   0.095100
    19  H    0.226500  -0.017531
    20  H    0.135468   0.023468
    21  H    0.163053  -0.009229
    22  H    0.114207   0.003375
    23  H    0.091745  -0.022139
    24  H    0.120010   0.003212
    25  H    0.133258  -0.007152
    26  H    0.205053   0.010598
 Sum of Mulliken charges =  -1.00000   1.00000

 Dipole moment (field-independent basis, Debye):
    X=              1.8456    Y=             -1.3131    Z=             -0.8493  Tot=              2.4191
 Quadrupole moment (field-independent basis, Debye-Ang):
   XX=           -147.6092   YY=            -96.6904   ZZ=            -93.0353
   XY=              1.8119   XZ=             -2.6507   YZ=              2.4555

 Summary of Natural Population Analysis:

                                       Natural Population
                Natural  -----------------------------------------------
    Atom  No    Charge         Core      Valence    Rydberg      Total
 -----------------------------------------------------------------------
      C    1   -0.29360      0.99965     2.28896    0.00499     3.29360
      C    2    0.05155      0.99958     1.93444    0.01444     2.94845
      C    3   -0.14740      0.99951     2.13793    0.00996     3.14740
      C    4    0.07998      0.99939     1.90693    0.01370     2.92002
      O    5   -0.28116      0.99985     3.27238    0.00893     4.28116
      C    6    0.43640      0.99962     1.54087    0.02311     2.56360
      O    7   -0.28081      0.99987     3.27554    0.00541     4.28081
      C    8   -0.05584      0.99946     2.04696    0.00942     3.05584
      C    9   -0.05031      0.99954     2.04180    0.00897     3.05031
      C   10   -0.13041      0.99957     2.12131    0.00952     3.13041
      C   11   -0.04510      0.99958     2.03571    0.00982     3.04510
      C   12   -0.12924      0.99958     2.12007    0.00960     3.12924
      C   13   -0.05915      0.99954     2.05117    0.00843     3.05915
      O   14   -0.37235      0.99990     3.36533    0.00712     4.37235
      H   15    0.09519      0.00000     0.40317    0.00164     0.40481
      H   16    0.09755      0.00000     0.40069    0.00177     0.40245
      H   17    0.10103      0.00000     0.39789    0.00108     0.39897
      H   18    0.08680      0.00000     0.41184    0.00137     0.41320
      H   19    0.12005      0.00000     0.37850    0.00146     0.37995
      H   20    0.08608      0.00000     0.41243    0.00150     0.41392
      H   21    0.10358      0.00000     0.39532    0.00110     0.39642
      H   22    0.09002      0.00000     0.40892    0.00106     0.40998
      H   23    0.08497      0.00000     0.41397    0.00105     0.41503
      H   24    0.08963      0.00000     0.40928    0.00109     0.41037
      H   25    0.09960      0.00000     0.39945    0.00095     0.40040
      H   26    0.22295      0.00000     0.27404    0.00301     0.27705
 =======================================================================
   * Total *   -0.00000     13.99464    36.84488    0.16047    51.00000

 Normal termination of Gaussian 16 at Thu Dec 10 09:35:13 2020.
