 Gaussian 16, Revision A.03,

 -----------------------------------------------------------
 # opt freq B3LYP/6-31G(d) empiricaldispersion=gd3bj scf=xqc
 -----------------------------------------------------------

 ------------------------------
 CID_62035198_JID_8057_neutraal
 ------------------------------
 Symbolic Z-matrix:
 Charge =  0 Multiplicity = 1

 SCF Done:  E(RB3LYP) =  -1470.12001020     A.U. after   15 cycles
 SCF Done:  E(RB3LYP) =  -1470.11749733     A.U. after   14 cycles
 SCF Done:  E(RB3LYP) =  -1470.12542197     A.U. after   13 cycles
 SCF Done:  E(RB3LYP) =  -1470.12595713     A.U. after   13 cycles
 SCF Done:  E(RB3LYP) =  -1470.12620732     A.U. after   13 cycles
 SCF Done:  E(RB3LYP) =  -1470.12681554     A.U. after   12 cycles
 SCF Done:  E(RB3LYP) =  -1470.12685699     A.U. after   11 cycles
 SCF Done:  E(RB3LYP) =  -1470.12687058     A.U. after   11 cycles
 SCF Done:  E(RB3LYP) =  -1470.12688433     A.U. after   11 cycles
 SCF Done:  E(RB3LYP) =  -1470.12689212     A.U. after   11 cycles
 SCF Done:  E(RB3LYP) =  -1470.12705448     A.U. after    8 cycles
 SCF Done:  E(RB3LYP) =  -1470.12705677     A.U. after    9 cycles
 SCF Done:  E(RB3LYP) =  -1470.12705983     A.U. after   10 cycles
 SCF Done:  E(RB3LYP) =  -1470.12706273     A.U. after    9 cycles
 SCF Done:  E(RB3LYP) =  -1470.12706322     A.U. after    7 cycles
 SCF Done:  E(RB3LYP) =  -1470.12706337     A.U. after    8 cycles
 Optimization completed.
    -- Stationary point found.
 Normal termination of Gaussian 16 at Fri Dec 11 19:07:45 2020.

 --------------------------------------------------------------------
 #N Geom=AllCheck Guess=TCheck SCRF=Check GenChk RB3LYP/6-31G(d) Freq
 --------------------------------------------------------------------

 Structure from the checkpoint file:  "JID_8057.chk"
 ------------------------------
 CID_62035198_JID_8057_neutraal
 ------------------------------
 Charge =  0 Multiplicity = 1

 SCF Done:  E(RB3LYP) =  -1470.12706337     A.U. after    1 cycles

  Exact polarizability: 236.120 -22.026 133.227  -8.665  -9.487 166.473
 Approx polarizability: 364.175 -43.617 198.230 -31.937 -21.326 337.705

                      1                      2                      3
                      A                      A                      A
 Frequencies --     19.5334                31.0634                57.9141
 Red. masses --      6.8787                 4.1047                 4.8820
 Frc consts  --      0.0015                 0.0023                 0.0096
 IR Inten    --      1.0623                 0.0745                 0.4993

                      4                      5                      6
                      A                      A                      A
 Frequencies --     68.1024                78.9297                92.2522
 Red. masses --      5.0176                 3.2481                 1.2971
 Frc consts  --      0.0137                 0.0119                 0.0065
 IR Inten    --      0.2836                 0.3164                 0.2094

                      7                      8                      9
                      A                      A                      A
 Frequencies --     98.4714               112.5031               130.8762
 Red. masses --      3.6524                 3.3867                 4.3486
 Frc consts  --      0.0209                 0.0253                 0.0439
 IR Inten    --      0.3753                 0.2166                 0.5949

                     10                     11                     12
                      A                      A                      A
 Frequencies --    141.8430               197.9935               209.8823
 Red. masses --      4.6705                 2.3465                 4.2960
 Frc consts  --      0.0554                 0.0542                 0.1115
 IR Inten    --      1.4070                 3.7508                 4.2823

                     13                     14                     15
                      A                      A                      A
 Frequencies --    247.1647               273.6269               281.3971
 Red. masses --      4.7425                 2.6990                 2.0920
 Frc consts  --      0.1707                 0.1191                 0.0976
 IR Inten    --      2.8215                 3.7026                 0.3897

                     16                     17                     18
                      A                      A                      A
 Frequencies --    290.6925               317.5328               359.0033
 Red. masses --      3.0651                 3.7875                 2.4133
 Frc consts  --      0.1526                 0.2250                 0.1833
 IR Inten    --      1.2876                 4.2498                 1.7307

                     19                     20                     21
                      A                      A                      A
 Frequencies --    395.9426               430.2919               457.6997
 Red. masses --      3.5036                 2.0792                 5.7643
 Frc consts  --      0.3236                 0.2268                 0.7115
 IR Inten    --      3.1034                 1.0990                 4.0525

                     22                     23                     24
                      A                      A                      A
 Frequencies --    470.4346               485.7635               529.6458
 Red. masses --      4.4292                 4.9132                 3.6688
 Frc consts  --      0.5775                 0.6831                 0.6064
 IR Inten    --      4.6135                 4.4249                 5.0595

                     25                     26                     27
                      A                      A                      A
 Frequencies --    568.0134               574.8467               581.1482
 Red. masses --      3.2846                 3.3018                 3.1745
 Frc consts  --      0.6244                 0.6429                 0.6317
 IR Inten    --     10.7987                 4.4390                 6.1055

                     28                     29                     30
                      A                      A                      A
 Frequencies --    634.1138               653.3830               678.7973
 Red. masses --      4.2389                 6.2718                 4.1053
 Frc consts  --      1.0042                 1.5775                 1.1145
 IR Inten    --      2.0196                 4.8225                18.2145

                     31                     32                     33
                      A                      A                      A
 Frequencies --    696.5738               704.9076               743.2058
 Red. masses --      5.6887                 1.2928                 5.7207
 Frc consts  --      1.6263                 0.3785                 1.8617
 IR Inten    --      4.7274                61.9269                 6.1444

                     34                     35                     36
                      A                      A                      A
 Frequencies --    756.5834               766.6531               804.3059
 Red. masses --      6.6264                 4.6424                 1.3283
 Frc consts  --      2.2348                 1.6076                 0.5063
 IR Inten    --      2.4332                27.7129                39.8670

                     37                     38                     39
                      A                      A                      A
 Frequencies --    823.4444               834.8228               843.3707
 Red. masses --      1.3204                 1.3072                 2.3408
 Frc consts  --      0.5275                 0.5367                 0.9809
 IR Inten    --      7.6411                 5.5412                 3.4704

                     40                     41                     42
                      A                      A                      A
 Frequencies --    868.6526               893.3100               901.3696
 Red. masses --      3.8420                 1.4410                 1.3441
 Frc consts  --      1.7081                 0.6775                 0.6434
 IR Inten    --      5.5981                 0.5986                 1.2578

                     43                     44                     45
                      A                      A                      A
 Frequencies --    922.4020               960.2538               980.0574
 Red. masses --      3.9845                 2.3806                 2.0156
 Frc consts  --      1.9974                 1.2934                 1.1407
 IR Inten    --      6.7123                 5.8285                 4.8554

                     46                     47                     48
                      A                      A                      A
 Frequencies --   1008.8831              1031.6767              1068.4792
 Red. masses --      1.7285                 2.2203                 1.4177
 Frc consts  --      1.0366                 1.3923                 0.9536
 IR Inten    --      5.0940                 2.4437                 1.4103

                     49                     50                     51
                      A                      A                      A
 Frequencies --   1074.4072              1091.4258              1099.8096
 Red. masses --      1.5476                 1.9668                 1.6398
 Frc consts  --      1.0526                 1.3804                 1.1687
 IR Inten    --      7.3347                19.2171                22.6812

                     52                     53                     54
                      A                      A                      A
 Frequencies --   1111.2119              1131.5516              1156.8201
 Red. masses --      1.2894                 2.1339                 2.4779
 Frc consts  --      0.9380                 1.6098                 1.9537
 IR Inten    --      0.4888                32.8360                31.8911

                     55                     56                     57
                      A                      A                      A
 Frequencies --   1179.7190              1197.5650              1212.5295
 Red. masses --      1.9757                 4.1208                 2.0652
 Frc consts  --      1.6201                 3.4820                 1.7889
 IR Inten    --     11.0306                12.7903                12.5707

                     58                     59                     60
                      A                      A                      A
 Frequencies --   1252.8162              1267.8934              1286.9366
 Red. masses --      1.8815                 1.5493                 2.0159
 Frc consts  --      1.7400                 1.4674                 1.9672
 IR Inten    --     12.6892                20.5443                84.4520

                     61                     62                     63
                      A                      A                      A
 Frequencies --   1318.2417              1358.3631              1371.3294
 Red. masses --      1.4313                 1.3171                 1.3917
 Frc consts  --      1.4654                 1.4318                 1.5419
 IR Inten    --     28.3319                 5.6241                 1.6213

                     64                     65                     66
                      A                      A                      A
 Frequencies --   1379.4368              1386.1096              1403.3204
 Red. masses --      3.1365                 1.2995                 1.6438
 Frc consts  --      3.5164                 1.4711                 1.9072
 IR Inten    --      3.6720                30.6301                13.2460

                     67                     68                     69
                      A                      A                      A
 Frequencies --   1415.4498              1423.5068              1443.0172
 Red. masses --      1.4347                 1.4114                 1.2424
 Frc consts  --      1.6936                 1.6851                 1.5243
 IR Inten    --      1.1489                 2.1110                 2.6186

                     70                     71                     72
                      A                      A                      A
 Frequencies --   1446.9633              1489.6923              1494.5419
 Red. masses --      1.3747                 1.0908                 1.6275
 Frc consts  --      1.6958                 1.4263                 2.1419
 IR Inten    --     15.7237                11.3479                 3.6346

                     73                     74                     75
                      A                      A                      A
 Frequencies --   1497.5305              1507.9126              1508.0658
 Red. masses --      2.1222                 1.9992                 1.1195
 Frc consts  --      2.8040                 2.6782                 1.5000
 IR Inten    --     15.8478                77.7584                16.4561

                     76                     77                     78
                      A                      A                      A
 Frequencies --   1520.5030              1528.3136              1534.6350
 Red. masses --      1.0460                 1.5389                 1.0812
 Frc consts  --      1.4248                 2.1178                 1.5002
 IR Inten    --      3.6551                60.5574                 4.2618

                     79                     80                     81
                      A                      A                      A
 Frequencies --   1549.6957              1596.6857              1600.5670
 Red. masses --      1.0639                 5.1744                 4.7489
 Frc consts  --      1.5054                 7.7722                 7.1678
 IR Inten    --      1.2425                 0.7066                 2.0478

                     82                     83                     84
                      A                      A                      A
 Frequencies --   1730.6353              3016.2344              3033.3894
 Red. masses --     10.9456                 1.0607                 1.0607
 Frc consts  --     19.3153                 5.6857                 5.7503
 IR Inten    --    179.3129                31.2401                37.4637

                     85                     86                     87
                      A                      A                      A
 Frequencies --   3048.6944              3053.3835              3058.7269
 Red. masses --      1.0364                 1.0792                 1.0562
 Frc consts  --      5.6754                 5.9281                 5.8220
 IR Inten    --     30.1678                24.0019                39.8137

                     88                     89                     90
                      A                      A                      A
 Frequencies --   3069.1071              3077.4036              3102.2205
 Red. masses --      1.0594                 1.1029                 1.1014
 Frc consts  --      5.8796                 6.1542                 6.2450
 IR Inten    --     28.3069                27.5923                12.1517

                     91                     92                     93
                      A                      A                      A
 Frequencies --   3116.7131              3123.3250              3132.5104
 Red. masses --      1.1033                 1.1024                 1.1014
 Frc consts  --      6.3147                 6.3362                 6.3679
 IR Inten    --     22.4216                24.2763                12.1000

                     94                     95                     96
                      A                      A                      A
 Frequencies --   3142.6222              3210.6807              3211.6281
 Red. masses --      1.1016                 1.0892                 1.0902
 Frc consts  --      6.4102                 6.6155                 6.6254
 IR Inten    --     28.0471                 6.4622                11.9138

                     97                     98                     99
                      A                      A                      A
 Frequencies --   3227.8479              3233.2725              3270.2536
 Red. masses --      1.0943                 1.0955                 1.0971
 Frc consts  --      6.7175                 6.7476                 6.9129
 IR Inten    --      7.0903                 6.4257                 1.3879

 - Thermochemistry -
 -------------------
 Temperature   298.150 Kelvin.  Pressure   1.00000 Atm.
 Atom     1 has atomic number  6 and mass  12.00000

 Molecular mass:   279.07516 amu.
 Principal axes and moments of inertia in atomic units:
                           1         2         3
     Eigenvalues --  3218.994396247.085117539.84385
           X            0.99950  -0.03134  -0.00383
           Y            0.03133   0.99950  -0.00296
           Z            0.00392   0.00284   0.99999
 This molecule is an asymmetric top.
 Rotational symmetry number  1.
 Warning -- assumption of classical behavior for rotation
           may cause significant error
 Rotational temperatures (Kelvin)      0.02691     0.01386     0.01149
 Rotational constants (GHZ):           0.56065     0.28889     0.23936
 Zero-point vibrational energy     746308.5 (Joules/Mol)
                                  178.37200 (Kcal/Mol)
 Warning -- explicit consideration of  27 degrees of freedom as
           vibrations may cause significant error
 Vibrational temperatures:     28.10    44.69    83.33    97.98   113.56
          (Kelvin)            132.73   141.68   161.87   188.30   204.08
                              284.87   301.97   355.61   393.69   404.87
                              418.24   456.86   516.53   569.67   619.09
                              658.53   676.85   698.91   762.04   817.24
                              827.08   836.14   912.35   940.07   976.64
                             1002.21  1014.20  1069.31  1088.55  1103.04
                             1157.22  1184.75  1201.12  1213.42  1249.80
                             1285.27  1296.87  1327.13  1381.59  1410.08
                             1451.56  1484.35  1537.30  1545.83  1570.32
                             1582.38  1598.79  1628.05  1664.41  1697.35
                             1723.03  1744.56  1802.52  1824.22  1851.61
                             1896.66  1954.38  1973.04  1984.70  1994.30
                             2019.07  2036.52  2048.11  2076.18  2081.86
                             2143.33  2150.31  2154.61  2169.55  2169.77
                             2187.66  2198.90  2208.00  2229.67  2297.27
                             2302.86  2490.00  4339.69  4364.37  4386.39
                             4393.14  4400.83  4415.76  4427.70  4463.40
                             4484.26  4493.77  4506.98  4521.53  4619.45
                             4620.82  4644.15  4651.96  4705.17

 Zero-point correction=                           0.284254 (Hartree/Particle)
 Thermal correction to Energy=                    0.302468
 Thermal correction to Enthalpy=                  0.303412
 Thermal correction to Gibbs Free Energy=         0.236198
 Sum of electronic and zero-point Energies=          -1469.842809
 Sum of electronic and thermal Energies=             -1469.824595
 Sum of electronic and thermal Enthalpies=           -1469.823651
 Sum of electronic and thermal Free Energies=        -1469.890866

                     E (Thermal)             CV                S
                      KCal/Mol        Cal/Mol-Kelvin    Cal/Mol-Kelvin
 Total                  189.802             68.034            141.465
 Electronic               0.000              0.000              0.000
 Translational            0.889              2.981             42.777
 Rotational               0.889              2.981             33.383
 Vibrational            188.024             62.073             65.305
 Vibration     1          0.593              1.986              6.681
 Vibration     2          0.594              1.983              5.760
 Vibration     3          0.596              1.974              4.527
 Vibration     4          0.598              1.969              4.207
 Vibration     5          0.600              1.963              3.917
 Vibration     6          0.602              1.955              3.612
 Vibration     7          0.604              1.950              3.484
 Vibration     8          0.607              1.939              3.225
 Vibration     9          0.612              1.922              2.933
 Vibration    10          0.615              1.911              2.779
 Vibration    11          0.637              1.843              2.152
 Vibration    12          0.642              1.826              2.045
 Vibration    13          0.661              1.767              1.751
 Vibration    14          0.676              1.722              1.573
 Vibration    15          0.681              1.708              1.525
 Vibration    16          0.687              1.691              1.470
 Vibration    17          0.704              1.640              1.323
 Vibration    18          0.734              1.557              1.126
 Vibration    19          0.763              1.479              0.978
 Vibration    20          0.791              1.404              0.858
 Vibration    21          0.816              1.344              0.773
 Vibration    22          0.827              1.316              0.736
 Vibration    23          0.842              1.282              0.695
 Vibration    24          0.885              1.184              0.588
 Vibration    25          0.924              1.100              0.508
 Vibration    26          0.931              1.086              0.495
 Vibration    27          0.938              1.072              0.483

 Optimization completed.
    -- Stationary point found.
 Normal termination of Gaussian 16 at Fri Dec 11 19:25:40 2020.

 ----------------------------------------------------------------------
 # B3LYP/6-311++G(d,p) empiricaldispersion=gd3bj scf=xqc pop=npa geom=c
 heck
 ----------------------------------------------------------------------

 --------------------------------------
 CID_62035198_JID_8057_Energie_neutraal
 --------------------------------------
 Structure from the checkpoint file:  "JID_8057.chk"
 Charge =  0 Multiplicity = 1

 SCF Done:  E(RB3LYP) =  -1470.36109563     A.U. after   17 cycles
 Normal termination of Gaussian 16 at Fri Dec 11 19:34:43 2020.

 ----------------------------------------------------------------------
 # B3LYP/6-311++G(d,p) empiricaldispersion=gd3bj scf=xqc pop=npa geom=c
 heck
 ----------------------------------------------------------------------

 ------------------------------------
 CID_62035198_JID_8057_Energie_kation
 ------------------------------------
 Structure from the checkpoint file:  "JID_8057.chk"
 Charge =  1 Multiplicity = 2

 SCF Done:  E(UB3LYP) =  -1470.09134060     A.U. after   26 cycles
 Normal termination of Gaussian 16 at Fri Dec 11 19:55:45 2020.
 Gaussian 16:  ES64L-G16RevA.03 25-Dec-2016

 ----------------------------------------------------------------------
 # B3LYP/6-311++G(d,p) empiricaldispersion=gd3bj scf=xqc pop=npa geom=c
 heck
 ----------------------------------------------------------------------

 -----------------------------------
 CID_62035198_JID_8057_Energie_anion
 -----------------------------------
 Structure from the checkpoint file:  "JID_8057.chk"
 Charge = -1 Multiplicity = 2

                         Standard orientation:
 ---------------------------------------------------------------------
 Center     Atomic      Atomic             Coordinates (Angstroms)
 Number     Number       Type             X           Y           Z
 ---------------------------------------------------------------------
      1          6           0        4.065852   -1.760937   -0.717054
      2          6           0        3.409540   -0.428431   -0.367143
      3          7           0        2.599916   -0.495450    0.853659
      4          6           0        2.200989    0.805246    1.387815
      5          6           0        1.053050    1.530438    0.725697
      6          6           0       -0.168085    1.812846    1.282071
      7          6           0       -1.068529    2.472086    0.393803
      8          6           0       -0.517799    2.694547   -0.838161
      9         16           0        1.109288    2.100100   -0.926045
     10          6           0        1.562992   -1.521818    0.908112
     11          6           0        0.493725   -1.425484   -0.193332
     12          8           0        0.826919   -1.515690   -1.372351
     13          6           0       -0.905202   -1.206323    0.172587
     14          6           0       -1.528871   -1.204784    1.402110
     15          6           0       -2.913514   -0.911148    1.322897
     16          6           0       -3.346667   -0.685288    0.034938
     17         16           0       -2.046127   -0.847692   -1.103757
     18          6           0       -4.732625   -0.334656   -0.412359
     19          1           0        4.586404   -2.181039    0.150753
     20          1           0        4.796331   -1.610925   -1.519133
     21          1           0        3.325612   -2.480373   -1.077394
     22          1           0        4.189538    0.318295   -0.169227
     23          1           0        2.836350   -0.078270   -1.237999
     24          1           0        1.915692    0.665771    2.439041
     25          1           0        3.099678    1.434035    1.386632
     26          1           0       -0.421983    1.533543    2.298996
     27          1           0       -2.081630    2.753559    0.657995
     28          1           0       -0.972425    3.157304   -1.703411
     29          1           0        2.037635   -2.502864    0.798851
     30          1           0        1.115413   -1.485217    1.905439
     31          1           0       -1.010858   -1.398216    2.334100
     32          1           0       -3.574364   -0.862846    2.182163
     33          1           0       -5.132296   -1.075484   -1.114644
     34          1           0       -5.403953   -0.289728    0.450343
     35          1           0       -4.759622    0.639835   -0.914378
 ---------------------------------------------------------------------

 SCF Done:  E(UB3LYP) =  -1470.37620722     A.U. after   29 cycles

 The electronic state is 2-A.
 Alpha  occ. eigenvalues --  -88.75222 -88.70866 -18.91590 -14.18389 -10.09358
 Alpha  occ. eigenvalues --  -10.07859 -10.07718 -10.07253 -10.06307 -10.05984
 Alpha  occ. eigenvalues --  -10.05741 -10.05569 -10.05179 -10.04520 -10.04475
 Alpha  occ. eigenvalues --  -10.03059 -10.02701 -10.01597  -7.83843  -7.79528
 Alpha  occ. eigenvalues --   -5.80130  -5.79763  -5.79444  -5.75818  -5.75462
 Alpha  occ. eigenvalues --   -5.75139  -0.85925  -0.80213  -0.75674  -0.72708
 Alpha  occ. eigenvalues --   -0.64910  -0.63245  -0.62188  -0.61328  -0.58469
 Alpha  occ. eigenvalues --   -0.58175  -0.54645  -0.53245  -0.47342  -0.44539
 Alpha  occ. eigenvalues --   -0.43792  -0.41929  -0.39323  -0.38979  -0.37465
 Alpha  occ. eigenvalues --   -0.37124  -0.34906  -0.34298  -0.32349  -0.30538
 Alpha  occ. eigenvalues --   -0.30106  -0.29333  -0.29157  -0.28120  -0.27816
 Alpha  occ. eigenvalues --   -0.27110  -0.26537  -0.25879  -0.25317  -0.24506
 Alpha  occ. eigenvalues --   -0.23608  -0.23138  -0.22804  -0.22312  -0.21909
 Alpha  occ. eigenvalues --   -0.21626  -0.19414  -0.18758  -0.13309  -0.12339
 Alpha  occ. eigenvalues --   -0.11271  -0.10182  -0.08489  -0.06664   0.04157
 Alpha virt. eigenvalues --    0.07766   0.08080   0.09042   0.09306   0.09527
 Alpha virt. eigenvalues --    0.10204   0.10434   0.10940   0.11481   0.12071
 Alpha virt. eigenvalues --    0.12357   0.12708   0.13064   0.13557   0.14135

  Beta  occ. eigenvalues --  -88.75217 -88.70815 -18.91087 -14.18347 -10.09358
  Beta  occ. eigenvalues --  -10.07856 -10.07665 -10.07251 -10.06016 -10.05962
  Beta  occ. eigenvalues --  -10.05760 -10.05600 -10.05137 -10.04517 -10.04086
  Beta  occ. eigenvalues --  -10.03008 -10.02830 -10.01332  -7.83838  -7.79482
  Beta  occ. eigenvalues --   -5.80128  -5.79761  -5.79426  -5.75797  -5.75440
  Beta  occ. eigenvalues --   -5.74968  -0.85035  -0.80107  -0.75629  -0.72362
  Beta  occ. eigenvalues --   -0.64888  -0.62903  -0.62081  -0.61278  -0.58298
  Beta  occ. eigenvalues --   -0.57922  -0.54409  -0.53145  -0.47023  -0.44359
  Beta  occ. eigenvalues --   -0.43399  -0.41856  -0.39089  -0.38895  -0.37228
  Beta  occ. eigenvalues --   -0.37006  -0.34738  -0.34212  -0.32179  -0.30136
  Beta  occ. eigenvalues --   -0.30002  -0.29257  -0.29062  -0.28012  -0.27694
  Beta  occ. eigenvalues --   -0.26810  -0.26447  -0.25470  -0.25236  -0.24346
  Beta  occ. eigenvalues --   -0.23418  -0.22943  -0.22568  -0.22013  -0.21814
  Beta  occ. eigenvalues --   -0.21178  -0.18508  -0.17454  -0.13076  -0.12032
  Beta  occ. eigenvalues --   -0.10926  -0.09447  -0.06744  -0.06336
  Beta virt. eigenvalues --    0.07713   0.08016   0.09023   0.09132   0.09446
  Beta virt. eigenvalues --    0.10031   0.10255   0.10660   0.11184   0.11437
  Beta virt. eigenvalues --    0.12034   0.12552   0.12647   0.13027   0.13663

 Mulliken charges and spin densities:
               1          2
     1  C   -0.494364  -0.015185
     2  C   -0.183150  -0.012570
     3  N    0.220982   0.002021
     4  C   -0.949257  -0.067348
     5  C    0.234342   0.041477
     6  C    0.461201   0.049823
     7  C   -0.240126  -0.034196
     8  C   -0.555234   0.025240
     9  S    0.001977   0.022009
    10  C   -0.173297   0.016993
    11  C   -0.180089   0.197301
    12  O   -0.365627   0.183086
    13  C    0.359237  -0.047372
    14  C   -0.513617   0.237693
    15  C   -0.607317  -0.093519
    16  C    0.176510   0.177384
    17  S    0.046743   0.178574
    18  C   -0.458873  -0.031335
    19  H    0.113792   0.013646
    20  H    0.098453   0.005335
    21  H    0.179171   0.013969
    22  H    0.087737   0.000558
    23  H    0.141253  -0.002522
    24  H    0.134601   0.007456
    25  H    0.160332   0.003846
    26  H    0.196844  -0.001488
    27  H    0.117103   0.002095
    28  H    0.198280   0.014564
    29  H    0.123007   0.047331
    30  H    0.136109   0.007030
    31  H    0.084101  -0.012867
    32  H    0.096677   0.006487
    33  H    0.100616   0.041610
    34  H    0.132488   0.001406
    35  H    0.119394   0.021469
 Sum of Mulliken charges =  -1.00000   1.00000

 Dipole moment (field-independent basis, Debye):
    X=              0.9230    Y=              3.6223    Z=              2.5926  Tot=              4.5491
 Quadrupole moment (field-independent basis, Debye-Ang):
   XX=           -152.1095   YY=           -147.6031   ZZ=           -136.4471
   XY=             -3.4666   XZ=             -0.1778   YZ=             -5.5035

 Summary of Natural Population Analysis:

                                       Natural Population
                Natural  -----------------------------------------------
    Atom  No    Charge         Core      Valence    Rydberg      Total
 -----------------------------------------------------------------------
      C    1   -0.29149      0.99966     2.28775    0.00407     3.29149
      C    2   -0.08514      0.99962     2.07648    0.00904     3.08514
      N    3   -0.27516      0.99973     2.75958    0.01585     3.77516
      C    4   -0.09043      0.99955     2.07926    0.01162     3.09043
      C    5   -0.11475      0.99948     2.10012    0.01516     3.11475
      C    6   -0.11185      0.99946     2.10316    0.00923     3.11185
      C    7   -0.12859      0.99954     2.11939    0.00966     3.12859
      C    8   -0.18582      0.99955     2.17581    0.01046     3.18582
      S    9    0.20700      4.99939     2.77253    0.02109     7.79300
      C   10   -0.11866      0.99958     2.10611    0.01297     3.11866
      C   11    0.28424      0.99956     1.69465    0.02154     2.71576
      O   12   -0.26215      0.99988     3.25661    0.00566     4.26215
      C   13   -0.13520      0.99945     2.11939    0.01636     3.13520
      C   14   -0.06827      0.99949     2.05755    0.01123     3.06827
      C   15   -0.17315      0.99948     2.16434    0.00934     3.17315
      C   16   -0.03494      0.99953     2.02363    0.01179     3.03494
      S   17    0.22852      4.99937     2.75035    0.02176     7.77148
      C   18   -0.29791      0.99962     2.29326    0.00502     3.29791
      H   19    0.09092      0.00000     0.40718    0.00190     0.40908
      H   20    0.09301      0.00000     0.40621    0.00078     0.40699
      H   21    0.11018      0.00000     0.38860    0.00122     0.38982
      H   22    0.08135      0.00000     0.41740    0.00125     0.41865
      H   23    0.09751      0.00000     0.40049    0.00200     0.40249
      H   24    0.09740      0.00000     0.40149    0.00111     0.40260
      H   25    0.09490      0.00000     0.40396    0.00114     0.40510
      H   26    0.10451      0.00000     0.39421    0.00127     0.39549
      H   27    0.10351      0.00000     0.39540    0.00110     0.39649
      H   28    0.10392      0.00000     0.39512    0.00096     0.39608
      H   29    0.09921      0.00000     0.39937    0.00142     0.40079
      H   30    0.09158      0.00000     0.40725    0.00117     0.40842
      H   31    0.09325      0.00000     0.40577    0.00098     0.40675
      H   32    0.09313      0.00000     0.40579    0.00108     0.40687
      H   33    0.10132      0.00000     0.39758    0.00110     0.39868
      H   34    0.09726      0.00000     0.40182    0.00092     0.40274
      H   35    0.10079      0.00000     0.39815    0.00106     0.39921
 =======================================================================
   * Total *    0.00000     25.99195    47.76574    0.24232    74.00000

 Normal termination of Gaussian 16 at Fri Dec 11 20:18:29 2020.
