 Gaussian 16, Revision A.03,

 -----------------------------------------------------------
 # opt freq B3LYP/6-31G(d) empiricaldispersion=gd3bj scf=xqc
 -----------------------------------------------------------

 -------------------------------
 CID_104118502_JID_8379_neutraal
 -------------------------------
 Symbolic Z-matrix:
 Charge =  0 Multiplicity = 1

 SCF Done:  E(RB3LYP) =  -825.163847270     A.U. after   14 cycles
 SCF Done:  E(RB3LYP) =  -825.172541332     A.U. after   12 cycles
 SCF Done:  E(RB3LYP) =  -825.172188572     A.U. after   14 cycles
 SCF Done:  E(RB3LYP) =  -825.174822382     A.U. after   12 cycles
 SCF Done:  E(RB3LYP) =  -825.176596733     A.U. after   12 cycles
 SCF Done:  E(RB3LYP) =  -825.178267572     A.U. after   13 cycles
 SCF Done:  E(RB3LYP) =  -825.179428094     A.U. after   11 cycles
 SCF Done:  E(RB3LYP) =  -825.180160651     A.U. after   11 cycles
 SCF Done:  E(RB3LYP) =  -825.180590059     A.U. after   14 cycles
 SCF Done:  E(RB3LYP) =  -825.181605521     A.U. after   11 cycles
 SCF Done:  E(RB3LYP) =  -825.182860917     A.U. after    8 cycles
 SCF Done:  E(RB3LYP) =  -825.182861036     A.U. after    7 cycles
 SCF Done:  E(RB3LYP) =  -825.182861124     A.U. after    7 cycles
 SCF Done:  E(RB3LYP) =  -825.182861253     A.U. after    7 cycles
 SCF Done:  E(RB3LYP) =  -825.182861312     A.U. after    6 cycles
 SCF Done:  E(RB3LYP) =  -825.182861333     A.U. after    6 cycles
 Optimization completed.
    -- Stationary point found.
 Normal termination of Gaussian 16 at Fri Dec 11 20:51:16 2020.

 --------------------------------------------------------------------
 #N Geom=AllCheck Guess=TCheck SCRF=Check GenChk RB3LYP/6-31G(d) Freq
 --------------------------------------------------------------------

 Structure from the checkpoint file:  "JID_8379.chk"
 -------------------------------
 CID_104118502_JID_8379_neutraal
 -------------------------------
 Charge =  0 Multiplicity = 1

 SCF Done:  E(RB3LYP) =  -825.182861333     A.U. after    1 cycles

  Exact polarizability: 177.505   5.523 179.659 -11.160   1.952 130.636
 Approx polarizability: 236.513   2.355 248.981 -19.992   3.000 190.920

                      1                      2                      3
                      A                      A                      A
 Frequencies --     25.0602                33.3618                38.4160
 Red. masses --      3.2563                 3.2216                 3.0534
 Frc consts  --      0.0012                 0.0021                 0.0027
 IR Inten    --      0.0939                 2.1122                 0.0312

                      4                      5                      6
                      A                      A                      A
 Frequencies --     49.3448                55.3219                64.8848
 Red. masses --      3.9737                 3.1636                 3.8875
 Frc consts  --      0.0057                 0.0057                 0.0096
 IR Inten    --      1.5540                 1.2867                 0.3765

                      7                      8                      9
                      A                      A                      A
 Frequencies --     84.1434               100.2232               110.6371
 Red. masses --      3.0518                 2.8676                 1.8687
 Frc consts  --      0.0127                 0.0170                 0.0135
 IR Inten    --      0.5660                 0.8157                 0.2701

                     10                     11                     12
                      A                      A                      A
 Frequencies --    127.1556               145.3336               179.9180
 Red. masses --      1.6802                 3.9552                 2.7148
 Frc consts  --      0.0160                 0.0492                 0.0518
 IR Inten    --      0.5875                 0.8008                 3.4918

                     13                     14                     15
                      A                      A                      A
 Frequencies --    230.9069               231.4729               239.0692
 Red. masses --      1.0687                 1.2292                 2.5103
 Frc consts  --      0.0336                 0.0388                 0.0845
 IR Inten    --      0.1001                 2.5754                 3.1384

                     16                     17                     18
                      A                      A                      A
 Frequencies --    253.9679               266.2794               283.7238
 Red. masses --      1.3612                 2.9516                 2.0190
 Frc consts  --      0.0517                 0.1233                 0.0958
 IR Inten    --      1.3915                 1.4804                 1.4945

                     19                     20                     21
                      A                      A                      A
 Frequencies --    298.6521               306.3897               333.4202
 Red. masses --      3.1602                 1.1569                 2.5951
 Frc consts  --      0.1661                 0.0640                 0.1700
 IR Inten    --      5.1088                 0.6009                 2.1209

                     22                     23                     24
                      A                      A                      A
 Frequencies --    357.3465               366.0557               372.2486
 Red. masses --      2.5349                 2.4768                 2.1963
 Frc consts  --      0.1907                 0.1955                 0.1793
 IR Inten    --      6.0383                 0.4345                 0.3224

                     25                     26                     27
                      A                      A                      A
 Frequencies --    391.2099               397.0981               432.7667
 Red. masses --      2.6218                 2.9169                 2.3321
 Frc consts  --      0.2364                 0.2710                 0.2573
 IR Inten    --      0.7089                 1.8473                11.1660

                     28                     29                     30
                      A                      A                      A
 Frequencies --    437.6598               531.3931               551.5715
 Red. masses --      3.9562                 2.8306                 3.6292
 Frc consts  --      0.4465                 0.4709                 0.6505
 IR Inten    --      9.5389                 1.5453                 8.2131

                     31                     32                     33
                      A                      A                      A
 Frequencies --    574.3504               617.5253               653.2428
 Red. masses --      2.4666                 4.1643                 1.3092
 Frc consts  --      0.4794                 0.9356                 0.3292
 IR Inten    --      1.4791                 9.3523                40.5798

                     34                     35                     36
                      A                      A                      A
 Frequencies --    681.4731               700.2628               742.4740
 Red. masses --      3.8515                 2.2040                 6.5260
 Frc consts  --      1.0538                 0.6368                 2.1196
 IR Inten    --     11.7648                55.7932                 9.1042

                     37                     38                     39
                      A                      A                      A
 Frequencies --    776.6202               791.8160               812.7046
 Red. masses --      1.4586                 5.3974                 2.1410
 Frc consts  --      0.5183                 1.9938                 0.8332
 IR Inten    --     14.5649                41.0261                 0.7562

                     40                     41                     42
                      A                      A                      A
 Frequencies --    837.1786               929.0788               933.2847
 Red. masses --      1.9125                 2.9872                 1.5358
 Frc consts  --      0.7898                 1.5192                 0.7882
 IR Inten    --     44.0509                19.4669                 1.0801

                     43                     44                     45
                      A                      A                      A
 Frequencies --    934.6046               937.0893               945.5834
 Red. masses --      2.0470                 1.3043                 3.4492
 Frc consts  --      1.0535                 0.6748                 1.8171
 IR Inten    --      5.6577                 4.9937                13.0580

                     46                     47                     48
                      A                      A                      A
 Frequencies --    950.1571               955.1034               989.8518
 Red. masses --      1.4399                 1.2219                 1.9133
 Frc consts  --      0.7659                 0.6567                 1.1045
 IR Inten    --      2.1100                 1.1507                 1.6927

                     49                     50                     51
                      A                      A                      A
 Frequencies --   1020.3588              1040.7714              1059.5734
 Red. masses --      4.0017                 2.8427                 3.7671
 Frc consts  --      2.4547                 1.8142                 2.4918
 IR Inten    --     15.4651                 7.0580                11.0432

                     52                     53                     54
                      A                      A                      A
 Frequencies --   1075.6053              1095.2383              1114.2900
 Red. masses --      2.7492                 6.2737                 1.6912
 Frc consts  --      1.8740                 4.4339                 1.2372
 IR Inten    --     35.7707                13.5924                58.8103

                     55                     56                     57
                      A                      A                      A
 Frequencies --   1132.9697              1152.4306              1158.3203
 Red. masses --      3.8045                 2.0481                 2.0764
 Frc consts  --      2.8773                 1.6026                 1.6414
 IR Inten    --     29.6937                16.2679                 9.9120

                     58                     59                     60
                      A                      A                      A
 Frequencies --   1160.4406              1172.4904              1189.8235
 Red. masses --      1.3256                 1.5295                 2.0864
 Frc consts  --      1.0518                 1.2389                 1.7403
 IR Inten    --     24.6794                 5.6876               131.4761

                     61                     62                     63
                      A                      A                      A
 Frequencies --   1207.0677              1210.8061              1215.4583
 Red. masses --      2.1382                 1.9569                 1.9916
 Frc consts  --      1.8355                 1.6903                 1.7335
 IR Inten    --     40.0275                23.9514                13.6641

                     64                     65                     66
                      A                      A                      A
 Frequencies --   1250.3762              1262.9143              1285.0988
 Red. masses --      2.0669                 2.2517                 1.9290
 Frc consts  --      1.9040                 2.1160                 1.8770
 IR Inten    --      1.3951                11.9534                25.3492

                     67                     68                     69
                      A                      A                      A
 Frequencies --   1321.7691              1344.6781              1358.1211
 Red. masses --      1.5198                 1.7977                 1.3753
 Frc consts  --      1.5644                 1.9152                 1.4946
 IR Inten    --     12.4721                10.8654                11.1071

                     70                     71                     72
                      A                      A                      A
 Frequencies --   1364.2730              1369.1774              1379.9745
 Red. masses --      1.3949                 1.3629                 1.3252
 Frc consts  --      1.5297                 1.5053                 1.4869
 IR Inten    --     32.1300                11.1228                 5.9478

                     73                     74                     75
                      A                      A                      A
 Frequencies --   1389.0466              1409.4485              1410.5129
 Red. masses --      1.2536                 1.2530                 1.2079
 Frc consts  --      1.4251                 1.4665                 1.4159
 IR Inten    --     17.0730                 1.6265                 4.9119

                     76                     77                     78
                      A                      A                      A
 Frequencies --   1422.3419              1428.9627              1441.3325
 Red. masses --      1.2743                 1.3055                 1.4761
 Frc consts  --      1.5189                 1.5706                 1.8068
 IR Inten    --      2.8726                18.4527                27.8267

                     79                     80                     81
                      A                      A                      A
 Frequencies --   1442.3010              1446.8442              1449.7438
 Red. masses --      1.3219                 2.2830                 1.2703
 Frc consts  --      1.6201                 2.8158                 1.5730
 IR Inten    --     16.7433                75.4116                11.7137

                     82                     83                     84
                      A                      A                      A
 Frequencies --   1487.5163              1493.0060              1507.8831
 Red. masses --      1.2585                 1.0878                 1.1367
 Frc consts  --      1.6407                 1.4286                 1.5228
 IR Inten    --     16.2586                 3.9284                16.6397

                     85                     86                     87
                      A                      A                      A
 Frequencies --   1509.1104              1514.3217              1516.5506
 Red. masses --      1.1280                 1.0524                 1.0490
 Frc consts  --      1.5136                 1.4219                 1.4215
 IR Inten    --     29.0588                 0.5800                 0.1438

                     88                     89                     90
                      A                      A                      A
 Frequencies --   1518.8932              1522.8206              1525.9180
 Red. masses --      1.0612                 1.0511                 1.0528
 Frc consts  --      1.4425                 1.4361                 1.4444
 IR Inten    --      3.3850                22.2449                 3.7284

                     91                     92                     93
                      A                      A                      A
 Frequencies --   1527.9402              1536.6133              1539.6782
 Red. masses --      1.0599                 1.1098                 1.0827
 Frc consts  --      1.4579                 1.5439                 1.5123
 IR Inten    --      3.7269                 7.0006                 6.2808

                     94                     95                     96
                      A                      A                      A
 Frequencies --   1540.7751              1546.9596              1549.3063
 Red. masses --      1.0591                 1.0690                 1.0557
 Frc consts  --      1.4814                 1.5072                 1.4930
 IR Inten    --     16.6963                10.1256                 5.2052

                     97                     98                     99
                      A                      A                      A
 Frequencies --   1638.6669              1683.3315              3018.2489
 Red. masses --      6.4223                 6.5547                 1.0534
 Frc consts  --     10.1607                10.9431                 5.6542
 IR Inten    --     64.9219               464.7414                78.9218

                    100                    101                    102
                      A                      A                      A
 Frequencies --   3033.2074              3041.5604              3046.6842
 Red. masses --      1.0424                 1.0391                 1.0621
 Frc consts  --      5.6503                 5.6637                 5.8087
 IR Inten    --     18.2185                39.4172                33.4772

                    103                    104                    105
                      A                      A                      A
 Frequencies --   3046.8981              3048.4994              3055.1387
 Red. masses --      1.0595                 1.0368                 1.0394
 Frc consts  --      5.7950                 5.6772                 5.7158
 IR Inten    --     33.4470                31.5920                10.8237

                    106                    107                    108
                      A                      A                      A
 Frequencies --   3061.9880              3063.9617              3080.0032
 Red. masses --      1.0858                 1.0828                 1.0597
 Frc consts  --      5.9981                 5.9894                 5.9230
 IR Inten    --     33.7498                15.6211                31.3071

                    109                    110                    111
                      A                      A                      A
 Frequencies --   3090.7940              3093.4898              3107.3763
 Red. masses --      1.1036                 1.0995                 1.1002
 Frc consts  --      6.2116                 6.1991                 6.2591
 IR Inten    --     13.6487                11.5440                82.3935

                    112                    113                    114
                      A                      A                      A
 Frequencies --   3112.4709              3115.1276              3116.5867
 Red. masses --      1.0987                 1.0855                 1.0988
 Frc consts  --      6.2708                 6.2063                 6.2882
 IR Inten    --      4.6530                17.2605                19.0493

                    115                    116                    117
                      A                      A                      A
 Frequencies --   3121.0324              3129.7246              3131.5723
 Red. masses --      1.1011                 1.1014                 1.1035
 Frc consts  --      6.3195                 6.3563                 6.3760
 IR Inten    --     52.7251                29.3457                20.6728

                    118                    119                    120
                      A                      A                      A
 Frequencies --   3133.8892              3138.5097              3155.4778
 Red. masses --      1.1039                 1.1056                 1.0972
 Frc consts  --      6.3877                 6.4163                 6.4369
 IR Inten    --     17.2216                40.2616                12.2663

                    121                    122                    123
                      A                      A                      A
 Frequencies --   3166.6874              3316.9002              3494.3263
 Red. masses --      1.1027                 1.0996                 1.0737
 Frc consts  --      6.5153                 7.1278                 7.7244
 IR Inten    --      9.1681                 0.5518                 0.6327

 - Thermochemistry -
 -------------------
 Temperature   298.150 Kelvin.  Pressure   1.00000 Atm.
 Atom     1 has atomic number  6 and mass  12.00000

 Molecular mass:   255.19468 amu.
 Principal axes and moments of inertia in atomic units:
                           1         2         3
     Eigenvalues --  4377.915645580.424428550.73329
           X            0.99846   0.05484   0.00860
           Y           -0.05476   0.99846  -0.00943
           Z           -0.00911   0.00895   0.99992
 This molecule is an asymmetric top.
 Rotational symmetry number  1.
 Warning -- assumption of classical behavior for rotation
           may cause significant error
 Rotational temperatures (Kelvin)      0.01978     0.01552     0.01013
 Rotational constants (GHZ):           0.41224     0.32341     0.21106
 Zero-point vibrational energy    1004381.3 (Joules/Mol)
                                  240.05289 (Kcal/Mol)
 Warning -- explicit consideration of  32 degrees of freedom as
           vibrations may cause significant error
 Vibrational temperatures:     36.06    48.00    55.27    71.00    79.60
          (Kelvin)             93.35   121.06   144.20   159.18   182.95
                              209.10   258.86   332.22   333.04   343.97
                              365.40   383.12   408.22   429.69   440.83
                              479.72   514.14   526.67   535.58   562.86
                              571.34   622.65   629.69   764.56   793.59
                              826.36   888.48   939.87   980.49  1007.52
                             1068.25  1117.38  1139.25  1169.30  1204.51
                             1336.74  1342.79  1344.69  1348.26  1360.48
                             1367.06  1374.18  1424.18  1468.07  1497.44
                             1524.49  1547.56  1575.80  1603.21  1630.09
                             1658.09  1666.56  1669.62  1686.95  1711.89
                             1736.70  1742.08  1748.77  1799.01  1817.05
                             1848.97  1901.73  1934.69  1954.03  1962.88
                             1969.94  1985.48  1998.53  2027.88  2029.41
                             2046.43  2055.96  2073.76  2075.15  2081.69
                             2085.86  2140.20  2148.10  2169.51  2171.27
                             2178.77  2181.98  2185.35  2191.00  2195.46
                             2198.37  2210.84  2215.25  2216.83  2225.73
                             2229.11  2357.68  2421.94  4342.59  4364.11
                             4376.13  4383.50  4383.81  4386.11  4395.66
                             4405.52  4408.36  4431.44  4446.96  4450.84
                             4470.82  4478.15  4481.97  4484.07  4490.47
                             4502.98  4505.63  4508.97  4515.62  4540.03
                             4556.16  4772.28  5027.56

 Zero-point correction=                           0.382549 (Hartree/Particle)
 Thermal correction to Energy=                    0.403364
 Thermal correction to Enthalpy=                  0.404308
 Thermal correction to Gibbs Free Energy=         0.331381
 Sum of electronic and zero-point Energies=           -824.800313
 Sum of electronic and thermal Energies=              -824.779497
 Sum of electronic and thermal Enthalpies=            -824.778553
 Sum of electronic and thermal Free Energies=         -824.851480

                     E (Thermal)             CV                S
                      KCal/Mol        Cal/Mol-Kelvin    Cal/Mol-Kelvin
 Total                  253.115             76.213            153.487
 Electronic               0.000              0.000              0.000
 Translational            0.889              2.981             42.511
 Rotational               0.889              2.981             33.701
 Vibrational            251.337             70.252             77.276
 Vibration     1          0.593              1.985              6.186
 Vibration     2          0.594              1.983              5.619
 Vibration     3          0.594              1.982              5.339
 Vibration     4          0.595              1.978              4.843
 Vibration     5          0.596              1.975              4.617
 Vibration     6          0.597              1.971              4.303
 Vibration     7          0.601              1.960              3.792
 Vibration     8          0.604              1.949              3.450
 Vibration     9          0.606              1.941              3.258
 Vibration    10          0.611              1.926              2.989
 Vibration    11          0.617              1.908              2.732
 Vibration    12          0.629              1.867              2.329
 Vibration    13          0.653              1.794              1.872
 Vibration    14          0.653              1.793              1.867
 Vibration    15          0.657              1.781              1.810
 Vibration    16          0.665              1.756              1.703
 Vibration    17          0.672              1.735              1.620
 Vibration    18          0.682              1.704              1.511
 Vibration    19          0.692              1.676              1.424
 Vibration    20          0.697              1.662              1.382
 Vibration    21          0.715              1.609              1.243
 Vibration    22          0.733              1.560              1.134
 Vibration    23          0.739              1.542              1.096
 Vibration    24          0.744              1.529              1.071
 Vibration    25          0.759              1.489              0.996
 Vibration    26          0.764              1.476              0.973
 Vibration    27          0.794              1.399              0.850
 Vibration    28          0.798              1.388              0.834
 Vibration    29          0.886              1.181              0.584
 Vibration    30          0.907              1.136              0.541
 Vibration    31          0.931              1.087              0.496
 Vibration    32          0.977              0.995              0.420

 Optimization completed.
    -- Stationary point found.
 Normal termination of Gaussian 16 at Fri Dec 11 21:14:20 2020.

 ----------------------------------------------------------------------
 # B3LYP/6-311++G(d,p) empiricaldispersion=gd3bj scf=xqc pop=npa geom=c
 heck
 ----------------------------------------------------------------------

 ---------------------------------------
 CID_104118502_JID_8379_Energie_neutraal
 ---------------------------------------
 Structure from the checkpoint file:  "JID_8379.chk"
 Charge =  0 Multiplicity = 1

 SCF Done:  E(RB3LYP) =  -825.417154741     A.U. after   15 cycles
 Normal termination of Gaussian 16 at Fri Dec 11 21:25:39 2020.

 ----------------------------------------------------------------------
 # B3LYP/6-311++G(d,p) empiricaldispersion=gd3bj scf=xqc pop=npa geom=c
 heck
 ----------------------------------------------------------------------

 -------------------------------------
 CID_104118502_JID_8379_Energie_kation
 -------------------------------------
 Structure from the checkpoint file:  "JID_8379.chk"
 Charge =  1 Multiplicity = 2

 SCF Done:  E(UB3LYP) =  -825.149487827     A.U. after   24 cycles
 Normal termination of Gaussian 16 at Fri Dec 11 21:51:17 2020.
 Gaussian 16:  ES64L-G16RevA.03 25-Dec-2016

 ----------------------------------------------------------------------
 # B3LYP/6-311++G(d,p) empiricaldispersion=gd3bj scf=xqc pop=npa geom=c
 heck
 ----------------------------------------------------------------------

 ------------------------------------
 CID_104118502_JID_8379_Energie_anion
 ------------------------------------
 Structure from the checkpoint file:  "JID_8379.chk"
 Charge = -1 Multiplicity = 2

                         Standard orientation:
 ---------------------------------------------------------------------
 Center     Atomic      Atomic             Coordinates (Angstroms)
 Number     Number       Type             X           Y           Z
 ---------------------------------------------------------------------
      1          6           0       -3.817273   -2.380198   -0.605653
      2          6           0       -2.796076   -1.254408   -0.403058
      3          6           0       -2.199086   -0.809789   -1.745292
      4          7           0       -3.436871   -0.159994    0.349790
      5          6           0       -2.635311    0.527926    1.362173
      6          6           0       -1.499378    1.390958    0.888053
      7          6           0       -1.430045    2.741154    0.824811
      8          8           0       -0.187201    3.086303    0.294721
      9          6           0        0.419526    1.889511    0.075785
     10          7           0       -0.301697    0.847217    0.405466
     11          7           0        1.680335    1.890914   -0.430833
     12          6           0        2.272458    3.125866   -0.919921
     13          6           0        2.206287    0.601208   -0.881274
     14          6           0        2.722333   -0.240946    0.290904
     15          8           0        3.185652   -1.497460   -0.177517
     16          6           0        2.360278   -2.637383    0.109396
     17          6           0        2.333587   -2.952526    1.607141
     18          6           0        0.955360   -2.518768   -0.486349
     19          1           0       -4.660201   -2.027824   -1.213507
     20          1           0       -4.216169   -2.712602    0.357404
     21          1           0       -3.366471   -3.238271   -1.119125
     22          1           0       -1.982320   -1.634614    0.225648
     23          1           0       -2.985933   -0.401875   -2.394891
     24          1           0       -1.431545   -0.047257   -1.597958
     25          1           0       -1.744801   -1.657303   -2.272280
     26          1           0       -3.828624    0.520667   -0.298120
     27          1           0       -3.316021    1.151250    1.955042
     28          1           0       -2.235910   -0.236096    2.039516
     29          1           0       -2.078402    3.561029    1.085536
     30          1           0        3.360655    3.026579   -0.899005
     31          1           0        1.959859    3.363518   -1.947800
     32          1           0        1.986954    3.955111   -0.270882
     33          1           0        1.426074    0.047851   -1.412979
     34          1           0        3.021157    0.791489   -1.584802
     35          1           0        3.564640    0.275100    0.768803
     36          1           0        1.925962   -0.339032    1.033588
     37          1           0        2.889727   -3.449961   -0.401379
     38          1           0        1.775274   -2.196949    2.170945
     39          1           0        1.848588   -3.919295    1.782944
     40          1           0        3.353265   -2.997582    2.002476
     41          1           0        1.009011   -2.366070   -1.569417
     42          1           0        0.388851   -3.438686   -0.300152
     43          1           0        0.400443   -1.682497   -0.048491
 ---------------------------------------------------------------------

 SCF Done:  E(UB3LYP) =  -825.403831594     A.U. after   32 cycles

 The electronic state is 2-A.
 Alpha  occ. eigenvalues --  -19.10048 -19.02871 -14.25664 -14.20615 -14.20288
 Alpha  occ. eigenvalues --  -10.19885 -10.13304 -10.12562 -10.12001 -10.11312
 Alpha  occ. eigenvalues --  -10.11277 -10.11048 -10.10866 -10.10783 -10.07261
 Alpha  occ. eigenvalues --  -10.06721 -10.06494 -10.06265  -1.03813  -0.93997
 Alpha  occ. eigenvalues --   -0.87292  -0.82884  -0.80855  -0.69866  -0.69106
 Alpha  occ. eigenvalues --   -0.66805  -0.65531  -0.60477  -0.60175  -0.59369
 Alpha  occ. eigenvalues --   -0.58776  -0.55204  -0.51060  -0.49766  -0.48163
 Alpha  occ. eigenvalues --   -0.47223  -0.44250  -0.41588  -0.40140  -0.39361
 Alpha  occ. eigenvalues --   -0.38951  -0.38400  -0.37662  -0.36621  -0.35402
 Alpha  occ. eigenvalues --   -0.34417  -0.33952  -0.33584  -0.33284  -0.32126
 Alpha  occ. eigenvalues --   -0.31920  -0.30956  -0.30795  -0.30282  -0.29858
 Alpha  occ. eigenvalues --   -0.29461  -0.29400  -0.28475  -0.26663  -0.26389
 Alpha  occ. eigenvalues --   -0.25622  -0.25218  -0.24454  -0.22940  -0.21115
 Alpha  occ. eigenvalues --   -0.20011  -0.19895  -0.16790  -0.13672  -0.11347
 Alpha  occ. eigenvalues --    0.04034
 Alpha virt. eigenvalues --    0.05677   0.06054   0.06747   0.07565   0.08161
 Alpha virt. eigenvalues --    0.08313   0.08561   0.09066   0.09670   0.09762
 Alpha virt. eigenvalues --    0.10105   0.10648   0.10960   0.11238   0.11457

  Beta  occ. eigenvalues --  -19.10041 -19.02870 -14.25663 -14.20608 -14.20281
  Beta  occ. eigenvalues --  -10.19881 -10.13298 -10.12547 -10.11989 -10.11303
  Beta  occ. eigenvalues --  -10.11263 -10.10996 -10.10868 -10.10780 -10.07243
  Beta  occ. eigenvalues --  -10.06708 -10.06479 -10.06253  -1.03802  -0.93990
  Beta  occ. eigenvalues --   -0.87282  -0.82871  -0.80841  -0.69847  -0.69089
  Beta  occ. eigenvalues --   -0.66786  -0.65497  -0.60426  -0.60142  -0.59343
  Beta  occ. eigenvalues --   -0.58750  -0.55171  -0.51042  -0.49741  -0.48130
  Beta  occ. eigenvalues --   -0.47185  -0.44225  -0.41568  -0.40117  -0.39338
  Beta  occ. eigenvalues --   -0.38903  -0.38374  -0.37643  -0.36592  -0.35372
  Beta  occ. eigenvalues --   -0.34391  -0.33933  -0.33561  -0.33259  -0.32102
  Beta  occ. eigenvalues --   -0.31891  -0.30934  -0.30766  -0.30252  -0.29838
  Beta  occ. eigenvalues --   -0.29438  -0.29381  -0.28453  -0.26647  -0.26370
  Beta  occ. eigenvalues --   -0.25602  -0.25205  -0.24432  -0.22917  -0.21101
  Beta  occ. eigenvalues --   -0.19996  -0.19881  -0.16777  -0.13663  -0.11330
  Beta virt. eigenvalues --    0.05832   0.06542   0.06790   0.07074   0.07890
  Beta virt. eigenvalues --    0.08388   0.08690   0.08898   0.09270   0.09886
  Beta virt. eigenvalues --    0.10132   0.10336   0.10889   0.11047   0.11520

 Mulliken charges and spin densities:
               1          2
     1  C   -0.146942  -0.287718
     2  C   -0.671321   0.518544
     3  C    0.214798  -0.770762
     4  N    0.171698  -0.020247
     5  C    0.317133  -1.010269
     6  C    1.677039  -0.860757
     7  C   -1.650306   1.116154
     8  O   -0.075324   0.026412
     9  C   -0.315543  -0.107330
    10  N   -0.105120   0.043939
    11  N   -0.073035   0.167158
    12  C    1.435307  -1.719970
    13  C   -0.167957  -0.360488
    14  C    0.008455  -0.161870
    15  O   -0.052998   0.007895
    16  C   -0.219104   0.029108
    17  C    0.078146  -0.557283
    18  C   -0.452701  -0.070564
    19  H    0.058999   0.063470
    20  H    0.001221   0.143794
    21  H   -0.016357   0.134176
    22  H    0.000851   0.173986
    23  H   -0.077635   0.208567
    24  H    0.172180   0.034871
    25  H    0.055467   0.049980
    26  H    0.153889   0.039998
    27  H    0.034429   0.147924
    28  H    0.070818   0.090669
    29  H   -0.895636   1.077331
    30  H   -0.431651   0.590874
    31  H   -0.439827   0.619272
    32  H   -0.276559   0.452069
    33  H    0.151643   0.004987
    34  H   -0.093476   0.278559
    35  H   -0.108433   0.272818
    36  H    0.256658  -0.041916
    37  H   -0.155297   0.343351
    38  H   -0.021039   0.159353
    39  H   -0.130328   0.257465
    40  H    0.048287   0.104641
    41  H   -0.028363   0.211501
    42  H   -0.036845   0.184361
    43  H    0.734777  -0.584053
 Sum of Mulliken charges =  -1.00000   1.00000

 Dipole moment (field-independent basis, Debye):
    X=             -2.2579    Y=             -3.1734    Z=              1.2523  Tot=              4.0911
 Quadrupole moment (field-independent basis, Debye-Ang):
   XX=           -185.1399   YY=           -191.7586   ZZ=           -149.0808
   XY=             -6.1581   XZ=              6.5856   YZ=              4.6702

 Summary of Natural Population Analysis:

                                       Natural Population
                Natural  -----------------------------------------------
    Atom  No    Charge         Core      Valence    Rydberg      Total
 -----------------------------------------------------------------------
      C    1   -0.28243      0.99965     2.27763    0.00515     3.28243
      C    2   -0.01808      0.99962     2.00807    0.01039     3.01808
      C    3   -0.29452      0.99964     2.28898    0.00590     3.29452
      N    4   -0.33938      0.99974     2.82805    0.01159     3.83938
      C    5   -0.09830      0.99958     2.08663    0.01210     3.09830
      C    6    0.03994      0.99951     1.94638    0.01416     2.96006
      C    7    0.02565      0.99940     1.96184    0.01311     2.97435
      O    8   -0.24600      0.99986     3.23890    0.00724     4.24600
      C    9    0.37001      0.99956     1.61113    0.01931     2.62999
      N   10   -0.30345      0.99967     2.79413    0.00966     3.80345
      N   11   -0.25476      0.99963     2.74314    0.01199     3.75476
      C   12   -0.17184      0.99963     2.16401    0.00820     3.17184
      C   13   -0.09017      0.99960     2.07918    0.01138     3.09017
      C   14   -0.01859      0.99956     2.00641    0.01262     3.01859
      O   15   -0.30771      0.99988     3.29812    0.00970     4.30771
      C   16    0.06811      0.99957     1.91873    0.01358     2.93189
      C   17   -0.29928      0.99964     2.29514    0.00450     3.29928
      C   18   -0.31041      0.99964     2.30423    0.00653     3.31041
      H   19    0.09412      0.00000     0.40485    0.00104     0.40588
      H   20    0.10041      0.00000     0.39834    0.00125     0.39959
      H   21    0.09553      0.00000     0.40355    0.00092     0.40447
      H   22    0.09330      0.00000     0.40434    0.00236     0.40670
      H   23    0.09181      0.00000     0.40729    0.00090     0.40819
      H   24    0.10950      0.00000     0.38878    0.00173     0.39050
      H   25    0.09865      0.00000     0.40049    0.00086     0.40135
      H   26    0.17091      0.00000     0.32630    0.00279     0.32909
      H   27    0.09849      0.00000     0.40055    0.00095     0.40151
      H   28    0.09877      0.00000     0.39981    0.00142     0.40123
      H   29    0.10056      0.00000     0.39785    0.00159     0.39944
      H   30    0.09971      0.00000     0.39840    0.00189     0.40029
      H   31    0.09337      0.00000     0.40453    0.00209     0.40663
      H   32    0.10681      0.00000     0.39110    0.00209     0.39319
      H   33    0.10072      0.00000     0.39709    0.00219     0.39928
      H   34    0.09954      0.00000     0.39906    0.00141     0.40046
      H   35    0.08579      0.00000     0.41286    0.00135     0.41421
      H   36    0.09187      0.00000     0.40608    0.00204     0.40813
      H   37    0.08710      0.00000     0.41153    0.00138     0.41290
      H   38    0.09846      0.00000     0.40043    0.00111     0.40154
      H   39    0.10131      0.00000     0.39764    0.00105     0.39869
      H   40    0.10156      0.00000     0.39741    0.00104     0.39844
      H   41    0.10110      0.00000     0.39786    0.00105     0.39890
      H   42    0.10105      0.00000     0.39793    0.00103     0.39895
      H   43    0.11076      0.00000     0.38708    0.00216     0.38924
 =======================================================================
   * Total *    0.00000     17.99337    51.78183    0.22480    70.00000

 Normal termination of Gaussian 16 at Fri Dec 11 22:25:23 2020.
