 Gaussian 16, Revision A.03,

 -----------------------------------------------------------
 # opt freq B3LYP/6-31G(d) empiricaldispersion=gd3bj scf=xqc
 -----------------------------------------------------------

 ------------------------------
 CID_81072177_JID_4373_neutraal
 ------------------------------
 Symbolic Z-matrix:
 Charge =  0 Multiplicity = 1

 SCF Done:  E(RB3LYP) =  -617.210894577     A.U. after   14 cycles
 SCF Done:  E(RB3LYP) =  -617.216162808     A.U. after   11 cycles
 SCF Done:  E(RB3LYP) =  -617.217368390     A.U. after   12 cycles
 SCF Done:  E(RB3LYP) =  -617.218813271     A.U. after   12 cycles
 SCF Done:  E(RB3LYP) =  -617.220105910     A.U. after   11 cycles
 SCF Done:  E(RB3LYP) =  -617.220892035     A.U. after   12 cycles
 SCF Done:  E(RB3LYP) =  -617.221370768     A.U. after   12 cycles
 SCF Done:  E(RB3LYP) =  -617.221481180     A.U. after   11 cycles
 SCF Done:  E(RB3LYP) =  -617.221591524     A.U. after   11 cycles
 SCF Done:  E(RB3LYP) =  -617.221609494     A.U. after   10 cycles
 SCF Done:  E(RB3LYP) =  -617.221614347     A.U. after    9 cycles
 SCF Done:  E(RB3LYP) =  -617.221615388     A.U. after   10 cycles
 SCF Done:  E(RB3LYP) =  -617.221616808     A.U. after    9 cycles
 SCF Done:  E(RB3LYP) =  -617.221616886     A.U. after    7 cycles
 SCF Done:  E(RB3LYP) =  -617.221616900     A.U. after    6 cycles
 Optimization completed.
    -- Stationary point found.
 Normal termination of Gaussian 16 at Thu Dec 10 09:31:07 2020.

 --------------------------------------------------------------------
 #N Geom=AllCheck Guess=TCheck SCRF=Check GenChk RB3LYP/6-31G(d) Freq
 --------------------------------------------------------------------

 Structure from the checkpoint file:  "JID_4373.chk"
 ------------------------------
 CID_81072177_JID_4373_neutraal
 ------------------------------
 Charge =  0 Multiplicity = 1

 SCF Done:  E(RB3LYP) =  -617.221616900     A.U. after    1 cycles

  Exact polarizability: 150.936   5.020 118.910   1.289   3.301 116.512
 Approx polarizability: 192.547   8.980 176.118   6.912  10.749 169.599

                      1                      2                      3
                      A                      A                      A
 Frequencies --     35.3454                52.0717                63.7655
 Red. masses --      3.2072                 3.2832                 3.4833
 Frc consts  --      0.0024                 0.0052                 0.0083
 IR Inten    --      1.2593                 0.2153                 2.1927

                      4                      5                      6
                      A                      A                      A
 Frequencies --     80.7428               107.6467               154.9006
 Red. masses --      3.4330                 3.0534                 2.6110
 Frc consts  --      0.0132                 0.0208                 0.0369
 IR Inten    --      1.3020                 7.4550                 0.8699

                      7                      8                      9
                      A                      A                      A
 Frequencies --    179.1554               208.8243               220.3993
 Red. masses --      3.4051                 2.0428                 1.6623
 Frc consts  --      0.0644                 0.0525                 0.0476
 IR Inten    --      5.5557                 4.1713                16.3145

                     10                     11                     12
                      A                      A                      A
 Frequencies --    233.5467               269.6912               280.9466
 Red. masses --      1.4819                 3.4868                 2.0802
 Frc consts  --      0.0476                 0.1494                 0.0967
 IR Inten    --     28.3328                 1.7653                12.3979

                     13                     14                     15
                      A                      A                      A
 Frequencies --    306.1001               314.0681               364.6646
 Red. masses --      1.4925                 2.0833                 2.5571
 Frc consts  --      0.0824                 0.1211                 0.2003
 IR Inten    --      3.6787                 1.1015                 1.0866

                     16                     17                     18
                      A                      A                      A
 Frequencies --    380.8357               407.6653               430.8524
 Red. masses --      2.8658                 2.2443                 2.2450
 Frc consts  --      0.2449                 0.2198                 0.2455
 IR Inten    --      2.7926                 0.5665                 4.5688

                     19                     20                     21
                      A                      A                      A
 Frequencies --    474.3241               502.5492               528.3493
 Red. masses --      2.7103                 1.7171                 2.9531
 Frc consts  --      0.3593                 0.2555                 0.4857
 IR Inten    --      6.1560                 1.7062                 7.8650

                     22                     23                     24
                      A                      A                      A
 Frequencies --    532.4896               594.5404               693.7676
 Red. masses --      2.3718                 3.6324                 2.7056
 Frc consts  --      0.3962                 0.7565                 0.7673
 IR Inten    --      4.3321                18.3847                 2.6130

                     25                     26                     27
                      A                      A                      A
 Frequencies --    772.0345               794.5862               809.2435
 Red. masses --      2.6650                 2.9516                 2.5484
 Frc consts  --      0.9359                 1.0979                 0.9833
 IR Inten    --      0.0797                 5.2363                 1.9732

                     28                     29                     30
                      A                      A                      A
 Frequencies --    828.3853               857.9142               874.4641
 Red. masses --      1.5356                 1.9748                 1.2801
 Frc consts  --      0.6208                 0.8564                 0.5767
 IR Inten    --      1.5602                 0.8371                63.2302

                     31                     32                     33
                      A                      A                      A
 Frequencies --    899.8108               912.5275               921.7018
 Red. masses --      1.6569                 2.1746                 1.9748
 Frc consts  --      0.7904                 1.0669                 0.9884
 IR Inten    --      1.7308                 3.7128                19.1323

                     34                     35                     36
                      A                      A                      A
 Frequencies --    936.3182               955.7305               963.2642
 Red. masses --      2.1379                 1.3870                 1.8864
 Frc consts  --      1.1043                 0.7465                 1.0313
 IR Inten    --     19.0444                37.9753                 5.2345

                     37                     38                     39
                      A                      A                      A
 Frequencies --   1000.7656              1023.5478              1042.1268
 Red. masses --      2.1535                 1.9331                 1.7097
 Frc consts  --      1.2707                 1.1932                 1.0940
 IR Inten    --      2.4572                 7.8214                 4.6414

                     40                     41                     42
                      A                      A                      A
 Frequencies --   1067.5988              1075.2930              1088.0734
 Red. masses --      2.0222                 2.5268                 2.0841
 Frc consts  --      1.3580                 1.7214                 1.4537
 IR Inten    --      1.7861                 8.5965                15.9351

                     43                     44                     45
                      A                      A                      A
 Frequencies --   1105.7634              1120.7458              1137.6854
 Red. masses --      1.5977                 1.9444                 1.9584
 Frc consts  --      1.1510                 1.4390                 1.4935
 IR Inten    --      4.2325                 2.5019                 8.7045

                     46                     47                     48
                      A                      A                      A
 Frequencies --   1144.8495              1200.8624              1231.6628
 Red. masses --      1.4647                 1.6287                 1.2428
 Frc consts  --      1.1311                 1.3838                 1.1108
 IR Inten    --     24.0643                39.8204                14.9597

                     49                     50                     51
                      A                      A                      A
 Frequencies --   1236.0978              1248.9512              1259.3119
 Red. masses --      1.9242                 1.5895                 1.2741
 Frc consts  --      1.7322                 1.4609                 1.1905
 IR Inten    --     29.3659                 1.8411                 0.0200

                     52                     53                     54
                      A                      A                      A
 Frequencies --   1285.7667              1295.4607              1311.5993
 Red. masses --      1.3088                 1.4809                 1.3206
 Frc consts  --      1.2749                 1.4643                 1.3385
 IR Inten    --      3.7461                11.7138                32.3053

                     55                     56                     57
                      A                      A                      A
 Frequencies --   1320.3278              1342.8950              1358.3282
 Red. masses --      1.4081                 1.3860                 1.3529
 Frc consts  --      1.4462                 1.4727                 1.4707
 IR Inten    --     41.4423                27.8160                14.7639

                     58                     59                     60
                      A                      A                      A
 Frequencies --   1379.9403              1383.4455              1400.3422
 Red. masses --      1.3486                 1.2776                 1.2790
 Frc consts  --      1.5130                 1.4406                 1.4777
 IR Inten    --      2.2446                 0.9789                 2.3232

                     61                     62                     63
                      A                      A                      A
 Frequencies --   1402.2697              1408.3985              1410.9024
 Red. masses --      1.3371                 1.4856                 1.4102
 Frc consts  --      1.5491                 1.7362                 1.6539
 IR Inten    --     13.5046                 9.4967                 8.6642

                     64                     65                     66
                      A                      A                      A
 Frequencies --   1420.0681              1430.2901              1431.8902
 Red. masses --      1.3775                 1.3402                 1.3416
 Frc consts  --      1.6367                 1.6154                 1.6206
 IR Inten    --      1.7450                 3.4852                11.5789

                     67                     68                     69
                      A                      A                      A
 Frequencies --   1451.4317              1466.5927              1506.4483
 Red. masses --      1.4611                 2.0065                 1.1353
 Frc consts  --      1.8136                 2.5428                 1.5180
 IR Inten    --     10.9000               124.3165                16.1241

                     70                     71                     72
                      A                      A                      A
 Frequencies --   1511.6180              1514.9253              1520.2720
 Red. masses --      1.0884                 1.0814                 1.0699
 Frc consts  --      1.4653                 1.4623                 1.4569
 IR Inten    --      3.9955                 0.7870                 3.3315

                     73                     74                     75
                      A                      A                      A
 Frequencies --   1525.4275              1529.8916              1531.7125
 Red. masses --      1.0972                 1.1399                 1.0771
 Frc consts  --      1.5043                 1.5720                 1.4889
 IR Inten    --      8.4154                15.5802                15.0104

                     76                     77                     78
                      A                      A                      A
 Frequencies --   1536.1714              1538.3436              1547.9022
 Red. masses --      1.0793                 1.0949                 1.0567
 Frc consts  --      1.5007                 1.5266                 1.4917
 IR Inten    --      3.2598                 6.7757                 9.9711

                     79                     80                     81
                      A                      A                      A
 Frequencies --   1702.7170              1728.5036              3005.9216
 Red. masses --      1.0856                 9.1632                 1.0743
 Frc consts  --      1.8543                16.1301                 5.7192
 IR Inten    --     30.0216               235.7015                53.8838

                     82                     83                     84
                      A                      A                      A
 Frequencies --   3018.2075              3031.3169              3040.8464
 Red. masses --      1.0666                 1.0658                 1.0556
 Frc consts  --      5.7246                 5.7700                 5.7508
 IR Inten    --     26.2024                13.5121                11.6994

                     85                     86                     87
                      A                      A                      A
 Frequencies --   3042.5432              3045.6079              3045.9248
 Red. masses --      1.0647                 1.0644                 1.0628
 Frc consts  --      5.8073                 5.8170                 5.8097
 IR Inten    --     21.7492                61.5294                 6.6237

                     88                     89                     90
                      A                      A                      A
 Frequencies --   3047.4199              3063.9636              3068.7080
 Red. masses --      1.0609                 1.0846                 1.0809
 Frc consts  --      5.8050                 5.9992                 5.9971
 IR Inten    --     32.7237                56.2351                25.1009

                     91                     92                     93
                      A                      A                      A
 Frequencies --   3073.4698              3078.8290              3083.4202
 Red. masses --      1.0686                 1.0980                 1.0987
 Frc consts  --      5.9474                 6.1323                 6.1544
 IR Inten    --      5.7884                34.4922                55.0563

                     94                     95                     96
                      A                      A                      A
 Frequencies --   3085.1601              3098.9321              3105.3536
 Red. masses --      1.1019                 1.0970                 1.1013
 Frc consts  --      6.1793                 6.2068                 6.2572
 IR Inten    --     30.3913                79.5722                30.6647

                     97                     98                     99
                      A                      A                      A
 Frequencies --   3119.8330              3122.9004              3148.4730
 Red. masses --      1.0996                 1.1000                 1.0972
 Frc consts  --      6.3059                 6.3205                 6.4081
 IR Inten    --     37.0401                31.1518                 7.5991

                    100                    101                    102
                      A                      A                      A
 Frequencies --   3161.1350              3468.2631              3548.0857
 Red. masses --      1.0876                 1.0504                 1.0916
 Frc consts  --      6.4032                 7.4442                 8.0963
 IR Inten    --     23.9018                 2.6321                 0.7697

 - Thermochemistry -
 -------------------
 Temperature   298.150 Kelvin.  Pressure   1.00000 Atm.
 Atom     1 has atomic number  6 and mass  12.00000

 Molecular mass:   198.17321 amu.
 Principal axes and moments of inertia in atomic units:
                           1         2         3
     Eigenvalues --  1624.870684540.708084733.53131
           X            1.00000   0.00076  -0.00017
           Y           -0.00076   0.99958   0.02884
           Z            0.00020  -0.02884   0.99958
 This molecule is an asymmetric top.
 Rotational symmetry number  1.
 Warning -- assumption of classical behavior for rotation
           may cause significant error
 Rotational temperatures (Kelvin)      0.05331     0.01907     0.01830
 Rotational constants (GHZ):           1.11070     0.39746     0.38127
 Zero-point vibrational energy     871029.5 (Joules/Mol)
                                  208.18104 (Kcal/Mol)
 Warning -- explicit consideration of  23 degrees of freedom as
           vibrations may cause significant error
 Vibrational temperatures:     50.85    74.92    91.74   116.17   154.88
          (Kelvin)            222.87   257.76   300.45   317.11   336.02
                              388.03   404.22   440.41   451.87   524.67
                              547.94   586.54   619.90   682.45   723.06
                              760.18   766.13   855.41   998.18  1110.79
                             1143.23  1164.32  1191.86  1234.35  1258.16
                             1294.63  1312.92  1326.12  1347.15  1375.08
                             1385.92  1439.88  1472.66  1499.39  1536.04
                             1547.11  1565.49  1590.95  1612.50  1636.88
                             1647.18  1727.77  1772.09  1778.47  1796.96
                             1811.87  1849.93  1863.88  1887.10  1899.66
                             1932.13  1954.33  1985.43  1990.47  2014.78
                             2017.55  2026.37  2029.97  2043.16  2057.87
                             2060.17  2088.29  2110.10  2167.44  2174.88
                             2179.64  2187.33  2194.75  2201.17  2203.79
                             2210.21  2213.33  2227.09  2449.83  2486.93
                             4324.85  4342.53  4361.39  4375.10  4377.54
                             4381.95  4382.41  4384.56  4408.36  4415.19
                             4422.04  4429.75  4436.35  4438.86  4458.67
                             4467.91  4488.74  4493.16  4529.95  4548.17
                             4990.06  5104.90

 Zero-point correction=                           0.331758 (Hartree/Particle)
 Thermal correction to Energy=                    0.346784
 Thermal correction to Enthalpy=                  0.347728
 Thermal correction to Gibbs Free Energy=         0.289495
 Sum of electronic and zero-point Energies=           -616.889859
 Sum of electronic and thermal Energies=              -616.874833
 Sum of electronic and thermal Enthalpies=            -616.873889
 Sum of electronic and thermal Free Energies=         -616.932122

                     E (Thermal)             CV                S
                      KCal/Mol        Cal/Mol-Kelvin    Cal/Mol-Kelvin
 Total                  217.610             57.504            122.561
 Electronic               0.000              0.000              0.000
 Translational            0.889              2.981             41.757
 Rotational               0.889              2.981             31.924
 Vibrational            215.833             51.542             48.881
 Vibration     1          0.594              1.982              5.504
 Vibration     2          0.596              1.977              4.737
 Vibration     3          0.597              1.972              4.337
 Vibration     4          0.600              1.962              3.873
 Vibration     5          0.606              1.943              3.311
 Vibration     6          0.620              1.897              2.611
 Vibration     7          0.629              1.868              2.337
 Vibration     8          0.642              1.827              2.054
 Vibration     9          0.647              1.810              1.956
 Vibration    10          0.654              1.790              1.852
 Vibration    11          0.674              1.729              1.598
 Vibration    12          0.681              1.709              1.528
 Vibration    13          0.696              1.662              1.383
 Vibration    14          0.702              1.647              1.341
 Vibration    15          0.738              1.545              1.102
 Vibration    16          0.751              1.511              1.036
 Vibration    17          0.772              1.454              0.935
 Vibration    18          0.792              1.403              0.856
 Vibration    19          0.831              1.307              0.726
 Vibration    20          0.858              1.244              0.652
 Vibration    21          0.883              1.187              0.591
 Vibration    22          0.887              1.178              0.582
 Vibration    23          0.952              1.043              0.459

 Optimization completed.
    -- Stationary point found.
 Normal termination of Gaussian 16 at Thu Dec 10 09:44:17 2020.

 ----------------------------------------------------------------------
 # B3LYP/6-311++G(d,p) empiricaldispersion=gd3bj scf=xqc pop=npa geom=c
 heck
 ----------------------------------------------------------------------

 --------------------------------------
 CID_81072177_JID_4373_Energie_neutraal
 --------------------------------------
 Structure from the checkpoint file:  "JID_4373.chk"
 Charge =  0 Multiplicity = 1

 SCF Done:  E(RB3LYP) =  -617.402597432     A.U. after   14 cycles
 Normal termination of Gaussian 16 at Thu Dec 10 09:50:37 2020.

 ----------------------------------------------------------------------
 # B3LYP/6-311++G(d,p) empiricaldispersion=gd3bj scf=xqc pop=npa geom=c
 heck
 ----------------------------------------------------------------------

 ------------------------------------
 CID_81072177_JID_4373_Energie_kation
 ------------------------------------
 Structure from the checkpoint file:  "JID_4373.chk"
 Charge =  1 Multiplicity = 2

 SCF Done:  E(UB3LYP) =  -617.102348253     A.U. after   25 cycles
 Normal termination of Gaussian 16 at Thu Dec 10 10:06:55 2020.
 Gaussian 16:  ES64L-G16RevA.03 25-Dec-2016

 ----------------------------------------------------------------------
 # B3LYP/6-311++G(d,p) empiricaldispersion=gd3bj scf=xqc pop=npa geom=c
 heck
 ----------------------------------------------------------------------

 -----------------------------------
 CID_81072177_JID_4373_Energie_anion
 -----------------------------------
 Structure from the checkpoint file:  "JID_4373.chk"
 Charge = -1 Multiplicity = 2

                         Standard orientation:
 ---------------------------------------------------------------------
 Center     Atomic      Atomic             Coordinates (Angstroms)
 Number     Number       Type             X           Y           Z
 ---------------------------------------------------------------------
      1          6           0        1.608930   -1.613633    0.225978
      2          6           0        2.386117   -0.538919   -0.543894
      3          6           0        1.455687    0.345134   -1.410282
      4          6           0        0.368189    1.056532   -0.610683
      5          8           0        0.680602    1.977647    0.147429
      6          7           0       -0.945145    0.678703   -0.749071
      7          6           0       -1.930482    1.476665   -0.012468
      8          6           0       -2.151867    0.951501    1.411703
      9          6           0       -2.939970   -0.361002    1.493248
     10          6           0       -2.431496   -1.500579    0.595643
     11          6           0       -2.589867   -1.215289   -0.908304
     12          6           0       -1.420729   -0.449911   -1.548587
     13          6           0        3.266721    0.301383    0.394007
     14          7           0        4.269274   -0.546950    1.061322
     15          1           0        0.942751   -1.161667    0.971581
     16          1           0        2.295748   -2.290135    0.744351
     17          1           0        0.996423   -2.227424   -0.444634
     18          1           0        3.070022   -1.049658   -1.234345
     19          1           0        2.052010    1.148562   -1.857110
     20          1           0        1.057136   -0.247610   -2.236768
     21          1           0       -2.866471    1.484659   -0.582285
     22          1           0       -1.548801    2.497247    0.030968
     23          1           0       -2.679719    1.720060    1.991765
     24          1           0       -1.163669    0.838549    1.871969
     25          1           0       -2.947809   -0.702959    2.536226
     26          1           0       -3.989996   -0.164959    1.229666
     27          1           0       -1.381229   -1.723459    0.824016
     28          1           0       -2.999692   -2.406219    0.841013
     29          1           0       -2.683062   -2.157192   -1.463287
     30          1           0       -3.532353   -0.678618   -1.073921
     31          1           0       -0.595133   -1.148384   -1.675577
     32          1           0       -1.718839   -0.112700   -2.553295
     33          1           0        3.807226    1.039553   -0.210234
     34          1           0        2.627539    0.870862    1.083027
     35          1           0        4.982204    0.048750    1.478810
     36          1           0        3.834607   -1.031991    1.844704
 ---------------------------------------------------------------------

 SCF Done:  E(UB3LYP) =  -617.389674544     A.U. after   31 cycles

 The electronic state is 2-A.
 Alpha  occ. eigenvalues --  -18.98208 -14.24133 -14.20043 -10.16860 -10.10607
 Alpha  occ. eigenvalues --  -10.10037 -10.08920 -10.08142 -10.07871 -10.06900
 Alpha  occ. eigenvalues --  -10.06850 -10.06756 -10.06566 -10.06229  -0.93576
 Alpha  occ. eigenvalues --   -0.83518  -0.78994  -0.70939  -0.70066  -0.67892
 Alpha  occ. eigenvalues --   -0.62266  -0.59505  -0.57511  -0.56537  -0.51509
 Alpha  occ. eigenvalues --   -0.47488  -0.46909  -0.43594  -0.41196  -0.39259
 Alpha  occ. eigenvalues --   -0.38834  -0.37563  -0.37208  -0.34940  -0.34364
 Alpha  occ. eigenvalues --   -0.33231  -0.32698  -0.31769  -0.31434  -0.30975
 Alpha  occ. eigenvalues --   -0.29771  -0.29120  -0.27754  -0.26575  -0.26285
 Alpha  occ. eigenvalues --   -0.24760  -0.24400  -0.23801  -0.23156  -0.22788
 Alpha  occ. eigenvalues --   -0.22553  -0.21938  -0.15961  -0.14549  -0.14250
 Alpha  occ. eigenvalues --    0.04291
 Alpha virt. eigenvalues --    0.05945   0.06800   0.07356   0.08034   0.08467
 Alpha virt. eigenvalues --    0.09296   0.09569   0.09898   0.10872   0.11049
 Alpha virt. eigenvalues --    0.11451   0.11591   0.11861   0.12822   0.12883

  Beta  occ. eigenvalues --  -18.98205 -14.24133 -14.20019 -10.16860 -10.10582
  Beta  occ. eigenvalues --  -10.10022 -10.08912 -10.08137 -10.07860 -10.06867
  Beta  occ. eigenvalues --  -10.06843 -10.06740 -10.06548 -10.06205  -0.93571
  Beta  occ. eigenvalues --   -0.83506  -0.78958  -0.70911  -0.70034  -0.67853
  Beta  occ. eigenvalues --   -0.62235  -0.59469  -0.57463  -0.56489  -0.51468
  Beta  occ. eigenvalues --   -0.47440  -0.46858  -0.43548  -0.41167  -0.39233
  Beta  occ. eigenvalues --   -0.38804  -0.37541  -0.37165  -0.34903  -0.34328
  Beta  occ. eigenvalues --   -0.33200  -0.32677  -0.31739  -0.31398  -0.30944
  Beta  occ. eigenvalues --   -0.29743  -0.29092  -0.27731  -0.26547  -0.26253
  Beta  occ. eigenvalues --   -0.24726  -0.24371  -0.23774  -0.23133  -0.22751
  Beta  occ. eigenvalues --   -0.22515  -0.21901  -0.15946  -0.14532  -0.14227
  Beta virt. eigenvalues --    0.06239   0.06803   0.07445   0.08054   0.08450
  Beta virt. eigenvalues --    0.08932   0.09607   0.10065   0.10264   0.11216
  Beta virt. eigenvalues --    0.11393   0.11548   0.11852   0.12198   0.12947

 Mulliken charges and spin densities:
               1          2
     1  C   -0.163391  -0.652990
     2  C   -0.238700   0.942357
     3  C    0.445698  -0.756032
     4  C   -0.262423  -0.232730
     5  O   -0.309949   0.020022
     6  N    0.095334   0.128361
     7  C    0.201949  -0.517442
     8  C   -0.703889   0.663386
     9  C    1.423009  -2.061074
    10  C   -0.913031   0.945451
    11  C    1.270072  -1.746927
    12  C    0.002464  -0.241965
    13  C    0.100632  -0.865785
    14  N   -0.379483   0.025764
    15  H    0.244134  -0.032344
    16  H    0.037874   0.099930
    17  H   -0.340877   0.475412
    18  H    0.039995   0.170763
    19  H    0.081829   0.105189
    20  H   -0.249858   0.425632
    21  H   -0.214308   0.375035
    22  H    0.135007   0.067375
    23  H    0.078550   0.074283
    24  H    0.046468   0.128469
    25  H   -0.139494   0.291336
    26  H   -0.125388   0.263241
    27  H   -0.057969   0.165984
    28  H   -0.406271   0.606044
    29  H   -0.842199   1.040921
    30  H    0.001814   0.146933
    31  H    0.423031  -0.311977
    32  H   -0.500362   0.696490
    33  H    0.000789   0.158619
    34  H    0.077293   0.097131
    35  H    0.087766   0.142345
    36  H    0.053883   0.162793
 Sum of Mulliken charges =  -1.00000   1.00000

 Dipole moment (field-independent basis, Debye):
    X=              2.4756    Y=              3.7759    Z=              1.8126  Tot=              4.8653
 Quadrupole moment (field-independent basis, Debye-Ang):
   XX=           -162.0552   YY=           -137.9959   ZZ=           -129.3235
   XY=             -8.0062   XZ=             -5.5109   YZ=             -4.9059

 Summary of Natural Population Analysis:

                                       Natural Population
                Natural  -----------------------------------------------
    Atom  No    Charge         Core      Valence    Rydberg      Total
 -----------------------------------------------------------------------
      C    1   -0.29192      0.99964     2.28566    0.00662     3.29192
      C    2   -0.10942      0.99960     2.09925    0.01058     3.10942
      C    3   -0.22774      0.99957     2.21877    0.00940     3.22774
      C    4    0.34733      0.99963     1.62897    0.02407     2.65267
      O    5   -0.33796      0.99988     3.33304    0.00504     4.33796
      N    6   -0.25685      0.99964     2.74559    0.01162     3.75685
      C    7   -0.08856      0.99960     2.07835    0.01062     3.08856
      C    8   -0.19430      0.99961     2.18656    0.00813     3.19430
      C    9   -0.18616      0.99962     2.17860    0.00794     3.18616
      C   10   -0.19540      0.99962     2.18669    0.00909     3.19540
      C   11   -0.19607      0.99962     2.18714    0.00931     3.19607
      C   12   -0.07944      0.99959     2.06869    0.01116     3.07944
      C   13   -0.09051      0.99959     2.08074    0.01018     3.09051
      N   14   -0.42501      0.99977     2.91542    0.00982     3.92501
      H   15    0.09713      0.00000     0.40141    0.00146     0.40287
      H   16    0.10225      0.00000     0.39673    0.00102     0.39775
      H   17    0.10149      0.00000     0.39717    0.00134     0.39851
      H   18    0.09794      0.00000     0.40021    0.00185     0.40206
      H   19    0.11044      0.00000     0.38839    0.00117     0.38956
      H   20    0.10467      0.00000     0.39405    0.00128     0.39533
      H   21    0.09436      0.00000     0.40449    0.00115     0.40564
      H   22    0.11148      0.00000     0.38739    0.00113     0.38852
      H   23    0.09639      0.00000     0.40279    0.00082     0.40361
      H   24    0.10201      0.00000     0.39652    0.00147     0.39799
      H   25    0.09816      0.00000     0.40090    0.00094     0.40184
      H   26    0.09164      0.00000     0.40699    0.00137     0.40836
      H   27    0.09658      0.00000     0.40152    0.00190     0.40342
      H   28    0.10233      0.00000     0.39610    0.00156     0.39767
      H   29    0.10816      0.00000     0.38909    0.00275     0.39184
      H   30    0.09486      0.00000     0.40320    0.00194     0.40514
      H   31    0.10074      0.00000     0.39709    0.00217     0.39926
      H   32    0.09417      0.00000     0.40413    0.00170     0.40583
      H   33    0.08867      0.00000     0.41020    0.00113     0.41133
      H   34    0.09340      0.00000     0.40486    0.00175     0.40660
      H   35    0.17314      0.00000     0.32537    0.00149     0.32686
      H   36    0.17205      0.00000     0.32623    0.00172     0.32795
 =======================================================================
   * Total *   -0.00000     13.99499    40.82829    0.17672    55.00000

 Normal termination of Gaussian 16 at Thu Dec 10 10:27:15 2020.
