 Gaussian 16, Revision A.03,

 -----------------------------------------------------------
 # opt freq B3LYP/6-31G(d) empiricaldispersion=gd3bj scf=xqc
 -----------------------------------------------------------

 ------------------------------
 CID_43586203_JID_8563_neutraal
 ------------------------------
 Symbolic Z-matrix:
 Charge =  0 Multiplicity = 1

 SCF Done:  E(RB3LYP) =  -842.632145938     A.U. after   15 cycles
 SCF Done:  E(RB3LYP) =  -842.636700962     A.U. after   12 cycles
 SCF Done:  E(RB3LYP) =  -842.636368992     A.U. after   12 cycles
 SCF Done:  E(RB3LYP) =  -842.637770278     A.U. after   11 cycles
 SCF Done:  E(RB3LYP) =  -842.638048411     A.U. after   11 cycles
 SCF Done:  E(RB3LYP) =  -842.638256297     A.U. after   12 cycles
 SCF Done:  E(RB3LYP) =  -842.638342334     A.U. after   11 cycles
 SCF Done:  E(RB3LYP) =  -842.638395425     A.U. after   11 cycles
 SCF Done:  E(RB3LYP) =  -842.638412890     A.U. after   10 cycles
 SCF Done:  E(RB3LYP) =  -842.638418609     A.U. after    8 cycles
 SCF Done:  E(RB3LYP) =  -842.638419845     A.U. after    9 cycles
 SCF Done:  E(RB3LYP) =  -842.638420171     A.U. after    7 cycles
 SCF Done:  E(RB3LYP) =  -842.638420262     A.U. after    7 cycles
 Optimization completed.
    -- Stationary point found.
 Normal termination of Gaussian 16 at Fri Dec 11 21:09:20 2020.

 --------------------------------------------------------------------
 #N Geom=AllCheck Guess=TCheck SCRF=Check GenChk RB3LYP/6-31G(d) Freq
 --------------------------------------------------------------------

 Structure from the checkpoint file:  "JID_8563.chk"
 ------------------------------
 CID_43586203_JID_8563_neutraal
 ------------------------------
 Charge =  0 Multiplicity = 1

 SCF Done:  E(RB3LYP) =  -842.638420262     A.U. after    1 cycles

  Exact polarizability: 169.227  18.569 157.230   8.769  -9.367 138.604
 Approx polarizability: 214.668  36.506 233.111  16.245 -24.869 236.480

                      1                      2                      3
                      A                      A                      A
 Frequencies --     14.2543                28.3918                40.4563
 Red. masses --      5.4548                 4.3895                 2.8293
 Frc consts  --      0.0007                 0.0021                 0.0027
 IR Inten    --      1.1258                 0.4186                 1.0080

                      4                      5                      6
                      A                      A                      A
 Frequencies --     60.7961                67.8418               103.4789
 Red. masses --      3.8021                 6.0093                 4.7900
 Frc consts  --      0.0083                 0.0163                 0.0302
 IR Inten    --      0.4180                 0.2324                 0.2958

                      7                      8                      9
                      A                      A                      A
 Frequencies --    145.6465               165.6261               188.6184
 Red. masses --      5.6558                 5.9234                 2.4872
 Frc consts  --      0.0707                 0.0957                 0.0521
 IR Inten    --      1.6362                 1.9296                 0.3863

                     10                     11                     12
                      A                      A                      A
 Frequencies --    228.2777               245.2144               255.5495
 Red. masses --      4.1050                 1.3025                 1.3217
 Frc consts  --      0.1260                 0.0461                 0.0509
 IR Inten    --      1.8021                 1.1896                 1.3752

                     13                     14                     15
                      A                      A                      A
 Frequencies --    272.6647               281.9729               292.3141
 Red. masses --      4.3758                 2.3485                 4.1992
 Frc consts  --      0.1917                 0.1100                 0.2114
 IR Inten    --      1.7448                 0.2563                 0.2913

                     16                     17                     18
                      A                      A                      A
 Frequencies --    305.5833               362.6562               387.3154
 Red. masses --      1.3375                 2.2589                 2.6605
 Frc consts  --      0.0736                 0.1750                 0.2351
 IR Inten    --      1.7748                 5.2277                 0.0628

                     19                     20                     21
                      A                      A                      A
 Frequencies --    401.8601               429.1645               442.8347
 Red. masses --      2.3605                 4.0564                 2.1425
 Frc consts  --      0.2246                 0.4402                 0.2475
 IR Inten    --      1.2570                19.8840                 1.6812

                     22                     23                     24
                      A                      A                      A
 Frequencies --    463.5939               506.0644               523.4127
 Red. masses --      2.1339                 3.2410                 5.7498
 Frc consts  --      0.2702                 0.4890                 0.9281
 IR Inten    --      1.3604                 6.2885                 1.3444

                     25                     26                     27
                      A                      A                      A
 Frequencies --    550.9759               570.2696               637.8706
 Red. masses --      1.4050                 3.8136                 2.7298
 Frc consts  --      0.2513                 0.7307                 0.6544
 IR Inten    --     58.5485                 6.1508                36.0626

                     28                     29                     30
                      A                      A                      A
 Frequencies --    646.3440               679.5122               702.7604
 Red. masses --      4.8937                 2.8663                 4.1410
 Frc consts  --      1.2045                 0.7798                 1.2050
 IR Inten    --     13.9726                 1.8136                41.8097

                     31                     32                     33
                      A                      A                      A
 Frequencies --    757.7116               771.6269               777.8036
 Red. masses --      6.3805                 3.4920                 3.0206
 Frc consts  --      2.1583                 1.2250                 1.0767
 IR Inten    --     32.8523                14.4007                19.9531

                     34                     35                     36
                      A                      A                      A
 Frequencies --    802.4468               814.8383               829.5569
 Red. masses --      1.6612                 1.6424                 2.2930
 Frc consts  --      0.6302                 0.6425                 0.9297
 IR Inten    --      2.1471                 8.8071                28.2009

                     37                     38                     39
                      A                      A                      A
 Frequencies --    884.0822               888.5273               903.5423
 Red. masses --      2.8111                 1.4170                 2.2836
 Frc consts  --      1.2945                 0.6591                 1.0984
 IR Inten    --      4.5491                 0.8367                 0.4907

                     40                     41                     42
                      A                      A                      A
 Frequencies --    965.0530               988.2128               999.2745
 Red. masses --      3.0905                 4.8162                 3.0253
 Frc consts  --      1.6958                 2.7711                 1.7799
 IR Inten    --      2.8920                 7.6085                 6.9714

                     43                     44                     45
                      A                      A                      A
 Frequencies --   1005.1263              1020.2475              1042.1417
 Red. masses --      2.5626                 2.0715                 1.5833
 Frc consts  --      1.5254                 1.2704                 1.0132
 IR Inten    --      7.5098                19.3349                 7.8344

                     46                     47                     48
                      A                      A                      A
 Frequencies --   1052.6432              1069.2511              1082.0812
 Red. masses --      1.3406                 1.9123                 1.7709
 Frc consts  --      0.8752                 1.2882                 1.2217
 IR Inten    --     40.5492                24.7542                 3.6124

                     49                     50                     51
                      A                      A                      A
 Frequencies --   1117.0634              1123.7380              1132.1556
 Red. masses --      1.7753                 2.2593                 1.3003
 Frc consts  --      1.3052                 1.6810                 0.9820
 IR Inten    --     34.3110                 6.6791                16.7948

                     52                     53                     54
                      A                      A                      A
 Frequencies --   1143.7686              1151.5501              1165.2594
 Red. masses --      2.8182                 3.7993                 2.2498
 Frc consts  --      2.1722                 2.9684                 1.7999
 IR Inten    --    244.0588               124.0364                33.5887

                     55                     56                     57
                      A                      A                      A
 Frequencies --   1196.1303              1210.0774              1215.2270
 Red. masses --      1.4442                 1.4390                 1.8681
 Frc consts  --      1.2174                 1.2414                 1.6254
 IR Inten    --      2.8681                19.1013               103.9838

                     58                     59                     60
                      A                      A                      A
 Frequencies --   1231.6229              1245.7769              1270.6939
 Red. masses --      1.1522                 2.3267                 2.5858
 Frc consts  --      1.0298                 2.1275                 2.4600
 IR Inten    --      3.3792                12.1215                11.8208

                     61                     62                     63
                      A                      A                      A
 Frequencies --   1280.0424              1298.6139              1337.1378
 Red. masses --      2.6544                 1.6159                 1.6763
 Frc consts  --      2.5625                 1.6056                 1.7659
 IR Inten    --      5.9181                 1.6006                 3.9885

                     64                     65                     66
                      A                      A                      A
 Frequencies --   1349.7362              1353.6396              1364.9136
 Red. masses --      1.6404                 1.7303                 1.3588
 Frc consts  --      1.7607                 1.8680                 1.4915
 IR Inten    --     31.0436                11.3522                 3.9795

                     67                     68                     69
                      A                      A                      A
 Frequencies --   1384.3622              1386.6181              1398.0291
 Red. masses --      1.2693                 1.3405                 3.0762
 Frc consts  --      1.4332                 1.5186                 3.5424
 IR Inten    --     41.3472                 0.6220                69.7117

                     70                     71                     72
                      A                      A                      A
 Frequencies --   1411.2489              1419.3112              1436.4427
 Red. masses --      1.4184                 1.4149                 1.4442
 Frc consts  --      1.6644                 1.6793                 1.7557
 IR Inten    --      1.9112                 4.9581                20.6453

                     73                     74                     75
                      A                      A                      A
 Frequencies --   1440.0936              1454.5892              1471.2902
 Red. masses --      2.3794                 1.3402                 1.1648
 Frc consts  --      2.9074                 1.6708                 1.4856
 IR Inten    --     26.3101                 2.6282                 1.1136

                     76                     77                     78
                      A                      A                      A
 Frequencies --   1487.0046              1495.6617              1502.2480
 Red. masses --      1.0949                 1.0970                 1.1520
 Frc consts  --      1.4264                 1.4458                 1.5317
 IR Inten    --     11.4755                 4.6784                 8.8015

                     79                     80                     81
                      A                      A                      A
 Frequencies --   1505.9849              1510.2462              1526.0315
 Red. masses --      1.0913                 1.0603                 1.0783
 Frc consts  --      1.4583                 1.4249                 1.4795
 IR Inten    --      5.6870                 3.5796                13.5550

                     82                     83                     84
                      A                      A                      A
 Frequencies --   1529.0805              1540.0216              1550.3025
 Red. masses --      1.0695                 1.0628                 1.0803
 Frc consts  --      1.4733                 1.4851                 1.5297
 IR Inten    --     16.0095                 1.1264                 9.7546

                     85                     86                     87
                      A                      A                      A
 Frequencies --   1552.6210              1560.4509              1632.9113
 Red. masses --      1.0671                 8.3822                 6.2024
 Frc consts  --      1.5156                12.0256                 9.7440
 IR Inten    --      7.1273               128.3128                10.0404

                     88                     89                     90
                      A                      A                      A
 Frequencies --   1832.0150              2939.8757              2955.6771
 Red. masses --      9.8037                 1.0612                 1.0626
 Frc consts  --     19.3864                 5.4039                 5.4693
 IR Inten    --    345.1073                58.7280                75.4619

                     91                     92                     93
                      A                      A                      A
 Frequencies --   2975.4920              3004.0707              3035.3044
 Red. masses --      1.0701                 1.0682                 1.0789
 Frc consts  --      5.5821                 5.6796                 5.8563
 IR Inten    --     39.9818                49.9622                 3.8823

                     94                     95                     96
                      A                      A                      A
 Frequencies --   3046.3952              3052.6707              3057.7670
 Red. masses --      1.0724                 1.0753                 1.0598
 Frc consts  --      5.8636                 5.9037                 5.8382
 IR Inten    --      3.6520                51.7576                33.2814

                     97                     98                     99
                      A                      A                      A
 Frequencies --   3063.8517              3068.0364              3073.8518
 Red. masses --      1.0734                 1.0708                 1.0787
 Frc consts  --      5.9370                 5.9384                 6.0049
 IR Inten    --     66.7456                48.5085                85.5985

                    100                    101                    102
                      A                      A                      A
 Frequencies --   3078.7534              3093.1365              3103.7314
 Red. masses --      1.0893                 1.1026                 1.1028
 Frc consts  --      6.0836                 6.2156                 6.2591
 IR Inten    --     18.4567                30.5225                25.0104

                    103                    104                    105
                      A                      A                      A
 Frequencies --   3105.6232              3114.2895              3156.9418
 Red. masses --      1.1058                 1.1032                 1.0938
 Frc consts  --      6.2840                 6.3041                 6.4225
 IR Inten    --     15.7065                38.2259                23.4668

                    106                    107                    108
                      A                      A                      A
 Frequencies --   3269.3731              3289.5470              3704.7957
 Red. masses --      1.0946                 1.0999                 1.0642
 Frc consts  --      6.8931                 7.0127                 8.6058
 IR Inten    --      2.9931                 0.0395                86.4270

 - Thermochemistry -
 -------------------
 Temperature   298.150 Kelvin.  Pressure   1.00000 Atm.
 Atom     1 has atomic number  6 and mass  12.00000

 Molecular mass:   252.14739 amu.
 Principal axes and moments of inertia in atomic units:
                           1         2         3
     Eigenvalues --  2757.739797630.065068804.00415
           X            0.99984  -0.01698   0.00572
           Y            0.01698   0.99985   0.00143
           Z           -0.00574  -0.00133   0.99998
 This molecule is an asymmetric top.
 Rotational symmetry number  1.
 Warning -- assumption of classical behavior for rotation
           may cause significant error
 Rotational temperatures (Kelvin)      0.03141     0.01135     0.00984
 Rotational constants (GHZ):           0.65443     0.23653     0.20499
 Zero-point vibrational energy     861660.5 (Joules/Mol)
                                  205.94180 (Kcal/Mol)
 Warning -- explicit consideration of  26 degrees of freedom as
           vibrations may cause significant error
 Vibrational temperatures:     20.51    40.85    58.21    87.47    97.61
          (Kelvin)            148.88   209.55   238.30   271.38   328.44
                              352.81   367.68   392.30   405.70   420.57
                              439.67   521.78   557.26   578.19   617.47
                              637.14   667.01   728.11   753.07   792.73
                              820.49   917.75   929.94   977.67  1011.12
                             1090.18  1110.20  1119.09  1154.54  1172.37
                             1193.55  1272.00  1278.39  1300.00  1388.50
                             1421.82  1437.73  1446.15  1467.91  1499.41
                             1514.52  1538.41  1556.87  1607.21  1616.81
                             1628.92  1645.63  1656.82  1676.55  1720.96
                             1741.03  1748.44  1772.03  1792.40  1828.25
                             1841.70  1868.42  1923.84  1941.97  1947.59
                             1963.81  1991.79  1995.03  2011.45  2030.47
                             2042.07  2066.72  2071.97  2092.83  2116.86
                             2139.47  2151.92  2161.40  2166.78  2172.91
                             2195.62  2200.01  2215.75  2230.54  2233.88
                             2245.14  2349.40  2635.86  4229.83  4252.56
                             4281.07  4322.19  4367.13  4383.08  4392.11
                             4399.44  4408.20  4414.22  4422.59  4429.64
                             4450.33  4465.58  4468.30  4480.77  4542.14
                             4703.90  4732.92  5330.37

 Zero-point correction=                           0.328189 (Hartree/Particle)
 Thermal correction to Energy=                    0.345520
 Thermal correction to Enthalpy=                  0.346464
 Thermal correction to Gibbs Free Energy=         0.280906
 Sum of electronic and zero-point Energies=           -842.310231
 Sum of electronic and thermal Energies=              -842.292901
 Sum of electronic and thermal Enthalpies=            -842.291956
 Sum of electronic and thermal Free Energies=         -842.357514

                     E (Thermal)             CV                S
                      KCal/Mol        Cal/Mol-Kelvin    Cal/Mol-Kelvin
 Total                  216.817             66.263            137.979
 Electronic               0.000              0.000              0.000
 Translational            0.889              2.981             42.475
 Rotational               0.889              2.981             33.582
 Vibrational            215.039             60.301             61.922
 Vibration     1          0.593              1.986              7.307
 Vibration     2          0.593              1.984              5.939
 Vibration     3          0.594              1.981              5.237
 Vibration     4          0.597              1.973              4.431
 Vibration     5          0.598              1.970              4.215
 Vibration     6          0.605              1.946              3.388
 Vibration     7          0.617              1.907              2.728
 Vibration     8          0.624              1.885              2.485
 Vibration     9          0.633              1.856              2.241
 Vibration    10          0.651              1.798              1.892
 Vibration    11          0.660              1.771              1.765
 Vibration    12          0.666              1.753              1.692
 Vibration    13          0.676              1.724              1.579
 Vibration    14          0.681              1.707              1.522
 Vibration    15          0.688              1.688              1.461
 Vibration    16          0.696              1.663              1.386
 Vibration    17          0.737              1.549              1.111
 Vibration    18          0.756              1.497              1.010
 Vibration    19          0.767              1.466              0.956
 Vibration    20          0.791              1.407              0.861
 Vibration    21          0.802              1.377              0.818
 Vibration    22          0.821              1.331              0.756
 Vibration    23          0.861              1.237              0.643
 Vibration    24          0.878              1.198              0.602
 Vibration    25          0.906              1.138              0.542
 Vibration    26          0.926              1.096              0.504

                           ! Non-Optimized Parameters !
 Normal termination of Gaussian 16 at Fri Dec 11 21:26:18 2020.

 ----------------------------------------------------------------------
 # B3LYP/6-311++G(d,p) empiricaldispersion=gd3bj scf=xqc pop=npa geom=c
 heck
 ----------------------------------------------------------------------

 --------------------------------------
 CID_43586203_JID_8563_Energie_neutraal
 --------------------------------------
 Structure from the checkpoint file:  "JID_8563.chk"
 Charge =  0 Multiplicity = 1

 SCF Done:  E(RB3LYP) =  -842.880567059     A.U. after   15 cycles
 Normal termination of Gaussian 16 at Fri Dec 11 21:33:05 2020.

 ----------------------------------------------------------------------
 # B3LYP/6-311++G(d,p) empiricaldispersion=gd3bj scf=xqc pop=npa geom=c
 heck
 ----------------------------------------------------------------------

 ------------------------------------
 CID_43586203_JID_8563_Energie_kation
 ------------------------------------
 Structure from the checkpoint file:  "JID_8563.chk"
 Charge =  1 Multiplicity = 2

 SCF Done:  E(UB3LYP) =  -842.603360095     A.U. after   25 cycles
 Normal termination of Gaussian 16 at Fri Dec 11 21:48:16 2020.
 Gaussian 16:  ES64L-G16RevA.03 25-Dec-2016

 ----------------------------------------------------------------------
 # B3LYP/6-311++G(d,p) empiricaldispersion=gd3bj scf=xqc pop=npa geom=c
 heck
 ----------------------------------------------------------------------

 -----------------------------------
 CID_43586203_JID_8563_Energie_anion
 -----------------------------------
 Structure from the checkpoint file:  "JID_8563.chk"
 Charge = -1 Multiplicity = 2

                         Standard orientation:
 ---------------------------------------------------------------------
 Center     Atomic      Atomic             Coordinates (Angstroms)
 Number     Number       Type             X           Y           Z
 ---------------------------------------------------------------------
      1          6           0       -1.915395    1.747560    1.153735
      2          7           0       -3.225863    1.310010    0.697321
      3          6           0       -3.941473    2.409593    0.070904
      4          6           0       -3.296797    0.068148   -0.092248
      5          6           0       -2.959365   -1.194231    0.729273
      6          6           0       -1.487829   -1.623250    0.719114
      7          7           0       -0.980555   -1.692747   -0.650053
      8          6           0       -1.067205   -0.392986   -1.321880
      9          6           0       -2.529194    0.043067   -1.438586
     10          6           0        0.347409   -2.302205   -0.735745
     11          6           0        1.445299   -1.563906   -0.028534
     12          6           0        1.990304   -1.666273    1.227308
     13          6           0        2.932602   -0.606365    1.352348
     14          6           0        2.899673    0.078625    0.165154
     15          8           0        1.993920   -0.501691   -0.681265
     16          6           0        3.609971    1.250518   -0.334294
     17          8           0        3.461443    1.760206   -1.425309
     18          8           0        4.483934    1.723570    0.596528
     19          1           0       -2.048706    2.582350    1.852008
     20          1           0       -1.247417    2.098179    0.345211
     21          1           0       -1.407002    0.945910    1.691527
     22          1           0       -3.454646    2.807787   -0.840450
     23          1           0       -4.953505    2.089428   -0.199616
     24          1           0       -4.026214    3.237928    0.783702
     25          1           0       -4.362116   -0.010917   -0.340351
     26          1           0       -3.301762   -1.049359    1.759687
     27          1           0       -3.537388   -2.022752    0.302917
     28          1           0       -0.872962   -0.956353    1.347504
     29          1           0       -1.406667   -2.624480    1.161750
     30          1           0       -0.635322   -0.500918   -2.323519
     31          1           0       -0.470000    0.376482   -0.807053
     32          1           0       -3.036617   -0.668343   -2.101943
     33          1           0       -2.580268    1.024339   -1.924647
     34          1           0        0.285833   -3.310320   -0.310615
     35          1           0        0.608705   -2.400448   -1.795502
     36          1           0        1.742199   -2.414879    1.966491
     37          1           0        3.559587   -0.369542    2.199385
     38          1           0        4.906808    2.498626    0.183708
 ---------------------------------------------------------------------

 SCF Done:  E(UB3LYP) =  -842.881793549     A.U. after   33 cycles
 SCF Done:  E(UB3LYP) =  -842.881793549     a.u. after    1 cycles

 The electronic state is 2-A.
 Alpha  occ. eigenvalues --  -19.04441 -19.03287 -18.95787 -14.20641 -14.19590
 Alpha  occ. eigenvalues --  -10.14505 -10.09927 -10.09256 -10.09090 -10.08849
 Alpha  occ. eigenvalues --  -10.08694 -10.08590 -10.08217 -10.07979 -10.06473
 Alpha  occ. eigenvalues --  -10.06115 -10.04603 -10.03854  -0.98086  -0.96446
 Alpha  occ. eigenvalues --   -0.87379  -0.82996  -0.81601  -0.68998  -0.67342
 Alpha  occ. eigenvalues --   -0.65083  -0.64624  -0.61074  -0.59282  -0.55060
 Alpha  occ. eigenvalues --   -0.52634  -0.51179  -0.48543  -0.47506  -0.43998
 Alpha  occ. eigenvalues --   -0.42597  -0.40432  -0.38860  -0.37606  -0.36965
 Alpha  occ. eigenvalues --   -0.36202  -0.35656  -0.34612  -0.34338  -0.33249
 Alpha  occ. eigenvalues --   -0.32562  -0.31157  -0.30309  -0.29978  -0.29595
 Alpha  occ. eigenvalues --   -0.29373  -0.28685  -0.28101  -0.27622  -0.26872
 Alpha  occ. eigenvalues --   -0.26609  -0.25991  -0.24476  -0.24107  -0.23590
 Alpha  occ. eigenvalues --   -0.21957  -0.21410  -0.19239  -0.15993  -0.14290
 Alpha  occ. eigenvalues --   -0.11632  -0.11455  -0.10410   0.04467
 Alpha virt. eigenvalues --    0.05997   0.07326   0.07891   0.08650   0.08886
 Alpha virt. eigenvalues --    0.09374   0.09894   0.10190   0.10841   0.11452
 Alpha virt. eigenvalues --    0.11787   0.12379   0.12903   0.13223   0.14105

  Beta  occ. eigenvalues --  -19.04186 -19.03225 -18.95497 -14.20640 -14.19556
  Beta  occ. eigenvalues --  -10.14236 -10.09920 -10.09237 -10.09105 -10.08689
  Beta  occ. eigenvalues --  -10.08589 -10.08581 -10.08125 -10.07977 -10.06465
  Beta  occ. eigenvalues --  -10.06103 -10.04695 -10.03665  -0.97672  -0.96148
  Beta  occ. eigenvalues --   -0.86945  -0.82972  -0.81556  -0.68921  -0.67082
  Beta  occ. eigenvalues --   -0.65058  -0.64271  -0.61043  -0.59082  -0.54894
  Beta  occ. eigenvalues --   -0.52607  -0.50871  -0.48450  -0.47367  -0.43957
  Beta  occ. eigenvalues --   -0.42348  -0.40287  -0.38764  -0.37474  -0.36937
  Beta  occ. eigenvalues --   -0.36031  -0.35594  -0.34351  -0.34168  -0.32445
  Beta  occ. eigenvalues --   -0.32276  -0.31052  -0.30036  -0.29879  -0.29508
  Beta  occ. eigenvalues --   -0.28855  -0.28550  -0.27923  -0.27516  -0.26795
  Beta  occ. eigenvalues --   -0.26422  -0.25904  -0.24440  -0.23905  -0.23541
  Beta  occ. eigenvalues --   -0.21928  -0.21372  -0.18062  -0.15057  -0.14017
  Beta  occ. eigenvalues --   -0.11506  -0.11219  -0.09329
  Beta virt. eigenvalues --    0.06359   0.07436   0.08010   0.08631   0.08901
  Beta virt. eigenvalues --    0.09454   0.09783   0.09983   0.10204   0.10878
  Beta virt. eigenvalues --    0.11535   0.11781   0.12400   0.12864   0.13191

 Mulliken charges and spin densities:
               1          2
     1  C   -0.261818  -0.151555
     2  N    0.107906   0.018108
     3  C    0.258957  -0.501102
     4  C   -0.478858   0.561777
     5  C   -0.264698  -0.682227
     6  C   -0.142318   0.061768
     7  N    0.188344   0.086235
     8  C   -0.205271  -0.043282
     9  C   -0.263807  -0.605762
    10  C   -0.471790  -0.147594
    11  C    0.267470   0.281458
    12  C   -0.217876  -0.104153
    13  C   -0.149251   0.154894
    14  C   -0.225754   0.069713
    15  O    0.011356   0.052317
    16  C    0.117949   0.147380
    17  O   -0.390854   0.099146
    18  O   -0.226997   0.011855
    19  H    0.143205  -0.003375
    20  H    0.116022   0.032643
    21  H    0.061203   0.053472
    22  H    0.041551   0.057145
    23  H   -0.193737   0.327132
    24  H   -0.035559   0.157865
    25  H   -0.131322   0.307284
    26  H    0.074463   0.102416
    27  H   -0.015271   0.162931
    28  H    0.206763  -0.078352
    29  H    0.054626   0.090391
    30  H    0.195833  -0.017913
    31  H    0.158002  -0.016924
    32  H   -0.098827   0.248105
    33  H    0.100662   0.040416
    34  H    0.100320   0.064502
    35  H    0.070610   0.116905
    36  H    0.076280   0.052412
    37  H    0.162798  -0.005809
    38  H    0.259684  -0.000224
 Sum of Mulliken charges =  -1.00000   1.00000

 Dipole moment (field-independent basis, Debye):
    X=             -1.3381    Y=             -0.8970    Z=              2.5734  Tot=              3.0360
 Quadrupole moment (field-independent basis, Debye-Ang):
   XX=           -182.8487   YY=           -133.3858   ZZ=           -131.6633
   XY=             -1.0291   XZ=              4.0799   YZ=              2.0296

 Summary of Natural Population Analysis:

                                       Natural Population
                Natural  -----------------------------------------------
    Atom  No    Charge         Core      Valence    Rydberg      Total
 -----------------------------------------------------------------------
      C    1   -0.17803      0.99964     2.17150    0.00689     3.17803
      N    2   -0.28115      0.99972     2.76909    0.01234     3.78115
      C    3   -0.17598      0.99964     2.16756    0.00878     3.17598
      C    4   -0.00177      0.99956     1.98600    0.01620     3.00177
      C    5   -0.19862      0.99960     2.18862    0.01040     3.19862
      C    6   -0.08661      0.99961     2.07580    0.01120     3.08661
      N    7   -0.27618      0.99972     2.76317    0.01329     3.77618
      C    8   -0.08997      0.99961     2.07869    0.01167     3.08997
      C    9   -0.20557      0.99960     2.19647    0.00950     3.20557
      C   10   -0.10663      0.99957     2.09413    0.01292     3.10663
      C   11    0.19141      0.99948     1.79579    0.01332     2.80859
      C   12   -0.18220      0.99950     2.17454    0.00816     3.18220
      C   13   -0.09419      0.99954     2.08657    0.00808     3.09419
      C   14    0.09946      0.99941     1.88739    0.01374     2.90054
      O   15   -0.20689      0.99985     3.19883    0.00821     4.20689
      C   16    0.40372      0.99965     1.57311    0.02352     2.59628
      O   17   -0.29557      0.99987     3.28786    0.00784     4.29557
      O   18   -0.35350      0.99988     3.34783    0.00579     4.35350
      H   19    0.09051      0.00000     0.40851    0.00098     0.40949
      H   20    0.08308      0.00000     0.41548    0.00144     0.41692
      H   21    0.09772      0.00000     0.40111    0.00118     0.40228
      H   22    0.07884      0.00000     0.41982    0.00134     0.42116
      H   23    0.09478      0.00000     0.40412    0.00111     0.40522
      H   24    0.09207      0.00000     0.40700    0.00093     0.40793
      H   25    0.09644      0.00000     0.40201    0.00155     0.40356
      H   26    0.10223      0.00000     0.39647    0.00130     0.39777
      H   27    0.09991      0.00000     0.39871    0.00137     0.40009
      H   28    0.08369      0.00000     0.41467    0.00164     0.41631
      H   29    0.09354      0.00000     0.40537    0.00109     0.40646
      H   30    0.09833      0.00000     0.40062    0.00105     0.40167
      H   31    0.08939      0.00000     0.40877    0.00184     0.41061
      H   32    0.10000      0.00000     0.39828    0.00172     0.40000
      H   33    0.09963      0.00000     0.39941    0.00096     0.40037
      H   34    0.09879      0.00000     0.40032    0.00090     0.40121
      H   35    0.10341      0.00000     0.39548    0.00111     0.39659
      H   36    0.10134      0.00000     0.39772    0.00094     0.39866
      H   37    0.10378      0.00000     0.39535    0.00086     0.39622
      H   38    0.23081      0.00000     0.26593    0.00326     0.26919
 =======================================================================
   * Total *   -0.00000     17.99347    49.77809    0.22844    68.00000

 Normal termination of Gaussian 16 at Fri Dec 11 22:09:00 2020.
