 Gaussian 16, Revision A.03,

 -----------------------------------------------------------
 # opt freq B3LYP/6-31G(d) empiricaldispersion=gd3bj scf=xqc
 -----------------------------------------------------------

 ------------------------------
 CID_63881931_JID_9514_neutraal
 ------------------------------
 Symbolic Z-matrix:
 Charge =  0 Multiplicity = 1

 SCF Done:  E(RB3LYP) =  -1164.21704414     A.U. after   15 cycles
 SCF Done:  E(RB3LYP) =  -1164.22218252     A.U. after   13 cycles
 SCF Done:  E(RB3LYP) =  -1164.22279812     A.U. after   14 cycles
 SCF Done:  E(RB3LYP) =  -1164.22314643     A.U. after   12 cycles
 SCF Done:  E(RB3LYP) =  -1164.22320382     A.U. after   12 cycles
 SCF Done:  E(RB3LYP) =  -1164.22327198     A.U. after   11 cycles
 SCF Done:  E(RB3LYP) =  -1164.22329664     A.U. after   11 cycles
 SCF Done:  E(RB3LYP) =  -1164.22330714     A.U. after   10 cycles
 SCF Done:  E(RB3LYP) =  -1164.22331259     A.U. after   10 cycles
 SCF Done:  E(RB3LYP) =  -1164.22331454     A.U. after   10 cycles
 SCF Done:  E(RB3LYP) =  -1164.22390982     A.U. after    9 cycles
 SCF Done:  E(RB3LYP) =  -1164.22391001     A.U. after    8 cycles
 SCF Done:  E(RB3LYP) =  -1164.22390998     A.U. after    8 cycles
 SCF Done:  E(RB3LYP) =  -1164.22391014     A.U. after    7 cycles
 Optimization completed.
    -- Stationary point found.
 Normal termination of Gaussian 16 at Sat Dec 12 10:29:25 2020.

 --------------------------------------------------------------------
 #N Geom=AllCheck Guess=TCheck SCRF=Check GenChk RB3LYP/6-31G(d) Freq
 --------------------------------------------------------------------

 Structure from the checkpoint file:  "JID_9514.chk"
 ------------------------------
 CID_63881931_JID_9514_neutraal
 ------------------------------
 Charge =  0 Multiplicity = 1

 SCF Done:  E(RB3LYP) =  -1164.22391014     A.U. after    1 cycles

  Exact polarizability: 186.029  -0.542 216.014  -2.917 -10.076 148.058
 Approx polarizability: 289.174 -10.069 349.315 -15.238 -17.052 256.755

                      1                      2                      3
                      A                      A                      A
 Frequencies --     27.4242                31.5534                42.3073
 Red. masses --      5.4737                 4.9156                 4.4294
 Frc consts  --      0.0024                 0.0029                 0.0047
 IR Inten    --      0.5268                 0.0666                 1.6317

                      4                      5                      6
                      A                      A                      A
 Frequencies --     53.4143                88.7847               116.1932
 Red. masses --      7.1007                 4.8522                 1.0704
 Frc consts  --      0.0119                 0.0225                 0.0085
 IR Inten    --      1.3027                 1.8835                 0.0835

                      7                      8                      9
                      A                      A                      A
 Frequencies --    135.4792               143.3549               165.9842
 Red. masses --      3.6690                 4.9297                 1.3786
 Frc consts  --      0.0397                 0.0597                 0.0224
 IR Inten    --      2.3604                 0.6184                 1.7877

                     10                     11                     12
                      A                      A                      A
 Frequencies --    175.6403               211.2888               233.3942
 Red. masses --      2.4324                 5.3716                 2.8683
 Frc consts  --      0.0442                 0.1413                 0.0921
 IR Inten    --      1.6868                 1.4851                 2.5441

                     13                     14                     15
                      A                      A                      A
 Frequencies --    267.7579               290.7662               315.8397
 Red. masses --      3.2238                 4.2392                 3.0765
 Frc consts  --      0.1362                 0.2112                 0.1808
 IR Inten    --      0.4619                11.7881                 0.8019

                     16                     17                     18
                      A                      A                      A
 Frequencies --    331.0469               345.5501               380.2810
 Red. masses --      3.5001                 3.5018                 3.5402
 Frc consts  --      0.2260                 0.2464                 0.3016
 IR Inten    --      1.8149                 1.5322                 5.2613

                     19                     20                     21
                      A                      A                      A
 Frequencies --    429.9704               441.4983               474.7571
 Red. masses --      2.7958                 1.6340                 2.6432
 Frc consts  --      0.3045                 0.1877                 0.3510
 IR Inten    --     40.7367               121.2929                34.0458

                     22                     23                     24
                      A                      A                      A
 Frequencies --    489.5679               508.7503               518.8004
 Red. masses --      4.5477                 3.5441                 3.5206
 Frc consts  --      0.6422                 0.5405                 0.5583
 IR Inten    --     12.9020                 1.0851                 2.1711

                     25                     26                     27
                      A                      A                      A
 Frequencies --    524.0672               541.8470               557.3947
 Red. masses --      4.5101                 5.5512                 4.7197
 Frc consts  --      0.7298                 0.9603                 0.8640
 IR Inten    --      7.4810                 2.1275                 6.2736

                     28                     29                     30
                      A                      A                      A
 Frequencies --    588.8186               628.8912               645.2863
 Red. masses --      4.1597                 1.3349                 3.3546
 Frc consts  --      0.8497                 0.3111                 0.8230
 IR Inten    --      0.4530                10.4308                13.1977

                     31                     32                     33
                      A                      A                      A
 Frequencies --    667.1733               692.6427               731.2414
 Red. masses --      5.5355                 4.7509                 2.3104
 Frc consts  --      1.4517                 1.3429                 0.7279
 IR Inten    --      0.5119                 6.6071                 6.2531

                     34                     35                     36
                      A                      A                      A
 Frequencies --    747.1135               780.4500               792.2115
 Red. masses --      5.9905                 4.3132                 1.6796
 Frc consts  --      1.9701                 1.5479                 0.6211
 IR Inten    --      4.9807                 0.4398                47.7461

                     37                     38                     39
                      A                      A                      A
 Frequencies --    823.7684               844.6648               873.4401
 Red. masses --      4.6589                 1.4812                 3.0028
 Frc consts  --      1.8627                 0.6226                 1.3497
 IR Inten    --      0.1654                31.8192                11.4937

                     40                     41                     42
                      A                      A                      A
 Frequencies --    885.7162               901.5428               939.0622
 Red. masses --      1.3885                 2.7161                 1.3320
 Frc consts  --      0.6418                 1.3007                 0.6920
 IR Inten    --      0.2959                 5.1181                 6.1441

                     43                     44                     45
                      A                      A                      A
 Frequencies --    961.5696               981.8795               989.1067
 Red. masses --      1.2593                 1.3988                 2.3073
 Frc consts  --      0.6860                 0.7946                 1.3300
 IR Inten    --      0.3413                 0.3441                12.4785

                     46                     47                     48
                      A                      A                      A
 Frequencies --   1015.2337              1021.1810              1043.3648
 Red. masses --      6.9239                 1.4232                 2.0762
 Frc consts  --      4.2047                 0.8744                 1.3316
 IR Inten    --      6.8257                 7.4028                 4.8456

                     49                     50                     51
                      A                      A                      A
 Frequencies --   1050.9164              1059.1071              1084.9005
 Red. masses --      2.3434                 1.4513                 1.5638
 Frc consts  --      1.5249                 0.9591                 1.0844
 IR Inten    --     13.0368                 8.1459                 0.0492

                     52                     53                     54
                      A                      A                      A
 Frequencies --   1117.2727              1130.1621              1136.3683
 Red. masses --      2.5808                 1.8179                 1.8044
 Frc consts  --      1.8981                 1.3681                 1.3728
 IR Inten    --     60.5961                24.9844                29.8125

                     55                     56                     57
                      A                      A                      A
 Frequencies --   1174.0512              1206.8958              1220.2023
 Red. masses --      1.6318                 1.2372                 3.5065
 Frc consts  --      1.3253                 1.0618                 3.0760
 IR Inten    --     20.8869                 5.3855                12.5691

                     58                     59                     60
                      A                      A                      A
 Frequencies --   1243.5890              1267.4374              1289.3130
 Red. masses --      2.6961                 1.6286                 1.7050
 Frc consts  --      2.4566                 1.5414                 1.6699
 IR Inten    --     16.2093                35.4314                35.9918

                     61                     62                     63
                      A                      A                      A
 Frequencies --   1292.5569              1315.1473              1331.9843
 Red. masses --      2.3466                 4.1315                 1.4779
 Frc consts  --      2.3099                 4.2102                 1.5449
 IR Inten    --     18.8662                30.8116                16.5617

                     64                     65                     66
                      A                      A                      A
 Frequencies --   1350.4637              1354.8881              1381.7219
 Red. masses --      4.0065                 3.3663                 3.9404
 Frc consts  --      4.3050                 3.6409                 4.4323
 IR Inten    --     46.4449                81.4470               143.1504

                     67                     68                     69
                      A                      A                      A
 Frequencies --   1411.4016              1436.8004              1449.2531
 Red. masses --      1.7315                 1.2897                 1.2331
 Frc consts  --      2.0322                 1.5687                 1.5260
 IR Inten    --      7.7529                 3.5712                 4.5377

                     70                     71                     72
                      A                      A                      A
 Frequencies --   1449.9204              1493.1436              1509.6285
 Red. masses --      2.5104                 1.6025                 1.2837
 Frc consts  --      3.1095                 2.1050                 1.7237
 IR Inten    --     21.9859                10.7646                 2.9095

                     73                     74                     75
                      A                      A                      A
 Frequencies --   1513.3422              1520.6851              1525.8773
 Red. masses --      1.5813                 2.2333                 1.3179
 Frc consts  --      2.1337                 3.0428                 1.8079
 IR Inten    --      1.3593                12.2898                18.3773

                     76                     77                     78
                      A                      A                      A
 Frequencies --   1530.0165              1532.0287              1536.0660
 Red. masses --      1.1260                 1.2271                 1.1752
 Frc consts  --      1.5531                 1.6970                 1.6338
 IR Inten    --      2.4377                28.7620                29.8646

                     79                     80                     81
                      A                      A                      A
 Frequencies --   1625.2824              1641.8528              1650.6037
 Red. masses --      7.1167                 5.8318                 4.5421
 Frc consts  --     11.0761                 9.2624                 7.2911
 IR Inten    --     16.1190                41.0508                46.3519

                     82                     83                     84
                      A                      A                      A
 Frequencies --   1661.5257              1662.4928              3037.8317
 Red. masses --      4.1321                 1.4141                 1.0469
 Frc consts  --      6.7210                 2.3027                 5.6922
 IR Inten    --     18.0736               110.8227                14.6971

                     85                     86                     87
                      A                      A                      A
 Frequencies --   3040.1366              3040.5888              3086.5489
 Red. masses --      1.0400                 1.0664                 1.0991
 Frc consts  --      5.6632                 5.8087                 6.1695
 IR Inten    --     42.6318                31.0646                34.1007

                     88                     89                     90
                      A                      A                      A
 Frequencies --   3089.9811              3100.7009              3132.9598
 Red. masses --      1.0957                 1.0967                 1.0998
 Frc consts  --      6.1637                 6.2125                 6.3604
 IR Inten    --     10.5612                15.2785                17.7025

                     91                     92                     93
                      A                      A                      A
 Frequencies --   3174.2946              3175.8738              3187.8896
 Red. masses --      1.0953                 1.0883                 1.0869
 Frc consts  --      6.5024                 6.4672                 6.5079
 IR Inten    --      4.9771                17.1178                 4.8214

                     94                     95                     96
                      A                      A                      A
 Frequencies --   3197.8676              3204.1243              3222.6946
 Red. masses --      1.0945                 1.0922                 1.0938
 Frc consts  --      6.5943                 6.6066                 6.6931
 IR Inten    --     23.3077                22.0699                10.4569

                     97                     98                     99
                      A                      A                      A
 Frequencies --   3254.8170              3536.3409              3671.2100
 Red. masses --      1.0901                 1.0476                 1.1025
 Frc consts  --      6.8042                 7.7187                 8.7545
 IR Inten    --      0.3114                83.1771                50.5368

 - Thermochemistry -
 -------------------
 Temperature   298.150 Kelvin.  Pressure   1.00000 Atm.
 Atom     1 has atomic number  6 and mass  12.00000

 Molecular mass:   272.09834 amu.
 Principal axes and moments of inertia in atomic units:
                           1         2         3
     Eigenvalues --  3955.779076315.697278300.41209
           X            0.99821   0.05970  -0.00299
           Y           -0.05973   0.99816  -0.00997
           Z            0.00239   0.01013   0.99995
 This molecule is an asymmetric top.
 Rotational symmetry number  1.
 Warning -- assumption of classical behavior for rotation
           may cause significant error
 Rotational temperatures (Kelvin)      0.02190     0.01371     0.01043
 Rotational constants (GHZ):           0.45623     0.28575     0.21743
 Zero-point vibrational energy     745918.5 (Joules/Mol)
                                  178.27879 (Kcal/Mol)
 Warning -- explicit consideration of  28 degrees of freedom as
           vibrations may cause significant error
 Vibrational temperatures:     39.46    45.40    60.87    76.85   127.74
          (Kelvin)            167.18   194.92   206.26   238.81   252.71
                              304.00   335.80   385.24   418.35   454.42
                              476.30   497.17   547.14   618.63   635.22
                              683.07   704.38   731.98   746.44   754.02
                              779.60   801.97   847.18   904.83   928.42
                              959.91   996.56  1052.09  1074.93  1122.89
                             1139.82  1185.22  1215.28  1256.69  1274.35
                             1297.12  1351.10  1383.48  1412.71  1423.10
                             1460.69  1469.25  1501.17  1512.03  1523.82
                             1560.93  1607.51  1626.05  1634.98  1689.20
                             1736.45  1755.60  1789.25  1823.56  1855.03
                             1859.70  1892.20  1916.43  1943.02  1949.38
                             1987.99  2030.69  2067.24  2085.15  2086.11
                             2148.30  2172.02  2177.36  2187.93  2195.40
                             2201.35  2204.25  2210.06  2338.42  2362.26
                             2374.85  2390.56  2391.96  4370.76  4374.08
                             4374.73  4440.86  4445.79  4461.22  4507.63
                             4567.10  4569.37  4586.66  4601.02  4610.02
                             4636.74  4682.96  5088.01  5282.05

 Zero-point correction=                           0.284105 (Hartree/Particle)
 Thermal correction to Energy=                    0.301844
 Thermal correction to Enthalpy=                  0.302788
 Thermal correction to Gibbs Free Energy=         0.237037
 Sum of electronic and zero-point Energies=          -1163.939805
 Sum of electronic and thermal Energies=             -1163.922066
 Sum of electronic and thermal Enthalpies=           -1163.921122
 Sum of electronic and thermal Free Energies=        -1163.986873

                     E (Thermal)             CV                S
                      KCal/Mol        Cal/Mol-Kelvin    Cal/Mol-Kelvin
 Total                  189.410             67.805            138.385
 Electronic               0.000              0.000              0.000
 Translational            0.889              2.981             42.702
 Rotational               0.889              2.981             33.694
 Vibrational            187.633             61.844             61.989
 Vibration     1          0.593              1.984              6.008
 Vibration     2          0.594              1.983              5.729
 Vibration     3          0.595              1.980              5.148
 Vibration     4          0.596              1.976              4.687
 Vibration     5          0.602              1.957              3.687
 Vibration     6          0.608              1.936              3.163
 Vibration     7          0.613              1.918              2.867
 Vibration     8          0.616              1.910              2.759
 Vibration     9          0.624              1.884              2.480
 Vibration    10          0.628              1.872              2.374
 Vibration    11          0.643              1.824              2.033
 Vibration    12          0.654              1.790              1.853
 Vibration    13          0.673              1.732              1.611
 Vibration    14          0.687              1.691              1.469
 Vibration    15          0.703              1.643              1.332
 Vibration    16          0.713              1.613              1.255
 Vibration    17          0.724              1.584              1.186
 Vibration    18          0.750              1.512              1.038
 Vibration    19          0.791              1.405              0.859
 Vibration    20          0.801              1.380              0.822
 Vibration    21          0.831              1.306              0.724
 Vibration    22          0.845              1.273              0.685
 Vibration    23          0.864              1.231              0.637
 Vibration    24          0.874              1.208              0.613
 Vibration    25          0.879              1.197              0.601
 Vibration    26          0.897              1.158              0.561
 Vibration    27          0.913              1.124              0.529
 Vibration    28          0.946              1.056              0.469

                           ! Non-Optimized Parameters !
 Normal termination of Gaussian 16 at Sat Dec 12 10:49:57 2020.

 ----------------------------------------------------------------------
 # B3LYP/6-311++G(d,p) empiricaldispersion=gd3bj scf=xqc pop=npa geom=c
 heck
 ----------------------------------------------------------------------

 --------------------------------------
 CID_63881931_JID_9514_Energie_neutraal
 --------------------------------------
 Structure from the checkpoint file:  "JID_9514.chk"
 Charge =  0 Multiplicity = 1

 SCF Done:  E(RB3LYP) =  -1164.45366257     A.U. after   17 cycles
 Normal termination of Gaussian 16 at Sat Dec 12 10:59:51 2020.

 ----------------------------------------------------------------------
 # B3LYP/6-311++G(d,p) empiricaldispersion=gd3bj scf=xqc pop=npa geom=c
 heck
 ----------------------------------------------------------------------

 ------------------------------------
 CID_63881931_JID_9514_Energie_kation
 ------------------------------------
 Structure from the checkpoint file:  "JID_9514.chk"
 Charge =  1 Multiplicity = 2

 SCF Done:  E(UB3LYP) =  -1164.17151577     A.U. after   33 cycles
 SCF Done:  E(UB3LYP) =  -1164.17151578     a.u. after    2 cycles
 Normal termination of Gaussian 16 at Sat Dec 12 11:50:28 2020.
 Gaussian 16:  ES64L-G16RevA.03 25-Dec-2016

 ----------------------------------------------------------------------
 # B3LYP/6-311++G(d,p) empiricaldispersion=gd3bj scf=xqc pop=npa geom=c
 heck
 ----------------------------------------------------------------------

 -----------------------------------
 CID_63881931_JID_9514_Energie_anion
 -----------------------------------
 Structure from the checkpoint file:  "JID_9514.chk"
 Charge = -1 Multiplicity = 2

                         Standard orientation:
 ---------------------------------------------------------------------
 Center     Atomic      Atomic             Coordinates (Angstroms)
 Number     Number       Type             X           Y           Z
 ---------------------------------------------------------------------
      1          6           0       -2.988549   -2.715341   -0.186852
      2          6           0       -2.654700   -1.268174   -0.457448
      3          6           0       -2.259990   -0.425745    0.601058
      4          6           0       -1.945830    0.913977    0.313078
      5          6           0       -2.035073    1.416527   -0.986356
      6          6           0       -2.427834    0.572981   -2.021347
      7          6           0       -2.728937   -0.761612   -1.760147
      8          8           0       -1.526828    1.692883    1.374480
      9          6           0       -0.486174    2.637667    1.129805
     10          6           0        0.728583    2.010219    0.481209
     11          6           0        0.989521    0.650984    0.651326
     12          6           0        2.041784    0.059253   -0.052173
     13          7           0        2.885002    0.757868   -0.826340
     14          6           0        2.662512    2.068086   -0.939993
     15          6           0        1.590912    2.735527   -0.338395
     16          6           0        2.214456   -1.427223    0.015633
     17         16           0        3.685764   -2.174084    0.158761
     18          7           0        1.036609   -2.100480   -0.002830
     19          6           0       -2.143380   -0.958348    2.007703
     20          1           0       -2.161119   -3.241207    0.306524
     21          1           0       -3.855964   -2.810112    0.478456
     22          1           0       -3.218794   -3.245716   -1.114968
     23          1           0       -1.785183    2.451231   -1.191919
     24          1           0       -2.490752    0.958178   -3.034768
     25          1           0       -3.027572   -1.420125   -2.570972
     26          1           0       -0.846104    3.479321    0.523139
     27          1           0       -0.242309    3.032842    2.121134
     28          1           0        0.366465    0.052744    1.302016
     29          1           0        3.360405    2.615016   -1.571059
     30          1           0        1.433592    3.794875   -0.522965
     31          1           0        0.179778   -1.651701   -0.308405
     32          1           0        1.073369   -3.111162   -0.011610
     33          1           0       -1.362826   -1.728359    2.076741
     34          1           0       -1.896477   -0.161742    2.709276
     35          1           0       -3.079186   -1.426187    2.334959
 ---------------------------------------------------------------------

 SCF Done:  E(UB3LYP) =  -1164.47039386     A.U. after   33 cycles
 SCF Done:  E(UB3LYP) =  -1164.47039386     a.u. after    1 cycles

 The electronic state is 2-A.
 Alpha  occ. eigenvalues --  -88.63189 -19.04971 -14.19444 -14.15223 -10.13729
 Alpha  occ. eigenvalues --  -10.12878 -10.09538 -10.08932 -10.08739 -10.08359
 Alpha  occ. eigenvalues --  -10.08314 -10.07907 -10.07877 -10.07485 -10.06811
 Alpha  occ. eigenvalues --  -10.05753 -10.05588 -10.03956 -10.03432  -7.71968
 Alpha  occ. eigenvalues --   -5.68310  -5.67906  -5.67517  -0.96573  -0.80768
 Alpha  occ. eigenvalues --   -0.78522  -0.77063  -0.69429  -0.69294  -0.66980
 Alpha  occ. eigenvalues --   -0.63173  -0.61633  -0.59858  -0.58201  -0.58010
 Alpha  occ. eigenvalues --   -0.50844  -0.49947  -0.49548  -0.47721  -0.43719
 Alpha  occ. eigenvalues --   -0.41981  -0.40613  -0.40314  -0.38772  -0.38018
 Alpha  occ. eigenvalues --   -0.35511  -0.34821  -0.34753  -0.34021  -0.32917
 Alpha  occ. eigenvalues --   -0.31954  -0.31706  -0.31134  -0.30654  -0.30330
 Alpha  occ. eigenvalues --   -0.29316  -0.27115  -0.27037  -0.26155  -0.25698
 Alpha  occ. eigenvalues --   -0.24345  -0.23330  -0.22039  -0.21328  -0.20251
 Alpha  occ. eigenvalues --   -0.15660  -0.14830  -0.13828  -0.12756  -0.11344
 Alpha  occ. eigenvalues --   -0.08345  -0.05492   0.03784
 Alpha virt. eigenvalues --    0.06286   0.07102   0.07473   0.07790   0.08436
 Alpha virt. eigenvalues --    0.09116   0.09237   0.10004   0.10433   0.10749
 Alpha virt. eigenvalues --    0.11381   0.11832   0.11940   0.12766   0.13130

  Beta  occ. eigenvalues --  -88.63126 -19.04960 -14.19330 -14.14925 -10.13728
  Beta  occ. eigenvalues --  -10.12885 -10.09544 -10.08931 -10.08700 -10.08332
  Beta  occ. eigenvalues --  -10.07924 -10.07910 -10.07865 -10.07484 -10.06889
  Beta  occ. eigenvalues --  -10.05663 -10.05377 -10.03955 -10.03163  -7.71912
  Beta  occ. eigenvalues --   -5.68284  -5.67705  -5.67480  -0.96545  -0.80253
  Beta  occ. eigenvalues --   -0.78119  -0.77024  -0.69271  -0.69183  -0.66833
  Beta  occ. eigenvalues --   -0.62706  -0.61585  -0.59789  -0.58126  -0.57522
  Beta  occ. eigenvalues --   -0.50668  -0.49704  -0.49320  -0.47614  -0.43505
  Beta  occ. eigenvalues --   -0.41817  -0.40586  -0.40175  -0.38717  -0.37872
  Beta  occ. eigenvalues --   -0.35430  -0.34740  -0.34642  -0.33900  -0.32717
  Beta  occ. eigenvalues --   -0.31891  -0.31615  -0.31052  -0.30621  -0.30289
  Beta  occ. eigenvalues --   -0.29036  -0.27001  -0.26856  -0.25831  -0.25101
  Beta  occ. eigenvalues --   -0.24124  -0.23153  -0.21189  -0.20838  -0.19841
  Beta  occ. eigenvalues --   -0.15436  -0.14031  -0.13236  -0.11812  -0.10970
  Beta  occ. eigenvalues --   -0.07199  -0.05265
  Beta virt. eigenvalues --    0.06236   0.07107   0.07541   0.07742   0.08332
  Beta virt. eigenvalues --    0.09036   0.09167   0.09613   0.09987   0.10656
  Beta virt. eigenvalues --    0.10939   0.11405   0.11810   0.11941   0.12911

 Mulliken charges and spin densities:
               1          2
     1  C   -0.628002  -0.004385
     2  C    0.455435  -0.029912
     3  C    0.403841   0.087319
     4  C   -0.456587  -0.013652
     5  C    0.025444  -0.034313
     6  C   -0.337494   0.016649
     7  C   -0.410351   0.022231
     8  O   -0.078664  -0.000828
     9  C   -0.336543  -0.000545
    10  C    0.908897  -0.082883
    11  C    0.516495   0.135636
    12  C   -0.493470   0.026170
    13  N    0.092949   0.140487
    14  C    0.264322  -0.074539
    15  C   -1.199147   0.281401
    16  C   -0.546020   0.229650
    17  S   -0.887530   0.166017
    18  N   -0.319333   0.060947
    19  C   -0.537198  -0.053514
    20  H    0.130643   0.015172
    21  H    0.149939  -0.000207
    22  H    0.135197   0.000736
    23  H    0.094145   0.040754
    24  H    0.148828   0.010997
    25  H    0.129639  -0.000358
    26  H    0.151752   0.014105
    27  H    0.147843   0.017033
    28  H    0.145002   0.027840
    29  H    0.147052   0.002504
    30  H    0.098406  -0.007742
    31  H    0.349677  -0.015199
    32  H    0.244217  -0.000024
    33  H    0.168939   0.021154
    34  H    0.208591  -0.004446
    35  H    0.113087   0.005746
 Sum of Mulliken charges =  -1.00000   1.00000

 Dipole moment (field-independent basis, Debye):
    X=            -12.1660    Y=              2.6715    Z=              0.2273  Tot=             12.4579
 Quadrupole moment (field-independent basis, Debye-Ang):
   XX=           -187.3899   YY=           -140.4624   ZZ=           -131.2564
   XY=             21.8797   XZ=              2.4521   YZ=              0.8442

 Summary of Natural Population Analysis:

                                       Natural Population
                Natural  -----------------------------------------------
    Atom  No    Charge         Core      Valence    Rydberg      Total
 -----------------------------------------------------------------------
      C    1   -0.29329      0.99964     2.28906    0.00459     3.29329
      C    2   -0.01781      0.99949     2.01073    0.00760     3.01781
      C    3   -0.03189      0.99942     2.02246    0.01001     3.03189
      C    4    0.16638      0.99932     1.82039    0.01391     2.83362
      C    5   -0.12894      0.99951     2.12067    0.00877     3.12894
      C    6   -0.08923      0.99958     2.08136    0.00829     3.08923
      C    7   -0.11252      0.99952     2.10454    0.00845     3.11252
      O    8   -0.28730      0.99986     3.27892    0.00852     4.28730
      C    9   -0.01062      0.99952     2.00072    0.01038     3.01062
      C   10   -0.01738      0.99949     2.00879    0.00910     3.01738
      C   11   -0.11807      0.99947     2.11022    0.00838     3.11807
      C   12    0.10885      0.99945     1.87448    0.01722     2.89115
      N   13   -0.17462      0.99968     2.66566    0.00928     3.67462
      C   14    0.01117      0.99960     1.97567    0.01356     2.98883
      C   15   -0.08498      0.99951     2.07437    0.01110     3.08498
      C   16    0.10822      0.99962     1.87217    0.01999     2.89178
      S   17   -0.10243      4.99952     3.08782    0.01508     8.10243
      N   18   -0.37979      0.99968     2.86872    0.01140     3.87979
      C   19   -0.30165      0.99964     2.29715    0.00486     3.30165
      H   20    0.10492      0.00000     0.39408    0.00100     0.39508
      H   21    0.10069      0.00000     0.39834    0.00096     0.39931
      H   22    0.10004      0.00000     0.39915    0.00081     0.39996
      H   23    0.10498      0.00000     0.39367    0.00135     0.39502
      H   24    0.09708      0.00000     0.40159    0.00134     0.40292
      H   25    0.09574      0.00000     0.40331    0.00095     0.40426
      H   26    0.08116      0.00000     0.41747    0.00137     0.41884
      H   27    0.09619      0.00000     0.40281    0.00099     0.40381
      H   28    0.10318      0.00000     0.39502    0.00180     0.39682
      H   29    0.08048      0.00000     0.41828    0.00124     0.41952
      H   30    0.09018      0.00000     0.40890    0.00092     0.40982
      H   31    0.19166      0.00000     0.30668    0.00165     0.30834
      H   32    0.18763      0.00000     0.30978    0.00259     0.31237
      H   33    0.10830      0.00000     0.39012    0.00158     0.39170
      H   34    0.11435      0.00000     0.38477    0.00088     0.38565
      H   35    0.09933      0.00000     0.39979    0.00088     0.40067
 =======================================================================
   * Total *    0.00000     22.99153    48.78766    0.22082    72.00000

 Normal termination of Gaussian 16 at Sat Dec 12 12:17:04 2020.
