 Gaussian 16, Revision A.03,

 -----------------------------------------------------------
 # opt freq B3LYP/6-31G(d) empiricaldispersion=gd3bj scf=xqc
 -----------------------------------------------------------

 ------------------------------
 CID_149315436_JID_170_neutraal
 ------------------------------
 Symbolic Z-matrix:
 Charge =  0 Multiplicity = 1

 SCF Done:  E(RB3LYP) =  -390.572231376     A.U. after   18 cycles
 SCF Done:  E(RB3LYP) =  -390.600360082     A.U. after   15 cycles
 SCF Done:  E(RB3LYP) =  -390.606183532     A.U. after   14 cycles
 SCF Done:  E(RB3LYP) =  -390.608378982     A.U. after   12 cycles
 SCF Done:  E(RB3LYP) =  -390.611610005     A.U. after   13 cycles
 SCF Done:  E(RB3LYP) =  -390.612374094     A.U. after   13 cycles
 SCF Done:  E(RB3LYP) =  -390.612835053     A.U. after   13 cycles
 SCF Done:  E(RB3LYP) =  -390.612922620     A.U. after   12 cycles
 SCF Done:  E(RB3LYP) =  -390.612945710     A.U. after   10 cycles
 SCF Done:  E(RB3LYP) =  -390.612955154     A.U. after   11 cycles
 SCF Done:  E(RB3LYP) =  -390.612959086     A.U. after    9 cycles
 SCF Done:  E(RB3LYP) =  -390.612962415     A.U. after   11 cycles
 SCF Done:  E(RB3LYP) =  -390.612963333     A.U. after    9 cycles
 SCF Done:  E(RB3LYP) =  -390.612963534     A.U. after    8 cycles
 Optimization completed.
    -- Stationary point found.
 Normal termination of Gaussian 16 at Tue Dec  8 10:21:46 2020.

 --------------------------------------------------------------------
 #N Geom=AllCheck Guess=TCheck SCRF=Check GenChk RB3LYP/6-31G(d) Freq
 --------------------------------------------------------------------

 Structure from the checkpoint file:  "JID_170.chk"
 ------------------------------
 CID_149315436_JID_170_neutraal
 ------------------------------
 Charge =  0 Multiplicity = 1

 SCF Done:  E(RB3LYP) =  -390.612963534     A.U. after    1 cycles

  Exact polarizability: 126.026  -5.299  97.958  -0.250   7.998  89.466
 Approx polarizability: 189.911  -8.645 144.118  -1.423  25.457 145.645

                      1                      2                      3
                      A                      A                      A
 Frequencies --     31.7929                88.6257               116.0431
 Red. masses --      2.5900                 2.6583                 2.5518
 Frc consts  --      0.0015                 0.0123                 0.0202
 IR Inten    --      0.2334                 1.6727                 1.1725

                      4                      5                      6
                      A                      A                      A
 Frequencies --    183.9789               197.7999               220.1422
 Red. masses --      2.5349                 2.0843                 1.6380
 Frc consts  --      0.0506                 0.0480                 0.0468
 IR Inten    --      0.9290                 2.0215                 0.1101

                      7                      8                      9
                      A                      A                      A
 Frequencies --    252.1622               268.4464               278.9725
 Red. masses --      1.6251                 1.1157                 1.9265
 Frc consts  --      0.0609                 0.0474                 0.0883
 IR Inten    --      0.6500                 0.0646                 3.6836

                     10                     11                     12
                      A                      A                      A
 Frequencies --    294.1795               360.4311               371.9847
 Red. masses --      1.3507                 2.4813                 2.1594
 Frc consts  --      0.0689                 0.1899                 0.1760
 IR Inten    --      2.0798                 3.7583                10.5804

                     13                     14                     15
                      A                      A                      A
 Frequencies --    421.8033               480.9970               542.0391
 Red. masses --      2.8363                 2.8607                 3.4716
 Frc consts  --      0.2973                 0.3899                 0.6009
 IR Inten    --      3.8798                 4.5852                17.6016

                     16                     17                     18
                      A                      A                      A
 Frequencies --    646.5653               732.4961               751.4202
 Red. masses --      4.7812                 1.6879                 4.1941
 Frc consts  --      1.1776                 0.5336                 1.3953
 IR Inten    --     39.8678                 9.0550                15.0624

                     19                     20                     21
                      A                      A                      A
 Frequencies --    776.9239               858.9472               879.1299
 Red. masses --      1.4262                 1.7336                 2.0462
 Frc consts  --      0.5072                 0.7536                 0.9317
 IR Inten    --      3.8382                 2.8704                 6.8627

                     22                     23                     24
                      A                      A                      A
 Frequencies --    900.1829               923.3738               947.0923
 Red. masses --      2.3080                 2.5619                 1.2504
 Frc consts  --      1.1019                 1.2870                 0.6608
 IR Inten    --      2.7607                 3.3205                 0.3817

                     25                     26                     27
                      A                      A                      A
 Frequencies --    955.6326               976.4629               987.1890
 Red. masses --      2.3591                 1.4806                 1.5881
 Frc consts  --      1.2693                 0.8317                 0.9119
 IR Inten    --      8.2690                 1.7425                 4.6604

                     28                     29                     30
                      A                      A                      A
 Frequencies --   1023.4242              1067.5920              1096.4152
 Red. masses --      1.7240                 2.4593                 1.5003
 Frc consts  --      1.0639                 1.6515                 1.0626
 IR Inten    --     32.3058                 2.5371                 2.9780

                     31                     32                     33
                      A                      A                      A
 Frequencies --   1110.5804              1129.7162              1181.1515
 Red. masses --      1.6764                 1.9883                 1.9018
 Frc consts  --      1.2182                 1.4951                 1.5633
 IR Inten    --      5.5881                 2.1310                 4.9007

                     34                     35                     36
                      A                      A                      A
 Frequencies --   1191.3170              1222.7277              1236.1232
 Red. masses --      1.6938                 1.9462                 1.4772
 Frc consts  --      1.4163                 1.7143                 1.3298
 IR Inten    --     10.5239                14.2069                 8.2492

                     37                     38                     39
                      A                      A                      A
 Frequencies --   1264.2699              1299.7867              1314.7934
 Red. masses --      1.5655                 1.2966                 1.3727
 Frc consts  --      1.4743                 1.2906                 1.3981
 IR Inten    --      7.5328                 5.9169                 3.8148

                     40                     41                     42
                      A                      A                      A
 Frequencies --   1330.6915              1349.2923              1372.5982
 Red. masses --      1.3061                 1.5147                 1.3329
 Frc consts  --      1.3626                 1.6247                 1.4795
 IR Inten    --      0.9770                22.0714                19.8900

                     43                     44                     45
                      A                      A                      A
 Frequencies --   1384.2869              1414.6269              1438.5632
 Red. masses --      1.4368                 1.2279                 1.2474
 Frc consts  --      1.6221                 1.4477                 1.5209
 IR Inten    --      5.1941                 7.6251                 2.7401

                     46                     47                     48
                      A                      A                      A
 Frequencies --   1444.2888              1464.3955              1507.7998
 Red. masses --      1.2409                 2.8538                 1.1373
 Frc consts  --      1.5251                 3.6057                 1.5234
 IR Inten    --      2.7582                10.0860                 5.6253

                     49                     50                     51
                      A                      A                      A
 Frequencies --   1516.4111              1518.4603              1520.6754
 Red. masses --      1.0611                 1.0629                 1.0478
 Frc consts  --      1.4376                 1.4440                 1.4276
 IR Inten    --      1.3666                 6.9421                 0.6054

                     52                     53                     54
                      A                      A                      A
 Frequencies --   1529.0696              1531.8529              1537.2973
 Red. masses --      1.0513                 1.0495                 1.0733
 Frc consts  --      1.4482                 1.4510                 1.4944
 IR Inten    --      2.3002                 3.4382                 3.4945

                     55                     56                     57
                      A                      A                      A
 Frequencies --   1542.9811              1572.3981              2998.0070
 Red. masses --      1.0709                 6.1881                 1.0825
 Frc consts  --      1.5022                 9.0144                 5.7323
 IR Inten    --     12.5549                90.6282                13.9866

                     58                     59                     60
                      A                      A                      A
 Frequencies --   3027.4759              3037.7843              3047.0158
 Red. masses --      1.0604                 1.0605                 1.0393
 Frc consts  --      5.7266                 5.7658                 5.6854
 IR Inten    --     32.9838                29.7217                 8.7472

                     61                     62                     63
                      A                      A                      A
 Frequencies --   3048.1394              3052.3956              3056.6225
 Red. masses --      1.0377                 1.0421                 1.0744
 Frc consts  --      5.6805                 5.7207                 5.9142
 IR Inten    --      7.1117                40.4990                31.1326

                     64                     65                     66
                      A                      A                      A
 Frequencies --   3068.6910              3077.9274              3111.2905
 Red. masses --      1.1016                 1.0995                 1.1014
 Frc consts  --      6.1118                 6.1369                 6.2818
 IR Inten    --     34.3543                31.4824                40.7316

                     67                     68                     69
                      A                      A                      A
 Frequencies --   3114.8745              3117.3255              3119.5072
 Red. masses --      1.1020                 1.1026                 1.1017
 Frc consts  --      6.2993                 6.3129                 6.3166
 IR Inten    --     15.3017                26.7889                78.8485

                     70                     71                     72
                      A                      A                      A
 Frequencies --   3129.9587              3147.9721              3164.9278
 Red. masses --      1.1003                 1.1022                 1.0904
 Frc consts  --      6.3512                 6.4352                 6.4354
 IR Inten    --     24.5034                14.9040                45.0147

 - Thermochemistry -
 -------------------
 Temperature   298.150 Kelvin.  Pressure   1.00000 Atm.
 Atom     1 has atomic number  6 and mass  12.00000

 Molecular mass:   136.12520 amu.
 Principal axes and moments of inertia in atomic units:
                           1         2         3
     Eigenvalues --  1136.745021581.427652055.95306
           X            0.99982   0.01827   0.00405
           Y           -0.01815   0.99949  -0.02643
           Z           -0.00453   0.02635   0.99964
 This molecule is an asymmetric top.
 Rotational symmetry number  1.
 Warning -- assumption of classical behavior for rotation
           may cause significant error
 Rotational temperatures (Kelvin)      0.07619     0.05477     0.04213
 Rotational constants (GHZ):           1.58764     1.14121     0.87781
 Zero-point vibrational energy     615349.0 (Joules/Mol)
                                  147.07194 (Kcal/Mol)
 Warning -- explicit consideration of  15 degrees of freedom as
           vibrations may cause significant error
 Vibrational temperatures:     45.74   127.51   166.96   264.70   284.59
          (Kelvin)            316.74   362.81   386.23   401.38   423.26
                              518.58   535.20   606.88   692.05   779.87
                              930.26  1053.90  1081.13  1117.82  1235.83
                             1264.87  1295.16  1328.53  1362.65  1374.94
                             1404.91  1420.34  1472.48  1536.03  1577.50
                             1597.88  1625.41  1699.41  1714.04  1759.23
                             1778.51  1819.00  1870.10  1891.69  1914.57
                             1941.33  1974.86  1991.68  2035.33  2069.77
                             2078.01  2106.94  2169.39  2181.78  2184.73
                             2187.91  2199.99  2203.99  2211.83  2220.01
                             2262.33  4313.46  4355.86  4370.69  4383.98
                             4385.59  4391.72  4397.80  4415.16  4428.45
                             4476.45  4481.61  4485.14  4488.28  4503.31
                             4529.23  4553.63

 Zero-point correction=                           0.234374 (Hartree/Particle)
 Thermal correction to Energy=                    0.245591
 Thermal correction to Enthalpy=                  0.246535
 Thermal correction to Gibbs Free Energy=         0.197639
 Sum of electronic and zero-point Energies=           -390.378589
 Sum of electronic and thermal Energies=              -390.367372
 Sum of electronic and thermal Enthalpies=            -390.366428
 Sum of electronic and thermal Free Energies=         -390.415324

                     E (Thermal)             CV                S
                      KCal/Mol        Cal/Mol-Kelvin    Cal/Mol-Kelvin
 Total                  154.111             42.234            102.911
 Electronic               0.000              0.000              0.000
 Translational            0.889              2.981             40.637
 Rotational               0.889              2.981             29.692
 Vibrational            152.333             36.272             32.581
 Vibration     1          0.594              1.983              5.714
 Vibration     2          0.601              1.957              3.690
 Vibration     3          0.608              1.936              3.165
 Vibration     4          0.631              1.862              2.288
 Vibration     5          0.637              1.843              2.153
 Vibration     6          0.647              1.810              1.958
 Vibration     7          0.664              1.759              1.715
 Vibration     8          0.673              1.731              1.606
 Vibration     9          0.679              1.712              1.540
 Vibration    10          0.689              1.685              1.450
 Vibration    11          0.735              1.554              1.120
 Vibration    12          0.744              1.530              1.072
 Vibration    13          0.784              1.423              0.886
 Vibration    14          0.837              1.292              0.707
 Vibration    15          0.897              1.157              0.561

 Optimization completed.
    -- Stationary point found.
 Normal termination of Gaussian 16 at Tue Dec  8 10:26:50 2020.

 ----------------------------------------------------------------------
 # B3LYP/6-311++G(d,p) empiricaldispersion=gd3bj scf=xqc pop=npa geom=c
 heck
 ----------------------------------------------------------------------

 --------------------------------------
 CID_149315436_JID_170_Energie_neutraal
 --------------------------------------
 Structure from the checkpoint file:  "JID_170.chk"
 Charge =  0 Multiplicity = 1

 SCF Done:  E(RB3LYP) =  -390.720672515     A.U. after   15 cycles
 Normal termination of Gaussian 16 at Tue Dec  8 10:29:15 2020.

 ----------------------------------------------------------------------
 # B3LYP/6-311++G(d,p) empiricaldispersion=gd3bj scf=xqc pop=npa geom=c
 heck
 ----------------------------------------------------------------------

 ------------------------------------
 CID_149315436_JID_170_Energie_kation
 ------------------------------------
 Structure from the checkpoint file:  "JID_170.chk"
 Charge =  1 Multiplicity = 2

 SCF Done:  E(UB3LYP) =  -390.460039842     A.U. after   19 cycles
 Normal termination of Gaussian 16 at Tue Dec  8 10:34:19 2020.
 Gaussian 16:  ES64L-G16RevA.03 25-Dec-2016

 ----------------------------------------------------------------------
 # B3LYP/6-311++G(d,p) empiricaldispersion=gd3bj scf=xqc pop=npa geom=c
 heck
 ----------------------------------------------------------------------

 -----------------------------------
 CID_149315436_JID_170_Energie_anion
 -----------------------------------
 Structure from the checkpoint file:  "JID_170.chk"
 Charge = -1 Multiplicity = 2

                         Standard orientation:
 ---------------------------------------------------------------------
 Center     Atomic      Atomic             Coordinates (Angstroms)
 Number     Number       Type             X           Y           Z
 ---------------------------------------------------------------------
      1          6           0        0.194934    2.551959   -0.421166
      2          6           0        1.318310    1.559134   -0.126491
      3          6           0        0.854025    0.282790    0.599780
      4          6           0        2.071713   -0.724766    0.749847
      5          6           0        1.889570   -1.530000   -0.521255
      6          6           0        0.589166   -1.527068   -0.925447
      7          6           0       -0.113862   -0.641169   -0.144522
      8          6           0       -1.592598   -0.763810    0.106578
      9          6           0       -2.074844   -0.138917    1.420744
     10          6           0       -2.397598   -0.211021   -1.091951
     11          1           0        0.589286    3.469163   -0.872115
     12          1           0       -0.339777    2.834079    0.494049
     13          1           0       -0.534169    2.124742   -1.117095
     14          1           0        1.807727    1.257967   -1.061889
     15          1           0        2.086101    2.045379    0.489262
     16          1           0        0.426662    0.578425    1.566318
     17          1           0        3.052981   -0.233356    0.798933
     18          1           0        1.955728   -1.303410    1.677259
     19          1           0        2.740033   -1.908413   -1.087327
     20          1           0       -1.792629   -1.846895    0.127214
     21          1           0       -1.937077    0.948469    1.419148
     22          1           0       -3.142946   -0.337116    1.561593
     23          1           0       -1.542310   -0.547134    2.286791
     24          1           0       -2.047132   -0.662696   -2.023477
     25          1           0       -3.462300   -0.438532   -0.963970
     26          1           0       -2.293083    0.876540   -1.171403
 ---------------------------------------------------------------------

 SCF Done:  E(UB3LYP) =  -390.747213630     A.U. after   25 cycles

 The electronic state is 2-A.
 Alpha  occ. eigenvalues --  -10.03392 -10.02972 -10.02557 -10.02377 -10.01707
 Alpha  occ. eigenvalues --  -10.01603 -10.00501  -9.97470  -9.96817  -9.92720
 Alpha  occ. eigenvalues --   -0.68585  -0.64531  -0.61963  -0.55076  -0.52763
 Alpha  occ. eigenvalues --   -0.51962  -0.46515  -0.43916  -0.37323  -0.33771
 Alpha  occ. eigenvalues --   -0.32497  -0.30429  -0.29965  -0.28127  -0.27185
 Alpha  occ. eigenvalues --   -0.26810  -0.25630  -0.25153  -0.22764  -0.21733
 Alpha  occ. eigenvalues --   -0.20690  -0.20204  -0.18543  -0.16924  -0.16452
 Alpha  occ. eigenvalues --   -0.15699  -0.08366  -0.00852   0.03713
 Alpha virt. eigenvalues --    0.08701   0.09536   0.10398   0.11012   0.12037
 Alpha virt. eigenvalues --    0.12338   0.12575   0.13470   0.13668   0.14680
 Alpha virt. eigenvalues --    0.15418   0.15591   0.16011   0.16171   0.17168

  Beta  occ. eigenvalues --  -10.03390 -10.02964 -10.02498 -10.02427 -10.01640
  Beta  occ. eigenvalues --  -10.01610 -10.00499  -9.96731  -9.96172  -9.92675
  Beta  occ. eigenvalues --   -0.68024  -0.64391  -0.61651  -0.54972  -0.52402
  Beta  occ. eigenvalues --   -0.51126  -0.46168  -0.43790  -0.36572  -0.33394
  Beta  occ. eigenvalues --   -0.32369  -0.30321  -0.29717  -0.27864  -0.26878
  Beta  occ. eigenvalues --   -0.26613  -0.25475  -0.24989  -0.22529  -0.21531
  Beta  occ. eigenvalues --   -0.20561  -0.19926  -0.18206  -0.16567  -0.16022
  Beta  occ. eigenvalues --   -0.15336  -0.06085   0.00932
  Beta virt. eigenvalues --    0.08611   0.09502   0.10372   0.10988   0.11601
  Beta virt. eigenvalues --    0.12026   0.12549   0.12942   0.13471   0.13661
  Beta virt. eigenvalues --    0.14655   0.15393   0.15547   0.15986   0.16144

 Mulliken charges and spin densities:
               1          2
     1  C   -0.632625  -0.014505
     2  C   -0.467679  -0.016332
     3  C    0.769139  -0.016707
     4  C   -0.572503  -0.044347
     5  C   -0.375361   0.607628
     6  C   -0.057141  -0.084889
     7  C    0.052857   0.608058
     8  C   -0.112421  -0.115549
     9  C   -0.667076   0.000119
    10  C   -0.541167   0.020929
    11  H    0.112678  -0.002424
    12  H    0.095714   0.013603
    13  H    0.132280   0.001259
    14  H    0.153024  -0.004527
    15  H    0.081480   0.013621
    16  H    0.128415   0.016173
    17  H    0.078402  -0.004361
    18  H    0.073110   0.030489
    19  H    0.051817  -0.011907
    20  H    0.099907  -0.014104
    21  H    0.121663   0.001793
    22  H    0.102562  -0.001461
    23  H    0.124372   0.003040
    24  H    0.108464  -0.020259
    25  H    0.054162   0.024443
    26  H    0.085925   0.010215
 Sum of Mulliken charges =  -1.00000   1.00000

 Dipole moment (field-independent basis, Debye):
    X=             -1.8480    Y=              5.2570    Z=              3.3016  Tot=              6.4770
 Quadrupole moment (field-independent basis, Debye-Ang):
   XX=            -83.5939   YY=            -88.5622   ZZ=            -80.5839
   XY=              3.9442   XZ=             -0.0886   YZ=             -7.6973

 Summary of Natural Population Analysis:

                                       Natural Population
                Natural  -----------------------------------------------
    Atom  No    Charge         Core      Valence    Rydberg      Total
 -----------------------------------------------------------------------
      C    1   -0.28411      0.99967     2.28053    0.00391     3.28411
      C    2   -0.17769      0.99962     2.16886    0.00922     3.17769
      C    3   -0.12911      0.99956     2.11546    0.01408     3.12911
      C    4   -0.21105      0.99963     2.19979    0.01163     3.21105
      C    5    0.04429      0.99954     1.94436    0.01181     2.95571
      C    6   -0.17060      0.99928     2.14657    0.02475     3.17060
      C    7    0.17007      0.99945     1.81039    0.02010     2.82993
      C    8   -0.14182      0.99955     2.12996    0.01230     3.14182
      C    9   -0.28066      0.99966     2.27671    0.00429     3.28066
      C   10   -0.26644      0.99965     2.26169    0.00510     3.26644
      H   11    0.08832      0.00000     0.41083    0.00085     0.41168
      H   12    0.08945      0.00000     0.40954    0.00101     0.41055
      H   13    0.10049      0.00000     0.39862    0.00090     0.39951
      H   14    0.09829      0.00000     0.40038    0.00133     0.40171
      H   15    0.08394      0.00000     0.41501    0.00105     0.41606
      H   16    0.08685      0.00000     0.41169    0.00145     0.41315
      H   17    0.08281      0.00000     0.41592    0.00127     0.41719
      H   18    0.09617      0.00000     0.40269    0.00113     0.40383
      H   19    0.07094      0.00000     0.42764    0.00142     0.42906
      H   20    0.09559      0.00000     0.40141    0.00300     0.40441
      H   21    0.09258      0.00000     0.40655    0.00087     0.40742
      H   22    0.08929      0.00000     0.40988    0.00084     0.41071
      H   23    0.09605      0.00000     0.40316    0.00079     0.40395
      H   24    0.10725      0.00000     0.39023    0.00252     0.39275
      H   25    0.08282      0.00000     0.41543    0.00175     0.41718
      H   26    0.08630      0.00000     0.41271    0.00099     0.41370
 =======================================================================
   * Total *    0.00000      9.99560    27.86600    0.13839    38.00000

 Normal termination of Gaussian 16 at Tue Dec  8 10:44:55 2020.
