 Gaussian 16, Revision A.03,

 -----------------------------------------------------------
 # opt freq B3LYP/6-31G(d) empiricaldispersion=gd3bj scf=xqc
 -----------------------------------------------------------

 -------------------------------
 CID_143297358_JID_9561_neutraal
 -------------------------------
 Symbolic Z-matrix:
 Charge =  0 Multiplicity = 1

 SCF Done:  E(RB3LYP) =  -805.333674506     A.U. after   15 cycles
 SCF Done:  E(RB3LYP) =  -805.338115638     A.U. after   14 cycles
 SCF Done:  E(RB3LYP) =  -805.338995997     A.U. after   13 cycles
 SCF Done:  E(RB3LYP) =  -805.336890639     A.U. after   15 cycles
 SCF Done:  E(RB3LYP) =  -805.339394881     A.U. after   13 cycles
 SCF Done:  E(RB3LYP) =  -805.339420853     A.U. after   12 cycles
 SCF Done:  E(RB3LYP) =  -805.339425651     A.U. after   10 cycles
 SCF Done:  E(RB3LYP) =  -805.339426238     A.U. after    8 cycles
 SCF Done:  E(RB3LYP) =  -805.339426410     A.U. after    8 cycles
 SCF Done:  E(RB3LYP) =  -805.339426457     A.U. after    6 cycles
 SCF Done:  E(RB3LYP) =  -805.339426480     A.U. after    6 cycles
 SCF Done:  E(RB3LYP) =  -805.339426493     A.U. after    6 cycles
 SCF Done:  E(RB3LYP) =  -805.339426503     A.U. after    6 cycles
 Optimization completed.
    -- Stationary point found.
 Normal termination of Gaussian 16 at Sun Dec 13 16:12:02 2020.

 --------------------------------------------------------------------
 #N Geom=AllCheck Guess=TCheck SCRF=Check GenChk RB3LYP/6-31G(d) Freq
 --------------------------------------------------------------------

 Structure from the checkpoint file:  "JID_9561.chk"
 -------------------------------
 CID_143297358_JID_9561_neutraal
 -------------------------------
 Charge =  0 Multiplicity = 1

 SCF Done:  E(RB3LYP) =  -805.339426503     A.U. after    1 cycles

  Exact polarizability: 288.681  41.236 145.689 -12.251  29.462 148.887
 Approx polarizability: 401.234  68.943 225.695 -36.783  68.584 261.426

                      1                      2                      3
                      A                      A                      A
 Frequencies --     10.8155                26.3673                36.2921
 Red. masses --      4.3166                 3.5833                 3.4731
 Frc consts  --      0.0003                 0.0015                 0.0027
 IR Inten    --      0.0516                 0.7267                 0.3991

                      4                      5                      6
                      A                      A                      A
 Frequencies --     58.0504                72.4138               100.5269
 Red. masses --      4.4372                 3.5465                 4.8279
 Frc consts  --      0.0088                 0.0110                 0.0287
 IR Inten    --      0.2299                 0.4295                 0.1807

                      7                      8                      9
                      A                      A                      A
 Frequencies --    112.7393               135.4731               169.4104
 Red. masses --      3.4292                 3.0337                 3.1322
 Frc consts  --      0.0257                 0.0328                 0.0530
 IR Inten    --      0.5660                 5.1237                 4.9726

                     10                     11                     12
                      A                      A                      A
 Frequencies --    186.5317               203.9325               225.9607
 Red. masses --      5.3794                 2.9132                 1.6799
 Frc consts  --      0.1103                 0.0714                 0.0505
 IR Inten    --      4.5191                 1.1827                 1.1509

                     13                     14                     15
                      A                      A                      A
 Frequencies --    257.7678               289.5504               300.5170
 Red. masses --      4.1320                 3.2744                 2.1719
 Frc consts  --      0.1618                 0.1617                 0.1156
 IR Inten    --      7.9025                 1.4375                 2.0147

                     16                     17                     18
                      A                      A                      A
 Frequencies --    313.2089               350.0565               367.4894
 Red. masses --      3.5714                 2.3235                 2.8956
 Frc consts  --      0.2064                 0.1677                 0.2304
 IR Inten    --      3.2207                 1.2912                 1.8059

                     19                     20                     21
                      A                      A                      A
 Frequencies --    418.6577               436.1092               462.7364
 Red. masses --      3.0674                 3.1068                 3.3606
 Frc consts  --      0.3168                 0.3481                 0.4240
 IR Inten    --      0.3128                 4.7005                 3.4521

                     22                     23                     24
                      A                      A                      A
 Frequencies --    495.5808               509.7875               528.5365
 Red. masses --      3.5314                 4.1567                 4.2935
 Frc consts  --      0.5110                 0.6365                 0.7067
 IR Inten    --      2.6701                 5.3552                 0.9438

                     25                     26                     27
                      A                      A                      A
 Frequencies --    559.9679               648.9250               673.2801
 Red. masses --      3.3254                 6.9608                 5.2101
 Frc consts  --      0.6144                 1.7270                 1.3915
 IR Inten    --      5.4205                 2.5335                 8.0877

                     28                     29                     30
                      A                      A                      A
 Frequencies --    677.5991               738.4077               742.6152
 Red. masses --      4.6048                 4.0859                 2.0846
 Frc consts  --      1.2457                 1.3126                 0.6773
 IR Inten    --     14.1331                 7.3916                55.4600

                     31                     32                     33
                      A                      A                      A
 Frequencies --    763.4923               771.3674               796.4382
 Red. masses --      2.5268                 2.5009                 1.3256
 Frc consts  --      0.8678                 0.8767                 0.4954
 IR Inten    --     29.1957                 5.0758                83.0650

                     34                     35                     36
                      A                      A                      A
 Frequencies --    838.8490               851.0651               862.4749
 Red. masses --      1.6395                 2.1154                 2.0664
 Frc consts  --      0.6797                 0.9028                 0.9056
 IR Inten    --     46.7313                22.5802                15.2182

                     37                     38                     39
                      A                      A                      A
 Frequencies --    878.3110               882.0272               899.6272
 Red. masses --      1.5193                 1.9014                 2.4687
 Frc consts  --      0.6906                 0.8715                 1.1772
 IR Inten    --     18.3865                 1.2505                 2.0333

                     40                     41                     42
                      A                      A                      A
 Frequencies --    913.1461               924.2332               948.9279
 Red. masses --      1.7252                 1.6346                 1.6648
 Frc consts  --      0.8476                 0.8227                 0.8833
 IR Inten    --      1.5587                 7.0238                15.9923

                     43                     44                     45
                      A                      A                      A
 Frequencies --    961.0725               984.1832              1006.1394
 Red. masses --      1.3267                 1.3771                 1.3790
 Frc consts  --      0.7220                 0.7859                 0.8225
 IR Inten    --      0.1018                 0.1552                 0.8141

                     46                     47                     48
                      A                      A                      A
 Frequencies --   1015.2295              1028.9349              1033.8567
 Red. masses --      6.2795                 1.5392                 1.7605
 Frc consts  --      3.8133                 0.9601                 1.1087
 IR Inten    --      3.2617                 4.8798                 0.1868

                     49                     50                     51
                      A                      A                      A
 Frequencies --   1038.4932              1071.2299              1091.7134
 Red. masses --      2.7231                 2.6833                 2.5658
 Frc consts  --      1.7303                 1.8142                 1.8017
 IR Inten    --      3.7799                 4.0151                 1.0484

                     52                     53                     54
                      A                      A                      A
 Frequencies --   1133.3841              1142.7047              1146.4099
 Red. masses --      1.8407                 1.5704                 1.9872
 Frc consts  --      1.3931                 1.2082                 1.5387
 IR Inten    --      5.0238                 9.2662                18.8431

                     55                     56                     57
                      A                      A                      A
 Frequencies --   1155.9329              1173.6203              1204.7660
 Red. masses --      1.7058                 1.8285                 1.2657
 Frc consts  --      1.3429                 1.4839                 1.0824
 IR Inten    --     18.1157                 6.0095                30.3092

                     58                     59                     60
                      A                      A                      A
 Frequencies --   1214.3226              1246.2550              1250.1520
 Red. masses --      2.1524                 2.1571                 1.4704
 Frc consts  --      1.8700                 1.9739                 1.3540
 IR Inten    --     13.5216                76.9775                29.4000

                     61                     62                     63
                      A                      A                      A
 Frequencies --   1302.3297              1309.8503              1322.8330
 Red. masses --      1.5609                 2.0198                 1.9155
 Frc consts  --      1.5598                 2.0417                 1.9749
 IR Inten    --      2.0860                 0.6038                 5.6964

                     64                     65                     66
                      A                      A                      A
 Frequencies --   1334.7181              1345.8014              1354.5168
 Red. masses --      1.9516                 1.6567                 1.5570
 Frc consts  --      2.0484                 1.7679                 1.6831
 IR Inten    --      0.8050                24.3788                10.4315

                     67                     68                     69
                      A                      A                      A
 Frequencies --   1369.4854              1380.3227              1396.2882
 Red. masses --      3.4060                 1.2912                 1.3773
 Frc consts  --      3.7637                 1.4494                 1.5821
 IR Inten    --     11.3092                20.1054                 2.6995

                     70                     71                     72
                      A                      A                      A
 Frequencies --   1421.4902              1435.0758              1445.1143
 Red. masses --      1.3888                 1.9827                 1.2780
 Frc consts  --      1.6534                 2.4058                 1.5725
 IR Inten    --      1.2310                36.7182                 7.2721

                     73                     74                     75
                      A                      A                      A
 Frequencies --   1447.5083              1473.0234              1501.3792
 Red. masses --      1.7085                 2.5401                 1.1139
 Frc consts  --      2.1091                 3.2473                 1.4794
 IR Inten    --      5.6938                 6.5341                 5.1072

                     76                     77                     78
                      A                      A                      A
 Frequencies --   1510.2561              1517.4359              1521.6082
 Red. masses --      1.0880                 1.1785                 2.2268
 Frc consts  --      1.4622                 1.5988                 3.0376
 IR Inten    --      2.4853                18.8551                25.1781

                     79                     80                     81
                      A                      A                      A
 Frequencies --   1531.0827              1543.4598              1547.0278
 Red. masses --      1.0745                 1.0845                 1.0636
 Frc consts  --      1.4840                 1.5222                 1.4998
 IR Inten    --     17.4001                11.9615                 6.0197

                     82                     83                     84
                      A                      A                      A
 Frequencies --   1557.0348              1616.7989              1627.3383
 Red. masses --      2.6405                 5.8565                 6.7535
 Frc consts  --      3.7717                 9.0199                10.5374
 IR Inten    --     10.6112                39.2623                 1.3403

                     85                     86                     87
                      A                      A                      A
 Frequencies --   1652.7010              1668.1016              1798.4499
 Red. masses --      5.5298                 5.6961                 9.7310
 Frc consts  --      8.8991                 9.3384                18.5441
 IR Inten    --     74.9272               126.7150               319.6272

                     88                     89                     90
                      A                      A                      A
 Frequencies --   2904.6148              2956.2466              3042.5994
 Red. masses --      1.0836                 1.0716                 1.0525
 Frc consts  --      5.3864                 5.5178                 5.7405
 IR Inten    --    170.1766                48.8874                14.9933

                     91                     92                     93
                      A                      A                      A
 Frequencies --   3044.2864              3051.5212              3057.5471
 Red. masses --      1.0531                 1.0599                 1.0800
 Frc consts  --      5.7501                 5.8151                 5.9484
 IR Inten    --     15.5749                35.4462                70.5181

                     94                     95                     96
                      A                      A                      A
 Frequencies --   3083.3320              3096.3993              3110.2912
 Red. masses --      1.1019                 1.1065                 1.1034
 Frc consts  --      6.1718                 6.2505                 6.2889
 IR Inten    --      6.0824                20.3814                57.3196

                     97                     98                     99
                      A                      A                      A
 Frequencies --   3116.8149              3170.1725              3180.5934
 Red. masses --      1.1006                 1.0889                 1.0883
 Frc consts  --      6.2997                 6.4476                 6.4864
 IR Inten    --     45.8646                29.3696                14.3171

                    100                    101                    102
                      A                      A                      A
 Frequencies --   3192.7462              3201.5564              3213.4026
 Red. masses --      1.0904                 1.0938                 1.0911
 Frc consts  --      6.5491                 6.6057                 6.6380
 IR Inten    --      3.0796                20.1238                15.2425

                    103                    104                    105
                      A                      A                      A
 Frequencies --   3216.8747              3238.4361              3494.1168
 Red. masses --      1.0891                 1.0928                 1.0732
 Frc consts  --      6.6403                 6.7527                 7.7197
 IR Inten    --      0.3652                 0.9950                 1.5434

 - Thermochemistry -
 -------------------
 Temperature   298.150 Kelvin.  Pressure   1.00000 Atm.
 Atom     1 has atomic number  6 and mass  12.00000

 Molecular mass:   254.14191 amu.
 Principal axes and moments of inertia in atomic units:
                           1         2         3
     Eigenvalues --  2532.67150********************
           X            0.99991  -0.01152   0.00660
           Y            0.01153   0.99993  -0.00141
           Z           -0.00658   0.00148   0.99998
 This molecule is an asymmetric top.
 Rotational symmetry number  1.
 Warning -- assumption of classical behavior for rotation
           may cause significant error
 Rotational temperatures (Kelvin)      0.03420     0.00713     0.00658
 Rotational constants (GHZ):           0.71258     0.14858     0.13707
 Zero-point vibrational energy     817290.2 (Joules/Mol)
                                  195.33704 (Kcal/Mol)
 Warning -- explicit consideration of  25 degrees of freedom as
           vibrations may cause significant error
 Vibrational temperatures:     15.56    37.94    52.22    83.52   104.19
          (Kelvin)            144.64   162.21   194.92   243.74   268.38
                              293.41   325.11   370.87   416.60   432.38
                              450.64   503.65   528.74   602.36   627.46
                              665.77   713.03   733.47   760.45   805.67
                              933.66   968.70   974.91  1062.40  1068.46
                             1098.50  1109.83  1145.90  1206.92  1224.49
                             1240.91  1263.69  1269.04  1294.36  1313.81
                             1329.77  1365.30  1382.77  1416.02  1447.61
                             1460.69  1480.41  1487.49  1494.16  1541.26
                             1570.73  1630.69  1644.10  1649.43  1663.13
                             1688.58  1733.39  1747.14  1793.08  1798.69
                             1873.76  1884.58  1903.26  1920.36  1936.31
                             1948.85  1970.38  1985.98  2008.95  2045.21
                             2064.75  2079.20  2082.64  2119.35  2160.15
                             2172.92  2183.25  2189.25  2202.89  2220.69
                             2225.83  2240.23  2326.21  2341.38  2377.87
                             2400.03  2587.57  4179.09  4253.38  4377.62
                             4380.05  4390.46  4399.13  4436.23  4455.03
                             4475.02  4484.40  4561.17  4576.16  4593.65
                             4606.33  4623.37  4628.37  4659.39  5027.25

 Zero-point correction=                           0.311289 (Hartree/Particle)
 Thermal correction to Energy=                    0.328838
 Thermal correction to Enthalpy=                  0.329782
 Thermal correction to Gibbs Free Energy=         0.262636
 Sum of electronic and zero-point Energies=           -805.028137
 Sum of electronic and thermal Energies=              -805.010589
 Sum of electronic and thermal Enthalpies=            -805.009644
 Sum of electronic and thermal Free Energies=         -805.076790

                     E (Thermal)             CV                S
                      KCal/Mol        Cal/Mol-Kelvin    Cal/Mol-Kelvin
 Total                  206.349             66.244            141.320
 Electronic               0.000              0.000              0.000
 Translational            0.889              2.981             42.498
 Rotational               0.889              2.981             34.359
 Vibrational            204.571             60.283             64.463
 Vibration     1          0.593              1.987              7.855
 Vibration     2          0.593              1.985              6.086
 Vibration     3          0.594              1.982              5.452
 Vibration     4          0.596              1.974              4.522
 Vibration     5          0.599              1.967              4.087
 Vibration     6          0.604              1.949              3.444
 Vibration     7          0.607              1.939              3.221
 Vibration     8          0.613              1.918              2.867
 Vibration     9          0.625              1.880              2.442
 Vibration    10          0.632              1.858              2.262
 Vibration    11          0.640              1.834              2.097
 Vibration    12          0.650              1.801              1.911
 Vibration    13          0.667              1.750              1.677
 Vibration    14          0.686              1.693              1.477
 Vibration    15          0.693              1.673              1.414
 Vibration    16          0.701              1.648              1.345
 Vibration    17          0.727              1.575              1.166
 Vibration    18          0.740              1.539              1.090
 Vibration    19          0.782              1.430              0.897
 Vibration    20          0.797              1.391              0.839
 Vibration    21          0.820              1.333              0.758
 Vibration    22          0.851              1.260              0.669
 Vibration    23          0.865              1.228              0.634
 Vibration    24          0.883              1.187              0.590
 Vibration    25          0.916              1.118              0.524

                           ! Non-Optimized Parameters !
 Normal termination of Gaussian 16 at Sun Dec 13 16:29:12 2020.

 ----------------------------------------------------------------------
 # B3LYP/6-311++G(d,p) empiricaldispersion=gd3bj scf=xqc pop=npa geom=c
 heck
 ----------------------------------------------------------------------

 ---------------------------------------
 CID_143297358_JID_9561_Energie_neutraal
 ---------------------------------------
 Structure from the checkpoint file:  "JID_9561.chk"
 Charge =  0 Multiplicity = 1

 SCF Done:  E(RB3LYP) =  -805.554325043     A.U. after   15 cycles
 Normal termination of Gaussian 16 at Sun Dec 13 16:37:17 2020.

 ----------------------------------------------------------------------
 # B3LYP/6-311++G(d,p) empiricaldispersion=gd3bj scf=xqc pop=npa geom=c
 heck
 ----------------------------------------------------------------------

 -------------------------------------
 CID_143297358_JID_9561_Energie_kation
 -------------------------------------
 Structure from the checkpoint file:  "JID_9561.chk"
 Charge =  1 Multiplicity = 2

 SCF Done:  E(UB3LYP) =  -805.254653925     A.U. after   33 cycles
 SCF Done:  E(UB3LYP) =  -805.254653926     a.u. after    2 cycles
 Normal termination of Gaussian 16 at Sun Dec 13 17:26:26 2020.
 Gaussian 16:  ES64L-G16RevA.03 25-Dec-2016

 ----------------------------------------------------------------------
 # B3LYP/6-311++G(d,p) empiricaldispersion=gd3bj scf=xqc pop=npa geom=c
 heck
 ----------------------------------------------------------------------

 ------------------------------------
 CID_143297358_JID_9561_Energie_anion
 ------------------------------------
 Structure from the checkpoint file:  "JID_9561.chk"
 Charge = -1 Multiplicity = 2

                         Standard orientation:
 ---------------------------------------------------------------------
 Center     Atomic      Atomic             Coordinates (Angstroms)
 Number     Number       Type             X           Y           Z
 ---------------------------------------------------------------------
      1          6           0       -4.084543    2.894915   -1.073390
      2          6           0       -5.068069    1.745509   -0.829233
      3          6           0       -4.398973    0.460655   -0.337136
      4          7           0       -3.798913    0.645808    0.984419
      5          6           0       -3.198681   -0.564434    1.551751
      6          6           0       -2.043274   -1.130520    0.746005
      7          6           0       -0.771957   -0.559428    0.835110
      8          6           0        0.272617   -1.034113    0.030724
      9          7           0        0.083196   -2.025880   -0.862490
     10          6           0       -1.130659   -2.569538   -0.948200
     11          6           0       -2.217527   -2.170727   -0.169194
     12          6           0        1.641472   -0.463769    0.099517
     13          6           0        2.525110   -0.656327   -0.979431
     14          6           0        3.803678   -0.122554   -0.950527
     15          6           0        4.236881    0.612113    0.163782
     16          6           0        3.369215    0.795387    1.246378
     17          6           0        2.085308    0.262707    1.216095
     18          6           0        5.597370    1.184568    0.203529
     19          8           0        6.419737    1.081467   -0.687112
     20          1           0       -3.612571    3.231235   -0.142620
     21          1           0       -4.593252    3.763067   -1.505747
     22          1           0       -3.288843    2.594194   -1.766440
     23          1           0       -5.824903    2.051940   -0.097172
     24          1           0       -5.596665    1.517579   -1.763715
     25          1           0       -5.154419   -0.330578   -0.241283
     26          1           0       -3.675422    0.113449   -1.097561
     27          1           0       -3.084038    1.369323    0.929418
     28          1           0       -2.856752   -0.322920    2.564937
     29          1           0       -3.988837   -1.318722    1.645590
     30          1           0       -0.605716    0.267130    1.519649
     31          1           0       -1.243180   -3.369478   -1.678146
     32          1           0       -3.182304   -2.657414   -0.280229
     33          1           0        2.178434   -1.232504   -1.829158
     34          1           0        4.490292   -0.258559   -1.780043
     35          1           0        3.708002    1.351515    2.117598
     36          1           0        1.437040    0.391515    2.076520
     37          1           0        5.837462    1.741317    1.137115
 ---------------------------------------------------------------------

 SCF Done:  E(UB3LYP) =  -805.588769359     A.U. after   25 cycles

 The electronic state is 2-A.
 Alpha  occ. eigenvalues --  -18.95167 -14.21612 -14.17772 -10.11020 -10.10969
 Alpha  occ. eigenvalues --  -10.09513 -10.09111 -10.09009 -10.08995 -10.08137
 Alpha  occ. eigenvalues --  -10.07723 -10.05864 -10.05576 -10.04213 -10.03950
 Alpha  occ. eigenvalues --  -10.03801 -10.03274 -10.03160 -10.02849  -0.88675
 Alpha  occ. eigenvalues --   -0.82847  -0.81945  -0.72361  -0.71192  -0.68763
 Alpha  occ. eigenvalues --   -0.65985  -0.61553  -0.61369  -0.60806  -0.57146
 Alpha  occ. eigenvalues --   -0.53027  -0.51220  -0.49933  -0.47918  -0.46279
 Alpha  occ. eigenvalues --   -0.42871  -0.41621  -0.40060  -0.38862  -0.37818
 Alpha  occ. eigenvalues --   -0.36802  -0.35262  -0.35018  -0.33727  -0.32794
 Alpha  occ. eigenvalues --   -0.32637  -0.31326  -0.30313  -0.29801  -0.29253
 Alpha  occ. eigenvalues --   -0.28904  -0.28437  -0.27283  -0.26650  -0.26578
 Alpha  occ. eigenvalues --   -0.26300  -0.26109  -0.25209  -0.22476  -0.22194
 Alpha  occ. eigenvalues --   -0.20832  -0.17458  -0.16389  -0.14817  -0.13494
 Alpha  occ. eigenvalues --   -0.12657  -0.10863  -0.10768   0.01967
 Alpha virt. eigenvalues --    0.05668   0.07010   0.07302   0.08030   0.08442
 Alpha virt. eigenvalues --    0.09107   0.09615   0.09660   0.09997   0.10293
 Alpha virt. eigenvalues --    0.10915   0.11683   0.11855   0.12294   0.12524

  Beta  occ. eigenvalues --  -18.94746 -14.21601 -14.17587 -10.11020 -10.10970
  Beta  occ. eigenvalues --  -10.09511 -10.09110 -10.09053 -10.08833 -10.08006
  Beta  occ. eigenvalues --  -10.07714 -10.05814 -10.05380 -10.04168 -10.03905
  Beta  occ. eigenvalues --  -10.03573 -10.03273 -10.03074 -10.02700  -0.87920
  Beta  occ. eigenvalues --   -0.82769  -0.81684  -0.72061  -0.71113  -0.68609
  Beta  occ. eigenvalues --   -0.65604  -0.61435  -0.61100  -0.60506  -0.57093
  Beta  occ. eigenvalues --   -0.52543  -0.51074  -0.49840  -0.47650  -0.46097
  Beta  occ. eigenvalues --   -0.42542  -0.41567  -0.40007  -0.38822  -0.37724
  Beta  occ. eigenvalues --   -0.36605  -0.35195  -0.34872  -0.33671  -0.32768
  Beta  occ. eigenvalues --   -0.32482  -0.31139  -0.30186  -0.29684  -0.29124
  Beta  occ. eigenvalues --   -0.28772  -0.27898  -0.26959  -0.26607  -0.26547
  Beta  occ. eigenvalues --   -0.26209  -0.25110  -0.24655  -0.21968  -0.21141
  Beta  occ. eigenvalues --   -0.20736  -0.16728  -0.15382  -0.14597  -0.13276
  Beta  occ. eigenvalues --   -0.11922  -0.10377  -0.09532
  Beta virt. eigenvalues --    0.05631   0.06879   0.06997   0.07486   0.08071
  Beta virt. eigenvalues --    0.08529   0.09107   0.09623   0.09933   0.10209
  Beta virt. eigenvalues --    0.10840   0.11500   0.11704   0.11942   0.12373

 Mulliken charges and spin densities:
               1          2
     1  C   -0.494085  -0.010612
     2  C   -0.384488   0.005392
     3  C   -0.304839  -0.005082
     4  N    0.039200   0.003186
     5  C   -0.596434  -0.028945
     6  C    0.801532   0.007105
     7  C   -0.419740   0.028566
     8  C   -0.766364   0.067988
     9  N    0.069720   0.090694
    10  C    0.028707  -0.024570
    11  C   -0.571042   0.151588
    12  C    1.332325   0.109930
    13  C   -0.273898   0.023246
    14  C   -0.349945   0.105577
    15  C    0.936070   0.084378
    16  C   -0.827460   0.046861
    17  C   -0.972279   0.076407
    18  C   -0.254915   0.131322
    19  O   -0.359252   0.144512
    20  H    0.131507   0.002984
    21  H    0.131908   0.003113
    22  H    0.146311   0.001375
    23  H    0.144486   0.003088
    24  H    0.121570  -0.000064
    25  H    0.137684  -0.000392
    26  H    0.166987  -0.001327
    27  H    0.155925   0.008454
    28  H    0.173098  -0.003279
    29  H    0.136962   0.006949
    30  H    0.110262   0.004226
    31  H    0.151947   0.002909
    32  H    0.125700  -0.013414
    33  H    0.149794   0.000636
    34  H    0.158643  -0.006471
    35  H    0.113814  -0.001406
    36  H    0.062293  -0.002689
    37  H    0.048295  -0.012236
 Sum of Mulliken charges =  -1.00000   1.00000

 Dipole moment (field-independent basis, Debye):
    X=            -13.5502    Y=              0.6329    Z=              1.5609  Tot=             13.6545
 Quadrupole moment (field-independent basis, Debye-Ang):
   XX=           -223.0363   YY=           -130.6573   ZZ=           -123.0130
   XY=             -9.1191   XZ=             14.9054   YZ=              1.5877

 Summary of Natural Population Analysis:

                                       Natural Population
                Natural  -----------------------------------------------
    Atom  No    Charge         Core      Valence    Rydberg      Total
 -----------------------------------------------------------------------
      C    1   -0.28991      0.99967     2.28568    0.00456     3.28991
      C    2   -0.19174      0.99964     2.18538    0.00672     3.19174
      C    3   -0.08910      0.99963     2.07977    0.00969     3.08910
      N    4   -0.33988      0.99975     2.82614    0.01400     3.83988
      C    5   -0.09228      0.99959     2.08162    0.01107     3.09228
      C    6   -0.01606      0.99950     2.00839    0.00817     3.01606
      C    7   -0.10921      0.99949     2.10126    0.00847     3.10921
      C    8    0.13183      0.99941     1.85559    0.01316     2.86817
      N    9   -0.21076      0.99969     2.70057    0.01049     3.71076
      C   10    0.01534      0.99960     1.97031    0.01475     2.98466
      C   11   -0.10218      0.99951     2.09390    0.00877     3.10218
      C   12    0.00551      0.99950     1.98548    0.00951     2.99449
      C   13   -0.09182      0.99954     2.08372    0.00856     3.09182
      C   14   -0.06588      0.99953     2.05726    0.00908     3.06588
      C   15   -0.05376      0.99948     2.04542    0.00886     3.05376
      C   16   -0.08143      0.99954     2.07307    0.00881     3.08143
      C   17   -0.09594      0.99954     2.08864    0.00776     3.09594
      C   18    0.22732      0.99968     1.75227    0.02072     2.77268
      O   19   -0.25306      0.99988     3.24532    0.00786     4.25306
      H   20    0.09589      0.00000     0.40323    0.00088     0.40411
      H   21    0.09632      0.00000     0.40283    0.00085     0.40368
      H   22    0.09946      0.00000     0.39961    0.00093     0.40054
      H   23    0.09463      0.00000     0.40402    0.00135     0.40537
      H   24    0.09246      0.00000     0.40645    0.00109     0.40754
      H   25    0.08873      0.00000     0.41009    0.00118     0.41127
      H   26    0.08641      0.00000     0.41181    0.00178     0.41359
      H   27    0.17209      0.00000     0.32563    0.00229     0.32791
      H   28    0.09615      0.00000     0.40278    0.00107     0.40385
      H   29    0.09038      0.00000     0.40839    0.00124     0.40962
      H   30    0.09620      0.00000     0.40223    0.00158     0.40380
      H   31    0.08181      0.00000     0.41690    0.00130     0.41819
      H   32    0.09247      0.00000     0.40635    0.00118     0.40753
      H   33    0.10573      0.00000     0.39305    0.00122     0.39427
      H   34    0.10235      0.00000     0.39632    0.00133     0.39765
      H   35    0.09045      0.00000     0.40771    0.00184     0.40955
      H   36    0.09051      0.00000     0.40797    0.00152     0.40949
      H   37    0.03100      0.00000     0.46618    0.00282     0.46900
 =======================================================================
   * Total *    0.00000     18.99220    48.79135    0.21645    68.00000

 Normal termination of Gaussian 16 at Sun Dec 13 17:45:05 2020.
