 Gaussian 16, Revision A.03,

 -----------------------------------------------------------
 # opt freq B3LYP/6-31G(d) empiricaldispersion=gd3bj scf=xqc
 -----------------------------------------------------------

 ------------------------------
 CID_144423398_JID_734_neutraal
 ------------------------------
 Symbolic Z-matrix:
 Charge =  0 Multiplicity = 1

 SCF Done:  E(RB3LYP) =  -513.058078896     A.U. after   15 cycles
 SCF Done:  E(RB3LYP) =  -513.064406168     A.U. after   15 cycles
 SCF Done:  E(RB3LYP) =  -512.978483681     A.U. after   15 cycles
 SCF Done:  E(RB3LYP) =  -513.061153945     A.U. after   13 cycles
 SCF Done:  E(RB3LYP) =  -513.065497731     A.U. after   11 cycles
 SCF Done:  E(RB3LYP) =  -513.066336222     A.U. after   13 cycles
 SCF Done:  E(RB3LYP) =  -513.066867503     A.U. after   12 cycles
 SCF Done:  E(RB3LYP) =  -513.067026836     A.U. after   13 cycles
 SCF Done:  E(RB3LYP) =  -513.066422864     A.U. after   13 cycles
 SCF Done:  E(RB3LYP) =  -513.065406070     A.U. after   13 cycles
 SCF Done:  E(RB3LYP) =  -513.070135408     A.U. after   10 cycles
 SCF Done:  E(RB3LYP) =  -513.070136920     A.U. after   10 cycles
 SCF Done:  E(RB3LYP) =  -513.070137187     A.U. after   10 cycles
 SCF Done:  E(RB3LYP) =  -513.070137272     A.U. after    7 cycles
 SCF Done:  E(RB3LYP) =  -513.070137236     A.U. after    8 cycles
 SCF Done:  E(RB3LYP) =  -513.070137255     A.U. after    6 cycles
 Optimization completed.
    -- Stationary point found.
 Normal termination of Gaussian 16 at Tue Dec  8 14:40:29 2020.

 --------------------------------------------------------------------
 #N Geom=AllCheck Guess=TCheck SCRF=Check GenChk RB3LYP/6-31G(d) Freq
 --------------------------------------------------------------------

 Structure from the checkpoint file:  "JID_734.chk"
 ------------------------------
 CID_144423398_JID_734_neutraal
 ------------------------------
 Charge =  0 Multiplicity = 1

 SCF Done:  E(RB3LYP) =  -513.070137255     A.U. after    2 cycles

  Exact polarizability:  97.803  10.909  74.952   1.654   1.366  69.295
 Approx polarizability: 124.005  25.974 116.762   5.483   5.651  98.885

                      1                      2                      3
                      A                      A                      A
 Frequencies --     16.5002                32.3337                33.6517
 Red. masses --      4.3748                 4.3724                 7.7869
 Frc consts  --      0.0007                 0.0027                 0.0052
 IR Inten    --      1.0345                 0.2766                 2.9679

                      4                      5                      6
                      A                      A                      A
 Frequencies --     50.2871                60.1135               109.0097
 Red. masses --      2.5074                 4.6607                 2.9090
 Frc consts  --      0.0037                 0.0099                 0.0204
 IR Inten    --      5.2461                 1.7139                 2.2717

                      7                      8                      9
                      A                      A                      A
 Frequencies --    121.9929               153.1136               166.5072
 Red. masses --      2.6343                 2.6361                 1.2106
 Frc consts  --      0.0231                 0.0364                 0.0198
 IR Inten    --      0.3394                 0.6391                 1.6561

                     10                     11                     12
                      A                      A                      A
 Frequencies --    175.6986               248.2844               315.0207
 Red. masses --      1.2763                 2.2219                 3.5420
 Frc consts  --      0.0232                 0.0807                 0.2071
 IR Inten    --      4.9278                 1.2755                 3.7266

                     13                     14                     15
                      A                      A                      A
 Frequencies --    328.1765               410.1274               424.7068
 Red. masses --      2.7422                 1.4155                 1.3302
 Frc consts  --      0.1740                 0.1403                 0.1414
 IR Inten    --      3.1566                28.1680                44.2986

                     16                     17                     18
                      A                      A                      A
 Frequencies --    442.0431               513.1946               598.8292
 Red. masses --      6.5068                 1.9633                 3.5115
 Frc consts  --      0.7491                 0.3047                 0.7419
 IR Inten    --      4.7382                22.2017                62.5826

                     19                     20                     21
                      A                      A                      A
 Frequencies --    683.2376               705.3110               823.9068
 Red. masses --      2.0823                 1.8903                 1.9823
 Frc consts  --      0.5727                 0.5540                 0.7928
 IR Inten    --     32.4906                73.8394                69.5071

                     22                     23                     24
                      A                      A                      A
 Frequencies --    846.9099               870.9959               925.3245
 Red. masses --      4.7133                 3.3369                 1.2743
 Frc consts  --      1.9918                 1.4915                 0.6429
 IR Inten    --     12.3622                 3.1329               143.3761

                     25                     26                     27
                      A                      A                      A
 Frequencies --    993.3199              1011.0190              1063.8477
 Red. masses --      2.3617                 1.0874                 1.1725
 Frc consts  --      1.3730                 0.6549                 0.7818
 IR Inten    --     21.4158                13.4473                35.1750

                     28                     29                     30
                      A                      A                      A
 Frequencies --   1078.4565              1103.7518              1156.6242
 Red. masses --      2.6402                 1.6422                 1.3343
 Frc consts  --      1.8092                 1.1787                 1.0517
 IR Inten    --      1.0471                39.8955                11.7399

                     31                     32                     33
                      A                      A                      A
 Frequencies --   1188.9828              1202.7707              1207.9367
 Red. masses --      2.0607                 1.5868                 1.5488
 Frc consts  --      1.7164                 1.3525                 1.3314
 IR Inten    --    107.8261                69.2272                95.9849

                     34                     35                     36
                      A                      A                      A
 Frequencies --   1256.5741              1326.8814              1376.7509
 Red. masses --      1.2437                 2.4046                 1.7719
 Frc consts  --      1.1570                 2.4944                 1.9788
 IR Inten    --     98.7360                 8.2584                46.6062

                     37                     38                     39
                      A                      A                      A
 Frequencies --   1386.6278              1391.7839              1425.9726
 Red. masses --      1.8852                 1.3180                 2.2981
 Frc consts  --      2.1356                 1.5042                 2.7532
 IR Inten    --     18.0811                 1.3058               104.2991

                     40                     41                     42
                      A                      A                      A
 Frequencies --   1454.4653              1477.2716              1483.3422
 Red. masses --      1.2454                 1.1409                 1.1680
 Frc consts  --      1.5522                 1.4669                 1.5141
 IR Inten    --      3.5757                10.8741                 2.9820

                     43                     44                     45
                      A                      A                      A
 Frequencies --   1490.7847              1521.5990              1527.6149
 Red. masses --      1.1541                 1.0471                 1.0560
 Frc consts  --      1.5112                 1.4284                 1.4519
 IR Inten    --      8.1490                 5.9724                 8.9754

                     46                     47                     48
                      A                      A                      A
 Frequencies --   1542.3722              1551.1251              1705.7305
 Red. masses --      1.0639                 1.0399                 2.1365
 Frc consts  --      1.4912                 1.4741                 3.6625
 IR Inten    --      5.0306                 6.9370               303.3459

                     49                     50                     51
                      A                      A                      A
 Frequencies --   1724.0574              1855.3638              2932.4417
 Red. masses --      1.6401                10.2148                 1.0644
 Frc consts  --      2.8723                20.7175                 5.3926
 IR Inten    --     47.9599               297.4909               117.3667

                     52                     53                     54
                      A                      A                      A
 Frequencies --   3038.0125              3066.5837              3071.5343
 Red. masses --      1.0403                 1.0678                 1.0607
 Frc consts  --      5.6568                 5.9162                 5.8958
 IR Inten    --     34.4920                38.8966                16.7007

                     55                     56                     57
                      A                      A                      A
 Frequencies --   3105.9564              3108.4563              3115.5539
 Red. masses --      1.0984                 1.1025                 1.1035
 Frc consts  --      6.2429                 6.2765                 6.3110
 IR Inten    --     42.1892                33.8447                 4.5872

                     58                     59                     60
                      A                      A                      A
 Frequencies --   3138.8140              3144.6576              3446.1722
 Red. masses --      1.0892                 1.1020                 1.0520
 Frc consts  --      6.3227                 6.4206                 7.3609
 IR Inten    --     23.0376                13.5850                61.1586

                     61                     62                     63
                      A                      A                      A
 Frequencies --   3456.4293              3536.5202              3685.0574
 Red. masses --      1.0725                 1.0915                 1.0641
 Frc consts  --      7.5493                 8.0433                 8.5141
 IR Inten    --      4.4298                14.4283                59.9768

 - Thermochemistry -
 -------------------
 Temperature   298.150 Kelvin.  Pressure   1.00000 Atm.
 Atom     1 has atomic number  6 and mass  12.00000

 Molecular mass:   147.10078 amu.
 Principal axes and moments of inertia in atomic units:
                           1         2         3
     Eigenvalues --   662.376273543.113653671.22772
           X            0.99995  -0.00973   0.00178
           Y            0.00979   0.99909  -0.04149
           Z           -0.00138   0.04151   0.99914
 This molecule is an asymmetric top.
 Rotational symmetry number  1.
 Warning -- assumption of classical behavior for rotation
           may cause significant error
 Rotational temperatures (Kelvin)      0.13076     0.02445     0.02359
 Rotational constants (GHZ):           2.72465     0.50937     0.49159
 Zero-point vibrational energy     516825.6 (Joules/Mol)
                                  123.52428 (Kcal/Mol)
 Warning -- explicit consideration of  18 degrees of freedom as
           vibrations may cause significant error
 Vibrational temperatures:     23.74    46.52    48.42    72.35    86.49
          (Kelvin)            156.84   175.52   220.30   239.57   252.79
                              357.23   453.24   472.17   590.08   611.06
                              636.00   738.37   861.58   983.03  1014.79
                             1185.42  1218.51  1253.17  1331.34  1429.17
                             1454.63  1530.64  1551.66  1588.05  1664.12
                             1710.68  1730.52  1737.95  1807.93  1909.09
                             1980.84  1995.05  2002.47  2051.66  2092.65
                             2125.46  2134.20  2144.91  2189.24  2197.90
                             2219.13  2231.72  2454.17  2480.53  2669.45
                             4219.13  4371.02  4412.13  4419.25  4468.78
                             4472.38  4482.59  4516.05  4524.46  4958.27
                             4973.03  5088.26  5301.98

 Zero-point correction=                           0.196848 (Hartree/Particle)
 Thermal correction to Energy=                    0.210549
 Thermal correction to Enthalpy=                  0.211493
 Thermal correction to Gibbs Free Energy=         0.153094
 Sum of electronic and zero-point Energies=           -512.873289
 Sum of electronic and thermal Energies=              -512.859589
 Sum of electronic and thermal Enthalpies=            -512.858644
 Sum of electronic and thermal Free Energies=         -512.917043

                     E (Thermal)             CV                S
                      KCal/Mol        Cal/Mol-Kelvin    Cal/Mol-Kelvin
 Total                  132.121             44.704            122.911
 Electronic               0.000              0.000              0.000
 Translational            0.889              2.981             40.868
 Rotational               0.889              2.981             30.533
 Vibrational            130.344             38.742             51.509
 Vibration     1          0.593              1.986              7.016
 Vibration     2          0.594              1.983              5.681
 Vibration     3          0.594              1.983              5.602
 Vibration     4          0.595              1.977              4.806
 Vibration     5          0.597              1.973              4.453
 Vibration     6          0.606              1.942              3.286
 Vibration     7          0.609              1.931              3.069
 Vibration     8          0.619              1.899              2.633
 Vibration     9          0.624              1.884              2.475
 Vibration    10          0.628              1.872              2.374
 Vibration    11          0.662              1.766              1.743
 Vibration    12          0.702              1.645              1.336
 Vibration    13          0.711              1.619              1.269
 Vibration    14          0.774              1.448              0.926
 Vibration    15          0.787              1.416              0.876
 Vibration    16          0.802              1.378              0.820
 Vibration    17          0.868              1.221              0.626
 Vibration    18          0.957              1.034              0.452

 Optimization completed.
    -- Stationary point found.
 Normal termination of Gaussian 16 at Tue Dec  8 14:44:07 2020.

 ----------------------------------------------------------------------
 # B3LYP/6-311++G(d,p) empiricaldispersion=gd3bj scf=xqc pop=npa geom=c
 heck
 ----------------------------------------------------------------------

 --------------------------------------
 CID_144423398_JID_734_Energie_neutraal
 --------------------------------------
 Structure from the checkpoint file:  "JID_734.chk"
 Charge =  0 Multiplicity = 1

 SCF Done:  E(RB3LYP) =  -513.246744916     A.U. after   13 cycles
 Normal termination of Gaussian 16 at Tue Dec  8 14:45:56 2020.

 ----------------------------------------------------------------------
 # B3LYP/6-311++G(d,p) empiricaldispersion=gd3bj scf=xqc pop=npa geom=c
 heck
 ----------------------------------------------------------------------

 ------------------------------------
 CID_144423398_JID_734_Energie_kation
 ------------------------------------
 Structure from the checkpoint file:  "JID_734.chk"
 Charge =  1 Multiplicity = 2

 SCF Done:  E(UB3LYP) =  -512.940683080     A.U. after   21 cycles
 Normal termination of Gaussian 16 at Tue Dec  8 14:49:54 2020.
 Gaussian 16:  ES64L-G16RevA.03 25-Dec-2016

 ----------------------------------------------------------------------
 # B3LYP/6-311++G(d,p) empiricaldispersion=gd3bj scf=xqc pop=npa geom=c
 heck
 ----------------------------------------------------------------------

 -----------------------------------
 CID_144423398_JID_734_Energie_anion
 -----------------------------------
 Structure from the checkpoint file:  "JID_734.chk"
 Charge = -1 Multiplicity = 2

                         Standard orientation:
 ---------------------------------------------------------------------
 Center     Atomic      Atomic             Coordinates (Angstroms)
 Number     Number       Type             X           Y           Z
 ---------------------------------------------------------------------
      1          6           0        3.569899   -0.974315    0.200352
      2          7           0        3.921454   -0.000459   -0.830525
      3          6           0       -0.101701   -0.336756    1.610876
      4          7           0       -0.171383   -0.225067    0.163466
      5          6           0       -1.287625   -0.843193   -0.510912
      6          6           0       -2.656449   -0.201193   -0.285015
      7          8           0       -3.703578   -0.741259   -0.554937
      8          8           0       -2.566304    1.045942    0.228029
      9          6           0        0.530606    0.776733   -0.472553
     10          7           0        1.352969    1.627766    0.015200
     11          1           0        2.567323   -1.366490   -0.005052
     12          1           0        3.569789   -0.596410    1.241357
     13          1           0        4.264361   -1.821715    0.160942
     14          1           0        3.274949    0.787549   -0.770456
     15          1           0        4.850477    0.372326   -0.642254
     16          1           0       -0.579924   -1.269935    1.918312
     17          1           0       -0.603904    0.499546    2.115446
     18          1           0        0.945034   -0.372854    1.929296
     19          1           0       -1.106823   -0.830257   -1.592015
     20          1           0       -1.379955   -1.895553   -0.223305
     21          1           0       -3.481700    1.374783    0.308867
     22          1           0        0.366567    0.785838   -1.552586
     23          1           0        1.423200    1.552367    1.033239
 ---------------------------------------------------------------------

 SCF Done:  E(UB3LYP) =  -513.238839114     A.U. after   30 cycles

 The electronic state is 2-A.
 Alpha  occ. eigenvalues --  -19.07183 -19.02034 -14.24930 -14.18531 -14.18081
 Alpha  occ. eigenvalues --  -10.21149 -10.14086 -10.12920 -10.09951 -10.08235
 Alpha  occ. eigenvalues --   -1.01410  -0.92681  -0.87532  -0.77805  -0.76987
 Alpha  occ. eigenvalues --   -0.65757  -0.60948  -0.55532  -0.52691  -0.48586
 Alpha  occ. eigenvalues --   -0.44061  -0.41251  -0.39865  -0.38695  -0.37267
 Alpha  occ. eigenvalues --   -0.36503  -0.34127  -0.33501  -0.30874  -0.30590
 Alpha  occ. eigenvalues --   -0.30517  -0.29881  -0.29232  -0.26537  -0.25036
 Alpha  occ. eigenvalues --   -0.22885  -0.19748  -0.17655  -0.14033  -0.13403
 Alpha  occ. eigenvalues --    0.04304
 Alpha virt. eigenvalues --    0.06768   0.07632   0.07812   0.08652   0.09372
 Alpha virt. eigenvalues --    0.10139   0.10989   0.11293   0.11806   0.12334
 Alpha virt. eigenvalues --    0.13287   0.13999   0.14866   0.15157   0.15771

  Beta  occ. eigenvalues --  -19.07108 -19.02017 -14.24931 -14.18524 -14.18069
  Beta  occ. eigenvalues --  -10.21145 -10.14076 -10.12872 -10.09883 -10.08207
  Beta  occ. eigenvalues --   -1.01314  -0.92606  -0.87515  -0.77784  -0.76971
  Beta  occ. eigenvalues --   -0.65670  -0.60866  -0.55472  -0.52563  -0.48503
  Beta  occ. eigenvalues --   -0.44020  -0.41192  -0.39827  -0.38681  -0.37212
  Beta  occ. eigenvalues --   -0.36440  -0.34080  -0.33451  -0.30819  -0.30537
  Beta  occ. eigenvalues --   -0.30447  -0.29850  -0.29171  -0.26513  -0.25004
  Beta  occ. eigenvalues --   -0.22837  -0.19691  -0.17638  -0.14012  -0.13376
  Beta virt. eigenvalues --    0.06806   0.07733   0.08069   0.08849   0.09120
  Beta virt. eigenvalues --    0.09765   0.10700   0.11359   0.11452   0.12172
  Beta virt. eigenvalues --    0.12574   0.13580   0.14276   0.14988   0.15454

 Mulliken charges and spin densities:
               1          2
     1  C    0.271261  -0.697589
     2  N   -0.531610   0.081828
     3  C    1.161821  -1.561332
     4  N   -0.153196   0.252057
     5  C    0.588439  -0.948202
     6  C    0.019586   0.076957
     7  O   -0.281142   0.006908
     8  O   -0.128738  -0.031787
     9  C    0.125070  -0.377385
    10  N   -0.394490   0.038491
    11  H   -0.111702   0.286492
    12  H   -0.109055   0.215856
    13  H   -0.103315   0.231948
    14  H    0.249220   0.015382
    15  H    0.144145   0.059050
    16  H   -0.523224   0.697734
    17  H   -0.233516   0.433262
    18  H   -0.324690   0.442469
    19  H   -0.050359   0.250749
    20  H   -0.315004   0.539193
    21  H   -0.502394   0.836803
    22  H    0.032234   0.114593
    23  H    0.170658   0.036525
 Sum of Mulliken charges =  -1.00000   1.00000

 Dipole moment (field-independent basis, Debye):
    X=              3.1505    Y=              0.2709    Z=             -2.2127  Tot=              3.8595
 Quadrupole moment (field-independent basis, Debye-Ang):
   XX=           -128.2257   YY=           -100.0697   ZZ=            -93.2665
   XY=              5.1806   XZ=              6.2571   YZ=              1.4720

 Summary of Natural Population Analysis:

                                       Natural Population
                Natural  -----------------------------------------------
    Atom  No    Charge         Core      Valence    Rydberg      Total
 -----------------------------------------------------------------------
      C    1   -0.18194      0.99969     2.17416    0.00810     3.18194
      N    2   -0.42962      0.99978     2.91889    0.01095     3.92962
      C    3   -0.18667      0.99963     2.17665    0.01039     3.18667
      N    4   -0.25741      0.99968     2.74371    0.01402     3.75741
      C    5   -0.12912      0.99956     2.11674    0.01282     3.12912
      C    6    0.40050      0.99973     1.57515    0.02463     2.59950
      O    7   -0.30504      0.99987     3.29831    0.00685     4.30504
      O    8   -0.33992      0.99988     3.33257    0.00747     4.33992
      C    9    0.16731      0.99965     1.81576    0.01728     2.83269
      N   10   -0.37351      0.99974     2.86395    0.00982     3.87351
      H   11    0.09341      0.00000     0.40490    0.00169     0.40659
      H   12    0.07556      0.00000     0.42245    0.00198     0.42444
      H   13    0.08584      0.00000     0.41314    0.00103     0.41416
      H   14    0.18851      0.00000     0.30896    0.00253     0.31149
      H   15    0.16423      0.00000     0.33365    0.00212     0.33577
      H   16    0.10590      0.00000     0.39150    0.00260     0.39410
      H   17    0.10100      0.00000     0.39664    0.00236     0.39900
      H   18    0.10008      0.00000     0.39773    0.00219     0.39992
      H   19    0.11380      0.00000     0.38488    0.00132     0.38620
      H   20    0.11558      0.00000     0.38268    0.00174     0.38442
      H   21    0.24887      0.00000     0.22839    0.02274     0.25113
      H   22    0.07870      0.00000     0.41986    0.00144     0.42130
      H   23    0.16393      0.00000     0.33359    0.00248     0.33607
 =======================================================================
   * Total *    0.00000      9.99721    29.83425    0.16855    40.00000

 Normal termination of Gaussian 16 at Tue Dec  8 14:58:42 2020.
