 Gaussian 16, Revision A.03,

 -----------------------------------------------------------
 # opt freq B3LYP/6-31G(d) empiricaldispersion=gd3bj scf=xqc
 -----------------------------------------------------------

 ------------------------------
 CID_87604835_JID_2309_neutraal
 ------------------------------
 Symbolic Z-matrix:
 Charge =  0 Multiplicity = 1

 SCF Done:  E(RB3LYP) =  -533.671055711     A.U. after   14 cycles
 SCF Done:  E(RB3LYP) =  -533.672971998     A.U. after   12 cycles
 SCF Done:  E(RB3LYP) =  -533.673192918     A.U. after   11 cycles
 SCF Done:  E(RB3LYP) =  -533.673246793     A.U. after   11 cycles
 SCF Done:  E(RB3LYP) =  -533.673256999     A.U. after    9 cycles
 SCF Done:  E(RB3LYP) =  -533.673259720     A.U. after    9 cycles
 Optimization completed.
    -- Stationary point found.
 Normal termination of Gaussian 16 at Wed Dec  9 16:55:50 2020.

 --------------------------------------------------------------------
 #N Geom=AllCheck Guess=TCheck SCRF=Check GenChk RB3LYP/6-31G(d) Freq
 --------------------------------------------------------------------

 Structure from the checkpoint file:  "JID_2309.chk"
 ------------------------------
 CID_87604835_JID_2309_neutraal
 ------------------------------
 Charge =  0 Multiplicity = 1

 SCF Done:  E(RB3LYP) =  -533.673259720     A.U. after    1 cycles

  Exact polarizability: 152.525  -0.661 111.401  -3.788   1.191  54.270
 Approx polarizability: 229.280  -5.093 189.953  -7.703   1.616  85.217

                      1                      2                      3
                      A                      A                      A
 Frequencies --     68.4555               112.7876               161.5382
 Red. masses --      4.6190                 3.8641                 3.7409
 Frc consts  --      0.0128                 0.0290                 0.0575
 IR Inten    --      0.0507                 0.1306                 1.3742

                      4                      5                      6
                      A                      A                      A
 Frequencies --    175.3748               246.2859               325.5161
 Red. masses --      6.1538                 3.2630                 3.5867
 Frc consts  --      0.1115                 0.1166                 0.2239
 IR Inten    --      1.5064                 3.0682                24.2553

                      7                      8                      9
                      A                      A                      A
 Frequencies --    336.3465               384.2741               404.2645
 Red. masses --      1.3110                 2.3866                 3.7762
 Frc consts  --      0.0874                 0.2076                 0.3636
 IR Inten    --     61.5700                 8.0910                 3.2915

                     10                     11                     12
                      A                      A                      A
 Frequencies --    442.0686               497.3937               510.3015
 Red. masses --      3.1016                 6.4764                 5.7438
 Frc consts  --      0.3571                 0.9440                 0.8813
 IR Inten    --      5.9486                 3.3596                 5.0763

                     13                     14                     15
                      A                      A                      A
 Frequencies --    523.1426               603.8810               627.1050
 Red. masses --      3.6339                 3.0151                 5.2436
 Frc consts  --      0.5860                 0.6478                 1.2149
 IR Inten    --      6.2583                18.3595                 1.3419

                     16                     17                     18
                      A                      A                      A
 Frequencies --    717.8267               744.8398               772.5724
 Red. masses --      4.2541                 3.5545                 1.3648
 Frc consts  --      1.2915                 1.1619                 0.4800
 IR Inten    --      4.9955                 3.3719                27.9020

                     19                     20                     21
                      A                      A                      A
 Frequencies --    790.7434               851.4933               884.4627
 Red. masses --      3.5437                 2.9895                 1.3634
 Frc consts  --      1.3055                 1.2771                 0.6284
 IR Inten    --      4.4183                 4.7596                 9.3688

                     22                     23                     24
                      A                      A                      A
 Frequencies --    910.7659               919.2016               945.0613
 Red. masses --      3.8406                 2.9458                 1.3530
 Frc consts  --      1.8770                 1.4665                 0.7120
 IR Inten    --     34.8289                84.1300                 0.2948

                     25                     26                     27
                      A                      A                      A
 Frequencies --    966.8089               991.0696              1011.1093
 Red. masses --      1.6821                 1.2816                 2.1853
 Frc consts  --      0.9264                 0.7417                 1.3163
 IR Inten    --      3.0061                 0.0285                37.5520

                     28                     29                     30
                      A                      A                      A
 Frequencies --   1046.1328              1067.5902              1105.2455
 Red. masses --      2.9124                 2.2876                 2.4527
 Frc consts  --      1.8779                 1.5361                 1.7652
 IR Inten    --      6.3670                 0.7739                45.4774

                     31                     32                     33
                      A                      A                      A
 Frequencies --   1142.7740              1185.1897              1195.1020
 Red. masses --      1.7444                 2.1106                 1.1073
 Frc consts  --      1.3422                 1.7468                 0.9318
 IR Inten    --      9.0816                16.2032                 0.3684

                     34                     35                     36
                      A                      A                      A
 Frequencies --   1210.4488              1222.0935              1251.1806
 Red. masses --      1.2784                 2.8829                 2.4034
 Frc consts  --      1.1036                 2.5368                 2.2167
 IR Inten    --     10.5649                 6.7699                18.4410

                     37                     38                     39
                      A                      A                      A
 Frequencies --   1286.6388              1319.7313              1348.9237
 Red. masses --      1.3815                 1.4823                 1.7002
 Frc consts  --      1.3475                 1.5211                 1.8228
 IR Inten    --      5.3962                 8.9076                12.2380

                     40                     41                     42
                      A                      A                      A
 Frequencies --   1358.7504              1383.7803              1406.6013
 Red. masses --      1.9222                 1.6765                 1.3747
 Frc consts  --      2.0908                 1.8914                 1.6025
 IR Inten    --     18.1458                15.4590                47.4439

                     43                     44                     45
                      A                      A                      A
 Frequencies --   1417.4029              1493.7029              1498.1894
 Red. masses --      1.4130                 1.1034                 1.2634
 Frc consts  --      1.6726                 1.4505                 1.6708
 IR Inten    --      6.6511                16.2752                 4.2687

                     46                     47                     48
                      A                      A                      A
 Frequencies --   1505.6970              1534.6210              1633.1818
 Red. masses --      1.8783                 2.5264                 5.9717
 Frc consts  --      2.5090                 3.5055                 9.3846
 IR Inten    --      6.4279                 2.1889                14.9972

                     49                     50                     51
                      A                      A                      A
 Frequencies --   1665.5066              1714.3846              3001.6943
 Red. masses --      6.0624                 9.2069                 1.0733
 Frc consts  --      9.9080                15.9434                 5.6979
 IR Inten    --      5.6441               103.2200                 6.8483

                     52                     53                     54
                      A                      A                      A
 Frequencies --   3019.8379              3110.2486              3134.6497
 Red. masses --      1.0819                 1.0890                 1.0901
 Frc consts  --      5.8129                 6.2066                 6.3108
 IR Inten    --     46.7145                44.2786                 6.4725

                     55                     56                     57
                      A                      A                      A
 Frequencies --   3180.3886              3185.1851              3198.0196
 Red. masses --      1.0865                 1.0887                 1.0922
 Frc consts  --      6.4748                 6.5079                 6.5811
 IR Inten    --      8.2861                 1.0824                24.9782

                     58                     59                     60
                      A                      A                      A
 Frequencies --   3211.9626              3434.2915              3747.2073
 Red. masses --      1.0972                 1.0753                 1.0684
 Frc consts  --      6.6690                 7.4724                 8.8389
 IR Inten    --     27.3359                 1.0060                38.2999

 - Thermochemistry -
 -------------------
 Temperature   298.150 Kelvin.  Pressure   1.00000 Atm.
 Atom     1 has atomic number  6 and mass  12.00000

 Molecular mass:   162.07931 amu.
 Principal axes and moments of inertia in atomic units:
                           1         2         3
     Eigenvalues --   794.458022999.171123708.89219
           X            0.99999   0.00468  -0.00158
           Y           -0.00468   0.99999   0.00094
           Z            0.00159  -0.00094   1.00000
 This molecule is an asymmetric top.
 Rotational symmetry number  1.
 Warning -- assumption of classical behavior for rotation
           may cause significant error
 Rotational temperatures (Kelvin)      0.10902     0.02888     0.02335
 Rotational constants (GHZ):           2.27166     0.60175     0.48660
 Zero-point vibrational energy     473368.6 (Joules/Mol)
                                  113.13780 (Kcal/Mol)
 Warning -- explicit consideration of  14 degrees of freedom as
           vibrations may cause significant error
 Vibrational temperatures:     98.49   162.28   232.42   252.33   354.35
          (Kelvin)            468.35   483.93   552.88   581.65   636.04
                              715.64   734.21   752.69   868.85   902.26
                             1032.79  1071.66  1111.56  1137.70  1225.11
                             1272.54  1310.39  1322.53  1359.73  1391.02
                             1425.93  1454.76  1505.15  1536.02  1590.20
                             1644.20  1705.22  1719.49  1741.57  1758.32
                             1800.17  1851.19  1898.80  1940.80  1954.94
                             1990.95  2023.79  2039.33  2149.11  2155.56
                             2166.36  2207.98  2349.78  2396.29  2466.62
                             4318.77  4344.87  4474.95  4510.06  4575.87
                             4582.77  4601.24  4621.30  4941.18  5391.40

 Zero-point correction=                           0.180297 (Hartree/Particle)
 Thermal correction to Energy=                    0.190000
 Thermal correction to Enthalpy=                  0.190944
 Thermal correction to Gibbs Free Energy=         0.145093
 Sum of electronic and zero-point Energies=           -533.492963
 Sum of electronic and thermal Energies=              -533.483260
 Sum of electronic and thermal Enthalpies=            -533.482316
 Sum of electronic and thermal Free Energies=         -533.528167

                     E (Thermal)             CV                S
                      KCal/Mol        Cal/Mol-Kelvin    Cal/Mol-Kelvin
 Total                  119.227             38.632             96.502
 Electronic               0.000              0.000              0.000
 Translational            0.889              2.981             41.157
 Rotational               0.889              2.981             30.559
 Vibrational            117.449             32.670             24.786
 Vibration     1          0.598              1.969              4.197
 Vibration     2          0.607              1.939              3.220
 Vibration     3          0.622              1.890              2.532
 Vibration     4          0.627              1.873              2.377
 Vibration     5          0.661              1.769              1.757
 Vibration     6          0.710              1.624              1.282
 Vibration     7          0.717              1.603              1.229
 Vibration     8          0.753              1.504              1.022
 Vibration     9          0.769              1.461              0.947
 Vibration    10          0.802              1.378              0.820
 Vibration    11          0.853              1.256              0.665
 Vibration    12          0.865              1.227              0.633
 Vibration    13          0.878              1.199              0.603
 Vibration    14          0.962              1.024              0.443

                           ! Non-Optimized Parameters !
 Normal termination of Gaussian 16 at Wed Dec  9 17:00:47 2020.

 ----------------------------------------------------------------------
 # B3LYP/6-311++G(d,p) empiricaldispersion=gd3bj scf=xqc pop=npa geom=c
 heck
 ----------------------------------------------------------------------

 --------------------------------------
 CID_87604835_JID_2309_Energie_neutraal
 --------------------------------------
 Structure from the checkpoint file:  "JID_2309.chk"
 Charge =  0 Multiplicity = 1

 SCF Done:  E(RB3LYP) =  -533.827708529     A.U. after   15 cycles
 Normal termination of Gaussian 16 at Wed Dec  9 17:03:20 2020.

 ----------------------------------------------------------------------
 # B3LYP/6-311++G(d,p) empiricaldispersion=gd3bj scf=xqc pop=npa geom=c
 heck
 ----------------------------------------------------------------------

 ------------------------------------
 CID_87604835_JID_2309_Energie_kation
 ------------------------------------
 Structure from the checkpoint file:  "JID_2309.chk"
 Charge =  1 Multiplicity = 2

 SCF Done:  E(UB3LYP) =  -533.517059171     A.U. after   29 cycles
 Normal termination of Gaussian 16 at Wed Dec  9 17:09:41 2020.
 Gaussian 16:  ES64L-G16RevA.03 25-Dec-2016

 ----------------------------------------------------------------------
 # B3LYP/6-311++G(d,p) empiricaldispersion=gd3bj scf=xqc pop=npa geom=c
 heck
 ----------------------------------------------------------------------

 -----------------------------------
 CID_87604835_JID_2309_Energie_anion
 -----------------------------------
 Structure from the checkpoint file:  "JID_2309.chk"
 Charge = -1 Multiplicity = 2

                         Standard orientation:
 ---------------------------------------------------------------------
 Center     Atomic      Atomic             Coordinates (Angstroms)
 Number     Number       Type             X           Y           Z
 ---------------------------------------------------------------------
      1          6           0       -0.828362   -0.799918    0.433222
      2          6           0       -1.652235    0.266525   -0.300123
      3          7           0       -1.232791    1.628576    0.030711
      4          6           0        0.025352    1.817206    0.162969
      5          6           0        1.058351    0.774945    0.062103
      6          6           0        2.410557    1.081487   -0.117984
      7          6           0        3.352680    0.057785   -0.202539
      8          6           0        2.940137   -1.271883   -0.093397
      9          6           0        1.590694   -1.580051    0.102137
     10          6           0        0.640759   -0.564746    0.179735
     11          7           0       -3.096842    0.225000   -0.038956
     12          8           0       -3.526403   -1.147957   -0.186146
     13          1           0       -1.143873   -1.797775    0.121586
     14          1           0       -1.032346   -0.716800    1.513178
     15          1           0       -1.524425    0.125277   -1.384173
     16          1           0        0.360236    2.838611    0.367195
     17          1           0        2.718392    2.121347   -0.198852
     18          1           0        4.402487    0.293297   -0.350298
     19          1           0        3.671038   -2.072935   -0.159566
     20          1           0        1.275871   -2.616533    0.193249
     21          1           0       -3.226917    0.416134    0.957742
     22          1           0       -4.209406   -1.070098   -0.869914
 ---------------------------------------------------------------------

 SCF Done:  E(UB3LYP) =  -533.829737102     A.U. after   29 cycles

 The electronic state is 2-A.
 Alpha  occ. eigenvalues --  -19.03010 -14.21911 -14.11413 -10.07395 -10.02428
 Alpha  occ. eigenvalues --  -10.02293 -10.02054 -10.01966 -10.01756 -10.01547
 Alpha  occ. eigenvalues --  -10.00909 -10.00555  -0.93921  -0.77129  -0.70310
 Alpha  occ. eigenvalues --   -0.68498  -0.62360  -0.59546  -0.56117  -0.48785
 Alpha  occ. eigenvalues --   -0.46379  -0.44658  -0.40231  -0.38287  -0.35983
 Alpha  occ. eigenvalues --   -0.33502  -0.32269  -0.31430  -0.29898  -0.28521
 Alpha  occ. eigenvalues --   -0.26399  -0.25953  -0.25115  -0.23140  -0.21585
 Alpha  occ. eigenvalues --   -0.20549  -0.18690  -0.17669  -0.16025  -0.12113
 Alpha  occ. eigenvalues --   -0.10474  -0.09067  -0.08273   0.05911
 Alpha virt. eigenvalues --    0.08549   0.09378   0.10422   0.11203   0.11644
 Alpha virt. eigenvalues --    0.12443   0.13089   0.13240   0.14400   0.14814
 Alpha virt. eigenvalues --    0.15430   0.16966   0.17948   0.18312   0.19332

  Beta  occ. eigenvalues --  -19.03007 -14.21900 -14.10834 -10.07413 -10.02424
  Beta  occ. eigenvalues --  -10.02096 -10.02082 -10.02030 -10.01550 -10.01403
  Beta  occ. eigenvalues --  -10.00559 -10.00414  -0.93910  -0.76468  -0.70012
  Beta  occ. eigenvalues --   -0.68120  -0.62037  -0.59005  -0.55928  -0.48537
  Beta  occ. eigenvalues --   -0.45660  -0.44488  -0.40003  -0.38098  -0.35859
  Beta  occ. eigenvalues --   -0.33334  -0.32037  -0.31174  -0.29667  -0.28320
  Beta  occ. eigenvalues --   -0.26224  -0.25746  -0.24831  -0.22739  -0.20589
  Beta  occ. eigenvalues --   -0.20308  -0.18566  -0.17578  -0.14171  -0.11933
  Beta  occ. eigenvalues --   -0.09584  -0.08092  -0.06738
  Beta virt. eigenvalues --    0.08461   0.09290   0.10349   0.11137   0.11536
  Beta virt. eigenvalues --    0.12254   0.12423   0.13166   0.13359   0.14392
  Beta virt. eigenvalues --    0.14779   0.15456   0.17337   0.17979   0.19132

 Mulliken charges and spin densities:
               1          2
     1  C   -0.544286   0.053473
     2  C   -0.618809  -0.123603
     3  N   -0.115865   0.272391
     4  C   -0.535725   0.121802
     5  C    0.150087   0.057886
     6  C   -0.649733   0.137228
     7  C   -0.201046  -0.041311
     8  C   -0.243715   0.289545
     9  C   -0.342287  -0.016871
    10  C    1.237332   0.093708
    11  N   -0.175979  -0.025552
    12  O   -0.196935   0.010886
    13  H    0.147809   0.004762
    14  H    0.129891  -0.004231
    15  H    0.076371   0.077520
    16  H    0.105138  -0.005235
    17  H    0.056012   0.028203
    18  H    0.093029   0.004475
    19  H    0.092948  -0.018398
    20  H    0.053262   0.037889
    21  H    0.242875   0.031287
    22  H    0.239626   0.014145
 Sum of Mulliken charges =  -1.00000   1.00000

 Dipole moment (field-independent basis, Debye):
    X=             -1.0055    Y=             -2.3179    Z=              0.0347  Tot=              2.5268
 Quadrupole moment (field-independent basis, Debye-Ang):
   XX=           -100.2204   YY=            -89.7813   ZZ=            -79.1070
   XY=              7.4288   XZ=              1.0371   YZ=              1.2343

 Summary of Natural Population Analysis:

                                       Natural Population
                Natural  -----------------------------------------------
    Atom  No    Charge         Core      Valence    Rydberg      Total
 -----------------------------------------------------------------------
      C    1   -0.21122      0.99959     2.20234    0.00929     3.21122
      C    2    0.06468      0.99959     1.91720    0.01853     2.93532
      N    3   -0.16993      0.99966     2.65732    0.01295     3.66993
      C    4    0.08160      0.99960     1.90214    0.01666     2.91840
      C    5   -0.03532      0.99946     2.02776    0.00810     3.03532
      C    6   -0.06416      0.99954     2.05547    0.00915     3.06416
      C    7   -0.12872      0.99958     2.11979    0.00936     3.12872
      C    8   -0.04291      0.99958     2.03346    0.00988     3.04291
      C    9   -0.12553      0.99952     2.11702    0.00899     3.12553
      C   10    0.03359      0.99948     1.95815    0.00878     2.96641
      N   11   -0.17783      0.99972     2.66261    0.01550     3.67783
      O   12   -0.31125      0.99991     3.30391    0.00744     4.31125
      H   13    0.10501      0.00000     0.39297    0.00202     0.39499
      H   14    0.09656      0.00000     0.40139    0.00205     0.40344
      H   15    0.08482      0.00000     0.41288    0.00230     0.41518
      H   16    0.07056      0.00000     0.42729    0.00215     0.42944
      H   17    0.08733      0.00000     0.41074    0.00193     0.41267
      H   18    0.08781      0.00000     0.41104    0.00115     0.41219
      H   19    0.08325      0.00000     0.41504    0.00170     0.41675
      H   20    0.08895      0.00000     0.40939    0.00166     0.41105
      H   21    0.15799      0.00000     0.33711    0.00490     0.34201
      H   22    0.22473      0.00000     0.27193    0.00334     0.27527
 =======================================================================
   * Total *    0.00000     11.99522    30.84695    0.15782    43.00000

 Normal termination of Gaussian 16 at Wed Dec  9 17:15:42 2020.
