 Gaussian 16, Revision A.03,

 -----------------------------------------------------------
 # opt freq B3LYP/6-31G(d) empiricaldispersion=gd3bj scf=xqc
 -----------------------------------------------------------

 -------------------------------
 CID_115142562_JID_8820_neutraal
 -------------------------------
 Symbolic Z-matrix:
 Charge =  0 Multiplicity = 1

 SCF Done:  E(RB3LYP) =  -1184.31337707     A.U. after   15 cycles
 SCF Done:  E(RB3LYP) =  -1184.31635970     A.U. after   14 cycles
 SCF Done:  E(RB3LYP) =  -1184.31648834     A.U. after   13 cycles
 SCF Done:  E(RB3LYP) =  -1184.31803863     A.U. after   13 cycles
 SCF Done:  E(RB3LYP) =  -1184.31847626     A.U. after   13 cycles
 SCF Done:  E(RB3LYP) =  -1184.31876074     A.U. after   12 cycles
 SCF Done:  E(RB3LYP) =  -1184.31879195     A.U. after   11 cycles
 SCF Done:  E(RB3LYP) =  -1184.31881081     A.U. after   10 cycles
 SCF Done:  E(RB3LYP) =  -1184.31881453     A.U. after   10 cycles
 SCF Done:  E(RB3LYP) =  -1184.31881587     A.U. after    9 cycles
 SCF Done:  E(RB3LYP) =  -1184.31881632     A.U. after    8 cycles
 SCF Done:  E(RB3LYP) =  -1184.31881645     A.U. after    8 cycles
 SCF Done:  E(RB3LYP) =  -1184.31881646     A.U. after    7 cycles
 SCF Done:  E(RB3LYP) =  -1184.31881646     A.U. after    6 cycles
 SCF Done:  E(RB3LYP) =  -1184.31881646     A.U. after    6 cycles
 Optimization completed.
    -- Stationary point found.
 Normal termination of Gaussian 16 at Fri Dec 11 22:12:00 2020.

 --------------------------------------------------------------------
 #N Geom=AllCheck Guess=TCheck SCRF=Check GenChk RB3LYP/6-31G(d) Freq
 --------------------------------------------------------------------

 Structure from the checkpoint file:  "JID_8820.chk"
 -------------------------------
 CID_115142562_JID_8820_neutraal
 -------------------------------
 Charge =  0 Multiplicity = 1

 SCF Done:  E(RB3LYP) =  -1184.31881646     A.U. after    1 cycles

  Exact polarizability: 231.792  -9.939 156.004  11.294   6.889 118.609
 Approx polarizability: 283.765 -10.549 272.653  24.679  13.595 188.753

                      1                      2                      3
                      A                      A                      A
 Frequencies --     14.7514                21.8194                28.5947
 Red. masses --      4.0901                 5.6208                 5.2753
 Frc consts  --      0.0005                 0.0016                 0.0025
 IR Inten    --      0.7640                 0.5967                 0.4892

                      4                      5                      6
                      A                      A                      A
 Frequencies --     34.4512                42.7929                55.8503
 Red. masses --      5.5309                 5.7084                 3.4937
 Frc consts  --      0.0039                 0.0062                 0.0064
 IR Inten    --      0.5154                 2.9863                 0.1564

                      7                      8                      9
                      A                      A                      A
 Frequencies --     80.2094                91.1218               115.5162
 Red. masses --      3.7945                 5.5839                 2.1765
 Frc consts  --      0.0144                 0.0273                 0.0171
 IR Inten    --      0.0221                 0.4998                 0.6450

                     10                     11                     12
                      A                      A                      A
 Frequencies --    131.9765               147.2083               191.7642
 Red. masses --      1.4205                 2.1417                 3.8856
 Frc consts  --      0.0146                 0.0273                 0.0842
 IR Inten    --      0.9762                 1.8143                 2.0623

                     13                     14                     15
                      A                      A                      A
 Frequencies --    205.8335               246.7307               275.0848
 Red. masses --      4.9246                 1.7644                 2.5021
 Frc consts  --      0.1229                 0.0633                 0.1116
 IR Inten    --      4.7124                 0.1541                 0.3922

                     16                     17                     18
                      A                      A                      A
 Frequencies --    290.4035               323.7144               343.3808
 Red. masses --      2.7461                 4.0583                 4.5755
 Frc consts  --      0.1364                 0.2506                 0.3179
 IR Inten    --      0.5353                 4.1371                36.1072

                     19                     20                     21
                      A                      A                      A
 Frequencies --    352.9673               362.1837               387.6304
 Red. masses --      4.8004                 4.3493                 6.1628
 Frc consts  --      0.3524                 0.3361                 0.5456
 IR Inten    --      0.3177                 0.5922                 2.8602

                     22                     23                     24
                      A                      A                      A
 Frequencies --    407.7236               420.6993               446.9737
 Red. masses --      2.7970                 2.9966                 2.8612
 Frc consts  --      0.2740                 0.3125                 0.3368
 IR Inten    --      0.3209                 0.1416                 1.4134

                     25                     26                     27
                      A                      A                      A
 Frequencies --    484.9087               562.9900               611.8253
 Red. masses --      3.6358                 2.8661                 3.2250
 Frc consts  --      0.5037                 0.5352                 0.7113
 IR Inten    --      2.7140                14.3518                18.1978

                     28                     29                     30
                      A                      A                      A
 Frequencies --    628.2121               648.7809               654.4106
 Red. masses --      2.7813                 3.4084                 4.0014
 Frc consts  --      0.6467                 0.8453                 1.0096
 IR Inten    --     37.2547                36.6833                17.3777

                     31                     32                     33
                      A                      A                      A
 Frequencies --    660.5637               686.8646               742.9647
 Red. masses --      3.0812                 4.7515                 3.3289
 Frc consts  --      0.7921                 1.3208                 1.0827
 IR Inten    --     21.0836                70.0963                 1.9141

                     34                     35                     36
                      A                      A                      A
 Frequencies --    783.0229               802.2984               817.8863
 Red. masses --      1.2511                 3.9323                 7.6468
 Frc consts  --      0.4520                 1.4913                 3.0138
 IR Inten    --     13.0899                 4.2864                 7.4056

                     37                     38                     39
                      A                      A                      A
 Frequencies --    834.5122               848.1644               857.1718
 Red. masses --      2.0273                 2.6798                 1.2535
 Frc consts  --      0.8318                 1.1358                 0.5426
 IR Inten    --     23.9752                 9.1020                 1.4054

                     40                     41                     42
                      A                      A                      A
 Frequencies --    904.6253               965.4050               970.3176
 Red. masses --      2.3004                 2.3203                 1.3277
 Frc consts  --      1.1092                 1.2741                 0.7365
 IR Inten    --     27.5958                 6.6934                 0.2775

                     43                     44                     45
                      A                      A                      A
 Frequencies --    973.9361               990.0892              1011.1425
 Red. masses --      1.3728                 1.8607                 4.0611
 Frc consts  --      0.7672                 1.0746                 2.4464
 IR Inten    --      1.0235                 8.0095                 9.5433

                     46                     47                     48
                      A                      A                      A
 Frequencies --   1039.6974              1042.6615              1071.4484
 Red. masses --      3.2637                 2.4141                 1.3345
 Frc consts  --      2.0786                 1.5463                 0.9027
 IR Inten    --     35.2991                25.3621                 2.7334

                     49                     50                     51
                      A                      A                      A
 Frequencies --   1088.1865              1119.2485              1129.4983
 Red. masses --      1.8892                 3.3625                 2.7446
 Frc consts  --      1.3180                 2.4818                 2.0630
 IR Inten    --      5.1601                 6.6492                19.0380

                     52                     53                     54
                      A                      A                      A
 Frequencies --   1143.4873              1184.6614              1207.5328
 Red. masses --      1.4841                 1.2764                 1.4322
 Frc consts  --      1.1433                 1.0554                 1.2304
 IR Inten    --      4.7779                 0.9468                45.8451

                     55                     56                     57
                      A                      A                      A
 Frequencies --   1218.2087              1218.4969              1236.7328
 Red. masses --      1.3981                 1.1388                 2.5715
 Frc consts  --      1.2224                 0.9962                 2.3173
 IR Inten    --      2.0960                 0.6807                 5.4575

                     58                     59                     60
                      A                      A                      A
 Frequencies --   1267.0356              1291.8770              1300.1291
 Red. masses --      2.9201                 1.2121                 1.5752
 Frc consts  --      2.7620                 1.1919                 1.5688
 IR Inten    --    467.3886                 1.3452               157.4582

                     61                     62                     63
                      A                      A                      A
 Frequencies --   1320.0658              1331.9833              1356.5484
 Red. masses --      1.2938                 2.0545                 2.1361
 Frc consts  --      1.3284                 2.1476                 2.3160
 IR Inten    --     31.1607                 1.9858                 0.6498

                     64                     65                     66
                      A                      A                      A
 Frequencies --   1376.7379              1396.0982              1434.5685
 Red. masses --      1.4071                 1.6245                 1.8581
 Frc consts  --      1.5714                 1.8656                 2.2531
 IR Inten    --      5.5814                12.5210                 8.7218

                     67                     68                     69
                      A                      A                      A
 Frequencies --   1437.8946              1451.1326              1493.9126
 Red. masses --      1.2270                 2.5216                 1.2479
 Frc consts  --      1.4947                 3.1285                 1.6408
 IR Inten    --      4.1538                 9.5635                 7.7891

                     70                     71                     72
                      A                      A                      A
 Frequencies --   1499.5305              1508.6881              1513.7995
 Red. masses --      1.0904                 1.6101                 1.0488
 Frc consts  --      1.4446                 2.1593                 1.4160
 IR Inten    --      3.5564                32.6949                 6.9181

                     73                     74                     75
                      A                      A                      A
 Frequencies --   1519.1915              1520.0956              1521.2432
 Red. masses --      1.1396                 1.0422                 1.0471
 Frc consts  --      1.5496                 1.4188                 1.4277
 IR Inten    --     12.1863                 4.5654                12.6346

                     76                     77                     78
                      A                      A                      A
 Frequencies --   1524.1715              1532.3360              1543.6863
 Red. masses --      1.2020                 1.0482                 2.2921
 Frc consts  --      1.6452                 1.4501                 3.2181
 IR Inten    --     10.3586                 1.5499                19.2758

                     79                     80                     81
                      A                      A                      A
 Frequencies --   1619.2045              1659.1532              1789.7557
 Red. masses --      6.3147                 5.6726                 9.3889
 Frc consts  --      9.7545                 9.2004                17.7196
 IR Inten    --      0.3573                 0.5128               492.4806

                     82                     83                     84
                      A                      A                      A
 Frequencies --   1802.1417              3050.8957              3061.3861
 Red. masses --     10.7128                 1.0373                 1.0652
 Frc consts  --     20.4990                 5.6888                 5.8817
 IR Inten    --    124.9993                28.2934                22.7428

                     85                     86                     87
                      A                      A                      A
 Frequencies --   3070.7280              3074.9042              3079.7542
 Red. masses --      1.0591                 1.0694                 1.0300
 Frc consts  --      5.8840                 5.9574                 5.7561
 IR Inten    --     19.4122                26.9061                27.5664

                     88                     89                     90
                      A                      A                      A
 Frequencies --   3113.9486              3118.1877              3124.7806
 Red. masses --      1.1057                 1.0988                 1.0983
 Frc consts  --      6.3167                 6.2944                 6.3187
 IR Inten    --      2.0067                27.1924                11.8822

                     91                     92                     93
                      A                      A                      A
 Frequencies --   3140.9714              3155.3215              3159.7617
 Red. masses --      1.1047                 1.1076                 1.0973
 Frc consts  --      6.4216                 6.4972                 6.4549
 IR Inten    --     29.5579                17.7266                17.1842

                     94                     95                     96
                      A                      A                      A
 Frequencies --   3176.9377              3188.3120              3194.8954
 Red. masses --      1.0888                 1.0879                 1.1069
 Frc consts  --      6.4746                 6.5156                 6.6571
 IR Inten    --     15.8959                10.1201                14.5295

                     97                     98                     99
                      A                      A                      A
 Frequencies --   3207.4408              3212.8113              3581.9665
 Red. masses --      1.0939                 1.0932                 1.0754
 Frc consts  --      6.6303                 6.6484                 8.1294
 IR Inten    --      9.9085                 4.7517                26.6786

 - Thermochemistry -
 -------------------
 Temperature   298.150 Kelvin.  Pressure   1.00000 Atm.
 Atom     1 has atomic number  6 and mass  12.00000

 Molecular mass:   267.09292 amu.
 Principal axes and moments of inertia in atomic units:
                           1         2         3
     Eigenvalues --  1762.50354********************
           X            0.99998  -0.00191  -0.00612
           Y            0.00233   0.99752   0.07036
           Z            0.00597  -0.07038   0.99750
 This molecule is an asymmetric top.
 Rotational symmetry number  1.
 Warning -- assumption of classical behavior for rotation
           may cause significant error
 Rotational temperatures (Kelvin)      0.04914     0.00634     0.00612
 Rotational constants (GHZ):           1.02396     0.13200     0.12758
 Zero-point vibrational energy     752949.5 (Joules/Mol)
                                  179.95924 (Kcal/Mol)
 Warning -- explicit consideration of  27 degrees of freedom as
           vibrations may cause significant error
 Vibrational temperatures:     21.22    31.39    41.14    49.57    61.57
          (Kelvin)             80.36   115.40   131.10   166.20   189.88
                              211.80   275.91   296.15   354.99   395.79
                              417.83   465.75   494.05   507.84   521.10
                              557.71   586.62   605.29   643.10   697.68
                              810.02   880.28   903.86   933.45   941.55
                              950.40   988.24  1068.96  1126.60  1154.33
                             1176.76  1200.68  1220.32  1233.28  1301.55
                             1389.00  1396.07  1401.28  1424.52  1454.81
                             1495.89  1500.16  1541.58  1565.66  1610.35
                             1625.10  1645.22  1704.46  1737.37  1752.73
                             1753.15  1779.38  1822.98  1858.72  1870.60
                             1899.28  1916.43  1951.77  1980.82  2008.67
                             2064.02  2068.81  2087.86  2149.41  2157.49
                             2170.67  2178.02  2185.78  2187.08  2188.73
                             2192.94  2204.69  2221.02  2329.67  2387.15
                             2575.06  2592.88  4389.56  4404.65  4418.09
                             4424.10  4431.08  4480.28  4486.38  4495.86
                             4519.16  4539.80  4546.19  4570.90  4587.27
                             4596.74  4614.79  4622.52  5153.65

 Zero-point correction=                           0.286783 (Hartree/Particle)
 Thermal correction to Energy=                    0.305970
 Thermal correction to Enthalpy=                  0.306915
 Thermal correction to Gibbs Free Energy=         0.234667
 Sum of electronic and zero-point Energies=          -1184.032033
 Sum of electronic and thermal Energies=             -1184.012846
 Sum of electronic and thermal Enthalpies=           -1184.011902
 Sum of electronic and thermal Free Energies=        -1184.084150

                     E (Thermal)             CV                S
                      KCal/Mol        Cal/Mol-Kelvin    Cal/Mol-Kelvin
 Total                  191.999             68.591            152.059
 Electronic               0.000              0.000              0.000
 Translational            0.889              2.981             42.646
 Rotational               0.889              2.981             34.188
 Vibrational            190.222             62.629             75.225
 Vibration     1          0.593              1.986              7.239
 Vibration     2          0.593              1.985              6.461
 Vibration     3          0.593              1.984              5.925
 Vibration     4          0.594              1.983              5.555
 Vibration     5          0.595              1.980              5.125
 Vibration     6          0.596              1.975              4.599
 Vibration     7          0.600              1.963              3.886
 Vibration     8          0.602              1.955              3.636
 Vibration     9          0.608              1.937              3.174
 Vibration    10          0.612              1.921              2.917
 Vibration    11          0.617              1.906              2.708
 Vibration    12          0.634              1.851              2.211
 Vibration    13          0.640              1.832              2.080
 Vibration    14          0.661              1.768              1.754
 Vibration    15          0.677              1.719              1.564
 Vibration    16          0.686              1.692              1.472
 Vibration    17          0.708              1.628              1.291
 Vibration    18          0.722              1.589              1.196
 Vibration    19          0.729              1.569              1.153
 Vibration    20          0.736              1.550              1.113
 Vibration    21          0.756              1.497              1.009
 Vibration    22          0.772              1.453              0.935
 Vibration    23          0.783              1.425              0.890
 Vibration    24          0.806              1.368              0.805
 Vibration    25          0.841              1.284              0.697
 Vibration    26          0.919              1.111              0.518
 Vibration    27          0.971              1.007              0.430

 Optimization completed.
    -- Stationary point found.
 Normal termination of Gaussian 16 at Fri Dec 11 22:25:04 2020.

 ----------------------------------------------------------------------
 # B3LYP/6-311++G(d,p) empiricaldispersion=gd3bj scf=xqc pop=npa geom=c
 heck
 ----------------------------------------------------------------------

 ---------------------------------------
 CID_115142562_JID_8820_Energie_neutraal
 ---------------------------------------
 Structure from the checkpoint file:  "JID_8820.chk"
 Charge =  0 Multiplicity = 1

 SCF Done:  E(RB3LYP) =  -1184.57042204     A.U. after   16 cycles
 Normal termination of Gaussian 16 at Fri Dec 11 22:30:34 2020.

 ----------------------------------------------------------------------
 # B3LYP/6-311++G(d,p) empiricaldispersion=gd3bj scf=xqc pop=npa geom=c
 heck
 ----------------------------------------------------------------------

 -------------------------------------
 CID_115142562_JID_8820_Energie_kation
 -------------------------------------
 Structure from the checkpoint file:  "JID_8820.chk"
 Charge =  1 Multiplicity = 2

 SCF Done:  E(UB3LYP) =  -1184.27618236     A.U. after   31 cycles
 Normal termination of Gaussian 16 at Fri Dec 11 22:44:52 2020.
 Gaussian 16:  ES64L-G16RevA.03 25-Dec-2016

 ----------------------------------------------------------------------
 # B3LYP/6-311++G(d,p) empiricaldispersion=gd3bj scf=xqc pop=npa geom=c
 heck
 ----------------------------------------------------------------------

 ------------------------------------
 CID_115142562_JID_8820_Energie_anion
 ------------------------------------
 Structure from the checkpoint file:  "JID_8820.chk"
 Charge = -1 Multiplicity = 2

                         Standard orientation:
 ---------------------------------------------------------------------
 Center     Atomic      Atomic             Coordinates (Angstroms)
 Number     Number       Type             X           Y           Z
 ---------------------------------------------------------------------
      1          6           0       -5.470407   -0.275997    1.632051
      2          6           0       -5.231628    1.048680    0.917254
      3         16           0       -4.563350    0.859237   -0.791706
      4          6           0       -2.980256    0.103026   -0.430135
      5          6           0       -1.967538    0.826432    0.212311
      6          6           0       -0.739206    0.227825    0.482987
      7          6           0       -0.480674   -1.095775    0.098488
      8          6           0       -1.493941   -1.805326   -0.556469
      9          6           0       -2.734041   -1.220974   -0.810751
     10          6           0        0.879877   -1.710196    0.316160
     11          6           0        1.834110   -1.439658   -0.864813
     12          7           0        2.033545   -0.017199   -1.121460
     13          6           0        2.953480    0.834705   -0.594028
     14          8           0        2.930336    2.044731   -0.761517
     15          6           0        4.048015    0.205308    0.281547
     16          8           0        3.852502   -0.647752    1.124615
     17          8           0        5.227920    0.779095    0.040548
     18          6           0        6.308940    0.333766    0.879688
     19          1           0       -6.180073   -0.897652    1.077311
     20          1           0       -5.873754   -0.099093    2.636698
     21          1           0       -4.535830   -0.836222    1.735411
     22          1           0       -6.166644    1.602322    0.781625
     23          1           0       -4.550878    1.689538    1.486461
     24          1           0       -2.142738    1.859815    0.496148
     25          1           0        0.035206    0.798056    0.989232
     26          1           0       -1.315449   -2.834863   -0.858902
     27          1           0       -3.519168   -1.788856   -1.299670
     28          1           0        1.350531   -1.314316    1.220610
     29          1           0        0.792095   -2.796687    0.438104
     30          1           0        2.800490   -1.904811   -0.670131
     31          1           0        1.428062   -1.878737   -1.782476
     32          1           0        1.275057    0.473454   -1.582272
     33          1           0        6.093279    0.562964    1.926110
     34          1           0        6.456880   -0.743836    0.772027
     35          1           0        7.185262    0.882032    0.536324
 ---------------------------------------------------------------------

 SCF Done:  E(UB3LYP) =  -1184.56826757     A.U. after   33 cycles
 SCF Done:  E(UB3LYP) =  -1184.56826757     a.u. after    2 cycles

 The electronic state is 2-A.
 Alpha  occ. eigenvalues --  -88.73836 -19.05306 -18.98419 -18.96300 -14.21798
 Alpha  occ. eigenvalues --  -10.16398 -10.14545 -10.12951 -10.10257 -10.10079
 Alpha  occ. eigenvalues --  -10.09010 -10.07556 -10.07375 -10.07015 -10.06739
 Alpha  occ. eigenvalues --  -10.06643 -10.06574 -10.06317  -7.82410  -5.78800
 Alpha  occ. eigenvalues --   -5.78447  -5.77793  -0.99556  -0.91500  -0.90156
 Alpha  occ. eigenvalues --   -0.80863  -0.75944  -0.70968  -0.67600  -0.64341
 Alpha  occ. eigenvalues --   -0.63804  -0.63155  -0.58898  -0.54367  -0.52755
 Alpha  occ. eigenvalues --   -0.50664  -0.50210  -0.46787  -0.45806  -0.41028
 Alpha  occ. eigenvalues --   -0.38997  -0.38511  -0.38004  -0.36853  -0.36081
 Alpha  occ. eigenvalues --   -0.35400  -0.35048  -0.33940  -0.33570  -0.32446
 Alpha  occ. eigenvalues --   -0.31820  -0.31385  -0.30012  -0.29783  -0.29486
 Alpha  occ. eigenvalues --   -0.27811  -0.26931  -0.26618  -0.25656  -0.25626
 Alpha  occ. eigenvalues --   -0.25217  -0.23727  -0.23293  -0.21392  -0.20041
 Alpha  occ. eigenvalues --   -0.18622  -0.15703  -0.15247  -0.14105  -0.12764
 Alpha  occ. eigenvalues --   -0.12180   0.04522
 Alpha virt. eigenvalues --    0.05946   0.06630   0.07059   0.07613   0.08473
 Alpha virt. eigenvalues --    0.08744   0.09239   0.09473   0.09709   0.10431
 Alpha virt. eigenvalues --    0.10892   0.10980   0.11510   0.11924   0.12383

  Beta  occ. eigenvalues --  -88.73835 -19.05219 -18.98133 -18.96112 -14.21750
  Beta  occ. eigenvalues --  -10.16150 -10.14414 -10.12953 -10.10190 -10.10064
  Beta  occ. eigenvalues --  -10.08917 -10.07552 -10.07394 -10.06900 -10.06766
  Beta  occ. eigenvalues --  -10.06532 -10.06510 -10.06321  -7.82408  -5.78790
  Beta  occ. eigenvalues --   -5.78451  -5.77791  -0.99256  -0.91180  -0.89720
  Beta  occ. eigenvalues --   -0.80712  -0.75785  -0.70842  -0.67474  -0.64203
  Beta  occ. eigenvalues --   -0.63603  -0.63061  -0.58793  -0.54141  -0.52418
  Beta  occ. eigenvalues --   -0.50565  -0.50138  -0.46638  -0.45657  -0.40827
  Beta  occ. eigenvalues --   -0.38860  -0.38440  -0.37644  -0.36759  -0.35781
  Beta  occ. eigenvalues --   -0.35302  -0.34936  -0.33861  -0.33291  -0.32286
  Beta  occ. eigenvalues --   -0.31764  -0.31272  -0.29800  -0.29660  -0.28757
  Beta  occ. eigenvalues --   -0.27740  -0.26558  -0.26465  -0.25507  -0.25185
  Beta  occ. eigenvalues --   -0.24935  -0.23665  -0.23169  -0.21241  -0.19075
  Beta  occ. eigenvalues --   -0.18366  -0.15198  -0.14948  -0.13589  -0.12477
  Beta  occ. eigenvalues --   -0.11912
  Beta virt. eigenvalues --    0.06458   0.06820   0.07281   0.08120   0.08624
  Beta virt. eigenvalues --    0.08723   0.09323   0.09460   0.09759   0.09811
  Beta virt. eigenvalues --    0.10452   0.10845   0.10953   0.11477   0.11890

 Mulliken charges and spin densities:
               1          2
     1  C   -0.570077  -0.017312
     2  C    0.098540  -0.449776
     3  S   -0.402586   0.141898
     4  C    1.679818  -0.117032
     5  C   -0.652001   0.092250
     6  C   -0.483096   0.106645
     7  C    0.859522   0.300139
     8  C   -0.626691  -0.114141
     9  C   -0.787012  -0.093265
    10  C   -0.333263  -0.242603
    11  C   -0.119365  -0.350158
    12  N   -0.144617   0.037316
    13  C   -0.084172   0.094922
    14  O   -0.359608   0.061755
    15  C   -0.107824   0.176701
    16  O   -0.319448   0.088922
    17  O   -0.042059  -0.000450
    18  C   -0.167418  -0.056332
    19  H    0.138757  -0.010605
    20  H    0.074292   0.041843
    21  H    0.163134   0.001817
    22  H   -0.289677   0.475725
    23  H    0.167115  -0.001195
    24  H    0.159129   0.001169
    25  H    0.169208   0.026009
    26  H   -0.104134   0.245165
    27  H    0.158472   0.016051
    28  H    0.173101   0.044147
    29  H   -0.102557   0.252043
    30  H    0.052955   0.153134
    31  H    0.130312   0.034898
    32  H    0.276509   0.004741
    33  H    0.161726   0.005549
    34  H    0.109277   0.045938
    35  H    0.123741   0.004087
 Sum of Mulliken charges =  -1.00000   1.00000

 Dipole moment (field-independent basis, Debye):
    X=              0.4848    Y=             -2.5886    Z=              1.0657  Tot=              2.8410
 Quadrupole moment (field-independent basis, Debye-Ang):
   XX=           -197.6202   YY=           -146.9800   ZZ=           -130.0321
   XY=              2.8598   XZ=              1.1234   YZ=              7.6063

 Summary of Natural Population Analysis:

                                       Natural Population
                Natural  -----------------------------------------------
    Atom  No    Charge         Core      Valence    Rydberg      Total
 -----------------------------------------------------------------------
      C    1   -0.29392      0.99966     2.28762    0.00665     3.29392
      C    2   -0.24377      0.99961     2.23242    0.01174     3.24377
      S    3    0.09637      4.99956     2.88370    0.02037     7.90363
      C    4   -0.08699      0.99940     2.07464    0.01295     3.08699
      C    5   -0.08266      0.99949     2.07295    0.01021     3.08266
      C    6   -0.10779      0.99951     2.09909    0.00919     3.10779
      C    7    0.00327      0.99951     1.98723    0.01000     2.99673
      C    8   -0.09606      0.99951     2.08680    0.00975     3.09606
      C    9   -0.10626      0.99950     2.09571    0.01105     3.10626
      C   10   -0.20717      0.99959     2.19820    0.00938     3.20717
      C   11   -0.08270      0.99961     2.07135    0.01174     3.08270
      N   12   -0.31245      0.99968     2.80322    0.00956     3.81245
      C   13    0.31696      0.99965     1.66026    0.02314     2.68304
      O   14   -0.29991      0.99988     3.29395    0.00608     4.29991
      C   15    0.39881      0.99969     1.57661    0.02489     2.60119
      O   16   -0.29411      0.99988     3.28824    0.00600     4.29411
      O   17   -0.26349      0.99986     3.25493    0.00870     4.26349
      C   18   -0.10668      0.99961     2.09858    0.00849     3.10668
      H   19    0.09807      0.00000     0.40091    0.00101     0.40193
      H   20    0.09595      0.00000     0.40309    0.00096     0.40405
      H   21    0.10540      0.00000     0.39379    0.00081     0.39460
      H   22    0.10170      0.00000     0.39613    0.00217     0.39830
      H   23    0.09788      0.00000     0.40108    0.00104     0.40212
      H   24    0.09950      0.00000     0.39945    0.00105     0.40050
      H   25    0.10447      0.00000     0.39450    0.00103     0.39553
      H   26    0.09727      0.00000     0.40170    0.00103     0.40273
      H   27    0.10132      0.00000     0.39764    0.00104     0.39868
      H   28    0.11338      0.00000     0.38516    0.00146     0.38662
      H   29    0.10097      0.00000     0.39754    0.00148     0.39903
      H   30    0.10711      0.00000     0.39136    0.00153     0.39289
      H   31    0.09041      0.00000     0.40853    0.00106     0.40959
      H   32    0.19276      0.00000     0.30492    0.00232     0.30724
      H   33    0.08850      0.00000     0.41036    0.00113     0.41150
      H   34    0.08806      0.00000     0.41025    0.00170     0.41194
      H   35    0.08578      0.00000     0.41342    0.00080     0.41422
 =======================================================================
   * Total *   -0.00000     21.99317    48.77531    0.23152    71.00000

 Normal termination of Gaussian 16 at Fri Dec 11 23:25:10 2020.
