 Gaussian 16, Revision A.03,

 -----------------------------------------------------------
 # opt freq B3LYP/6-31G(d) empiricaldispersion=gd3bj scf=xqc
 -----------------------------------------------------------

 -------------------------------
 CID_88386389_JID_10106_neutraal
 -------------------------------
 Symbolic Z-matrix:
 Charge =  0 Multiplicity = 1

 SCF Done:  E(RB3LYP) =  -827.365338901     A.U. after   14 cycles
 SCF Done:  E(RB3LYP) =  -827.367805469     A.U. after   12 cycles
 SCF Done:  E(RB3LYP) =  -827.368063424     A.U. after   12 cycles
 SCF Done:  E(RB3LYP) =  -827.368251668     A.U. after   11 cycles
 SCF Done:  E(RB3LYP) =  -827.368370298     A.U. after   12 cycles
 SCF Done:  E(RB3LYP) =  -827.368449317     A.U. after   10 cycles
 SCF Done:  E(RB3LYP) =  -827.368486133     A.U. after   10 cycles
 SCF Done:  E(RB3LYP) =  -827.368492368     A.U. after   10 cycles
 SCF Done:  E(RB3LYP) =  -827.368493883     A.U. after    8 cycles
 SCF Done:  E(RB3LYP) =  -827.368493982     A.U. after    7 cycles
 SCF Done:  E(RB3LYP) =  -827.368493990     A.U. after    7 cycles
 Optimization completed.
    -- Stationary point found.
 Normal termination of Gaussian 16 at Sun Dec 13 12:38:18 2020.

 --------------------------------------------------------------------
 #N Geom=AllCheck Guess=TCheck SCRF=Check GenChk RB3LYP/6-31G(d) Freq
 --------------------------------------------------------------------

 Structure from the checkpoint file:  "JID_10106.chk"
 -------------------------------
 CID_88386389_JID_10106_neutraal
 -------------------------------
 Charge =  0 Multiplicity = 1

 SCF Done:  E(RB3LYP) =  -827.368493990     A.U. after    1 cycles

  Exact polarizability: 234.403   0.467 155.750   7.186   2.721 178.588
 Approx polarizability: 309.951   1.783 224.034  16.908   8.178 328.133

                      1                      2                      3
                      A                      A                      A
 Frequencies --     29.8999                31.9065                42.4744
 Red. masses --      3.9312                 4.4147                 4.8606
 Frc consts  --      0.0021                 0.0026                 0.0052
 IR Inten    --      0.0052                 0.0137                 0.0253

                      4                      5                      6
                      A                      A                      A
 Frequencies --     47.7939                87.4751               102.5045
 Red. masses --      4.3402                 4.2432                 3.6254
 Frc consts  --      0.0058                 0.0191                 0.0224
 IR Inten    --      0.0264                 0.2784                 0.0434

                      7                      8                      9
                      A                      A                      A
 Frequencies --    136.4476               177.4504               222.7591
 Red. masses --      3.7134                 3.5098                 5.0983
 Frc consts  --      0.0407                 0.0651                 0.1491
 IR Inten    --      0.0325                 0.5631                 0.4238

                     10                     11                     12
                      A                      A                      A
 Frequencies --    238.9551               252.9360               279.1179
 Red. masses --      3.7592                 4.5019                 4.6127
 Frc consts  --      0.1265                 0.1697                 0.2117
 IR Inten    --      0.3647                 0.1139                 0.4342

                     13                     14                     15
                      A                      A                      A
 Frequencies --    293.3728               315.4192               342.8204
 Red. masses --      3.3439                 4.4733                 4.1335
 Frc consts  --      0.1696                 0.2622                 0.2862
 IR Inten    --      0.2301                 4.0049                 3.2330

                     16                     17                     18
                      A                      A                      A
 Frequencies --    374.9569               417.1323               417.9630
 Red. masses --      1.6143                 2.9941                 2.9876
 Frc consts  --      0.1337                 0.3069                 0.3075
 IR Inten    --     42.4205                 0.0527                 0.1854

                     19                     20                     21
                      A                      A                      A
 Frequencies --    437.2011               464.5710               483.6699
 Red. masses --      1.6390                 3.6338                 2.4398
 Frc consts  --      0.1846                 0.4621                 0.3363
 IR Inten    --     60.0523                 2.6621                 1.5863

                     22                     23                     24
                      A                      A                      A
 Frequencies --    526.7455               561.7492               600.5873
 Red. masses --      3.2850                 3.1652                 4.3101
 Frc consts  --      0.5370                 0.5885                 0.9160
 IR Inten    --      7.7041                12.6946                 8.9655

                     25                     26                     27
                      A                      A                      A
 Frequencies --    612.5023               637.3968               638.1197
 Red. masses --      5.1765                 6.3119                 6.2899
 Frc consts  --      1.1442                 1.5109                 1.5090
 IR Inten    --      6.8526                 0.3536                 0.2516

                     28                     29                     30
                      A                      A                      A
 Frequencies --    665.7513               692.6195               713.0478
 Red. masses --      4.6468                 3.6397                 1.7747
 Frc consts  --      1.2135                 1.0287                 0.5316
 IR Inten    --      5.2247                 3.9540                25.5370

                     31                     32                     33
                      A                      A                      A
 Frequencies --    715.9301               763.5162               777.0638
 Red. masses --      1.7761                 2.1929                 2.0467
 Frc consts  --      0.5364                 0.7532                 0.7281
 IR Inten    --     24.7661                21.9191                23.1068

                     34                     35                     36
                      A                      A                      A
 Frequencies --    786.5232               822.9438               831.5217
 Red. masses --      2.2231                 3.2288                 2.5825
 Frc consts  --      0.8103                 1.2883                 1.0520
 IR Inten    --      1.4819                 0.1955                 0.8001

                     37                     38                     39
                      A                      A                      A
 Frequencies --    855.5583               858.4807               900.0461
 Red. masses --      1.2499                 1.2474                 2.5614
 Frc consts  --      0.5390                 0.5416                 1.2225
 IR Inten    --      0.0342                 0.0190                 8.3440

                     40                     41                     42
                      A                      A                      A
 Frequencies --    914.4720               919.6678               929.3290
 Red. masses --      1.7540                 1.4411                 1.6497
 Frc consts  --      0.8642                 0.7182                 0.8395
 IR Inten    --      5.9848                 2.4034                 0.3037

                     43                     44                     45
                      A                      A                      A
 Frequencies --    961.6652               964.3658               968.2063
 Red. masses --      1.3516                 1.3509                 5.3389
 Frc consts  --      0.7364                 0.7402                 2.9487
 IR Inten    --      0.0838                 0.0452               137.2333

                     46                     47                     48
                      A                      A                      A
 Frequencies --    983.7959               989.7645               992.9560
 Red. masses --      2.1727                 1.2451                 1.2527
 Frc consts  --      1.2390                 0.7187                 0.7277
 IR Inten    --     12.6578                 0.3661                 0.8820

                     49                     50                     51
                      A                      A                      A
 Frequencies --   1013.6481              1022.0069              1023.4672
 Red. masses --      2.5038                 6.1618                 6.1594
 Frc consts  --      1.5157                 3.7919                 3.8014
 IR Inten    --     13.2528                 1.1463                 0.3932

                     52                     53                     54
                      A                      A                      A
 Frequencies --   1059.1029              1062.8350              1064.9682
 Red. masses --      2.8988                 2.1826                 2.2942
 Frc consts  --      1.9158                 1.4526                 1.5331
 IR Inten    --     10.4108                 2.3204                12.6037

                     55                     56                     57
                      A                      A                      A
 Frequencies --   1091.0397              1105.8230              1111.5944
 Red. masses --      2.1034                 2.6149                 1.5888
 Frc consts  --      1.4752                 1.8840                 1.1567
 IR Inten    --      3.5352                 6.5972                 0.1221

                     58                     59                     60
                      A                      A                      A
 Frequencies --   1124.7785              1154.4036              1192.3450
 Red. masses --      1.7186                 1.3025                 1.6818
 Frc consts  --      1.2810                 1.0227                 1.4088
 IR Inten    --      6.9240                 1.2478                 7.3792

                     61                     62                     63
                      A                      A                      A
 Frequencies --   1193.6532              1194.0425              1217.4266
 Red. masses --      1.1297                 1.1891                 1.1353
 Frc consts  --      0.9483                 0.9989                 0.9914
 IR Inten    --      0.7406                 2.0984                 0.5325

                     64                     65                     66
                      A                      A                      A
 Frequencies --   1218.1564              1227.8049              1241.1630
 Red. masses --      1.1367                 1.9909                 2.0903
 Frc consts  --      0.9938                 1.7683                 1.8972
 IR Inten    --      0.1937                 1.0847                 0.5019

                     67                     68                     69
                      A                      A                      A
 Frequencies --   1255.3014              1280.4743              1298.3142
 Red. masses --      1.6788                 1.4637                 1.3640
 Frc consts  --      1.5586                 1.4139                 1.3547
 IR Inten    --     24.1876                12.3511                 1.2733

                     70                     71                     72
                      A                      A                      A
 Frequencies --   1322.6552              1341.2335              1352.3192
 Red. masses --      1.9872                 1.4495                 1.8225
 Frc consts  --      2.0482                 1.5363                 1.9637
 IR Inten    --      3.7848                 1.6581                 2.4034

                     73                     74                     75
                      A                      A                      A
 Frequencies --   1367.1688              1369.0006              1372.6584
 Red. masses --      1.5702                 2.0364                 2.0043
 Frc consts  --      1.7293                 2.2486                 2.2251
 IR Inten    --      0.2959                 0.8435                 0.1558

                     76                     77                     78
                      A                      A                      A
 Frequencies --   1373.9454              1389.4019              1405.8843
 Red. masses --      1.4075                 1.3753                 1.5390
 Frc consts  --      1.5655                 1.5643                 1.7922
 IR Inten    --      0.1045                 2.9534                 3.1055

                     79                     80                     81
                      A                      A                      A
 Frequencies --   1416.9789              1424.3089              1504.7470
 Red. masses --      1.4915                 1.4590                 1.9283
 Frc consts  --      1.7644                 1.7439                 2.5725
 IR Inten    --     16.6876                38.8883                11.3785

                     82                     83                     84
                      A                      A                      A
 Frequencies --   1505.1040              1510.9674              1512.6164
 Red. masses --      2.1225                 1.1626                 1.0980
 Frc consts  --      2.8330                 1.5638                 1.4801
 IR Inten    --      0.8938                 1.9437                 6.3074

                     85                     86                     87
                      A                      A                      A
 Frequencies --   1525.7438              1548.9096              1550.2221
 Red. masses --      1.1062                 2.2131                 2.2399
 Frc consts  --      1.5172                 3.1282                 3.1715
 IR Inten    --      3.0168                16.6637                 8.4208

                     88                     89                     90
                      A                      A                      A
 Frequencies --   1646.6319              1648.4763              1668.1258
 Red. masses --      5.4417                 5.5053                 5.6256
 Frc consts  --      8.6932                 8.8146                 9.2232
 IR Inten    --      1.2130                 1.2067                10.2413

                     91                     92                     93
                      A                      A                      A
 Frequencies --   1669.6960              1744.1005              2998.6314
 Red. masses --      5.6420                 7.6079                 1.0818
 Frc consts  --      9.2675                13.6350                 5.7310
 IR Inten    --      3.7191                 5.4953                10.2944

                     94                     95                     96
                      A                      A                      A
 Frequencies --   3011.9415              3024.7019              3049.6703
 Red. masses --      1.0825                 1.0728                 1.0606
 Frc consts  --      5.7858                 5.7825                 5.8118
 IR Inten    --     14.9549                20.1296                28.8559

                     97                     98                     99
                      A                      A                      A
 Frequencies --   3056.8353              3093.2769              3101.5136
 Red. masses --      1.0608                 1.1033                 1.1038
 Frc consts  --      5.8402                 6.2197                 6.2558
 IR Inten    --     25.7381                33.1802                22.4541

                    100                    101                    102
                      A                      A                      A
 Frequencies --   3153.3711              3173.1493              3174.2959
 Red. masses --      1.0901                 1.0864                 1.0862
 Frc consts  --      6.3868                 6.4448                 6.4483
 IR Inten    --      6.5425                 8.7850                 9.8379

                    103                    104                    105
                      A                      A                      A
 Frequencies --   3179.9173              3182.4483              3189.9242
 Red. masses --      1.0861                 1.0866                 1.0899
 Frc consts  --      6.4709                 6.4838                 6.5341
 IR Inten    --      4.1416                 0.1477                11.3909

                    106                    107                    108
                      A                      A                      A
 Frequencies --   3192.9347              3198.0874              3204.2919
 Red. masses --      1.0910                 1.0940                 1.0941
 Frc consts  --      6.5535                 6.5922                 6.6188
 IR Inten    --     28.3995                43.1206                47.1599

                    109                    110                    111
                      A                      A                      A
 Frequencies --   3209.9071              3212.0743              3763.1720
 Red. masses --      1.0979                 1.0965                 1.0676
 Frc consts  --      6.6653                 6.6654                 8.9081
 IR Inten    --     24.3680                10.0591                66.5309

 - Thermochemistry -
 -------------------
 Temperature   298.150 Kelvin.  Pressure   1.00000 Atm.
 Atom     1 has atomic number  6 and mass  12.00000

 Molecular mass:   265.14666 amu.
 Principal axes and moments of inertia in atomic units:
                           1         2         3
     Eigenvalues --  3382.443919599.13300**********
           X            0.99998  -0.00588   0.00032
           Y            0.00588   0.99997  -0.00529
           Z           -0.00028   0.00529   0.99999
 This molecule is an asymmetric top.
 Rotational symmetry number  1.
 Warning -- assumption of classical behavior for rotation
           may cause significant error
 Rotational temperatures (Kelvin)      0.02561     0.00902     0.00759
 Rotational constants (GHZ):           0.53356     0.18801     0.15818
 Zero-point vibrational energy     868934.7 (Joules/Mol)
                                  207.68038 (Kcal/Mol)
 Warning -- explicit consideration of  25 degrees of freedom as
           vibrations may cause significant error
 Vibrational temperatures:     43.02    45.91    61.11    68.76   125.86
          (Kelvin)            147.48   196.32   255.31   320.50   343.80
                              363.92   401.59   422.10   453.82   493.24
                              539.48   600.16   601.36   629.03   668.41
                              695.89   757.87   808.23   864.11   881.25
                              917.07   918.11   957.87   996.52  1025.92
                             1030.06  1098.53  1118.02  1131.63  1184.03
                             1196.37  1230.96  1235.16  1294.97  1315.72
                             1323.20  1337.10  1383.62  1387.51  1393.03
                             1415.46  1424.05  1428.64  1458.41  1470.44
                             1472.54  1523.81  1529.18  1532.25  1569.76
                             1591.03  1599.34  1618.31  1660.93  1715.52
                             1717.40  1717.96  1751.61  1752.66  1766.54
                             1785.76  1806.10  1842.32  1867.98  1903.01
                             1929.74  1945.69  1967.05  1969.69  1974.95
                             1976.80  1999.04  2022.75  2038.72  2049.26
                             2165.00  2165.51  2173.95  2176.32  2195.21
                             2228.54  2230.42  2369.14  2371.79  2400.06
                             2402.32  2509.37  4314.36  4333.51  4351.87
                             4387.80  4398.10  4450.54  4462.39  4537.00
                             4565.45  4567.10  4575.19  4578.83  4589.59
                             4593.92  4601.33  4610.26  4618.34  4621.46
                             5414.37

 Zero-point correction=                           0.330960 (Hartree/Particle)
 Thermal correction to Energy=                    0.347824
 Thermal correction to Enthalpy=                  0.348768
 Thermal correction to Gibbs Free Energy=         0.284650
 Sum of electronic and zero-point Energies=           -827.037534
 Sum of electronic and thermal Energies=              -827.020670
 Sum of electronic and thermal Enthalpies=            -827.019726
 Sum of electronic and thermal Free Energies=         -827.083844

                     E (Thermal)             CV                S
                      KCal/Mol        Cal/Mol-Kelvin    Cal/Mol-Kelvin
 Total                  218.263             67.444            134.949
 Electronic               0.000              0.000              0.000
 Translational            0.889              2.981             42.625
 Rotational               0.889              2.981             34.270
 Vibrational            216.485             61.482             58.054
 Vibration     1          0.594              1.984              5.836
 Vibration     2          0.594              1.983              5.707
 Vibration     3          0.595              1.980              5.140
 Vibration     4          0.595              1.978              4.907
 Vibration     5          0.601              1.958              3.716
 Vibration     6          0.605              1.947              3.406
 Vibration     7          0.614              1.917              2.853
 Vibration     8          0.628              1.870              2.355
 Vibration     9          0.648              1.806              1.937
 Vibration    10          0.657              1.781              1.811
 Vibration    11          0.664              1.758              1.710
 Vibration    12          0.679              1.712              1.539
 Vibration    13          0.688              1.686              1.454
 Vibration    14          0.703              1.644              1.334
 Vibration    15          0.722              1.590              1.199
 Vibration    16          0.746              1.523              1.059
 Vibration    17          0.780              1.433              0.902
 Vibration    18          0.781              1.431              0.899
 Vibration    19          0.798              1.389              0.835
 Vibration    20          0.822              1.329              0.753
 Vibration    21          0.840              1.286              0.700
 Vibration    22          0.882              1.191              0.595
 Vibration    23          0.917              1.114              0.520
 Vibration    24          0.959              1.031              0.449
 Vibration    25          0.972              1.005              0.429

 Optimization completed.
    -- Stationary point found.
 Normal termination of Gaussian 16 at Sun Dec 13 13:01:26 2020.

 ----------------------------------------------------------------------
 # B3LYP/6-311++G(d,p) empiricaldispersion=gd3bj scf=xqc pop=npa geom=c
 heck
 ----------------------------------------------------------------------

 ---------------------------------------
 CID_88386389_JID_10106_Energie_neutraal
 ---------------------------------------
 Structure from the checkpoint file:  "JID_10106.chk"
 Charge =  0 Multiplicity = 1

 SCF Done:  E(RB3LYP) =  -827.591419536     A.U. after   14 cycles
 Normal termination of Gaussian 16 at Sun Dec 13 13:11:08 2020.

 ----------------------------------------------------------------------
 # B3LYP/6-311++G(d,p) empiricaldispersion=gd3bj scf=xqc pop=npa geom=c
 heck
 ----------------------------------------------------------------------

 -------------------------------------
 CID_88386389_JID_10106_Energie_kation
 -------------------------------------
 Structure from the checkpoint file:  "JID_10106.chk"
 Charge =  1 Multiplicity = 2

 SCF Done:  E(UB3LYP) =  -827.296693343     A.U. after   31 cycles
 Normal termination of Gaussian 16 at Sun Dec 13 13:42:20 2020.
 Gaussian 16:  ES64L-G16RevA.03 25-Dec-2016

 ----------------------------------------------------------------------
 # B3LYP/6-311++G(d,p) empiricaldispersion=gd3bj scf=xqc pop=npa geom=c
 heck
 ----------------------------------------------------------------------

 ------------------------------------
 CID_88386389_JID_10106_Energie_anion
 ------------------------------------
 Structure from the checkpoint file:  "JID_10106.chk"
 Charge = -1 Multiplicity = 2

                         Standard orientation:
 ---------------------------------------------------------------------
 Center     Atomic      Atomic             Coordinates (Angstroms)
 Number     Number       Type             X           Y           Z
 ---------------------------------------------------------------------
      1          6           0       -1.310698    1.924681   -0.144597
      2          6           0        0.007152    2.561592   -0.617895
      3          6           0        1.184683    1.695049   -0.246910
      4          7           0        2.220090    2.068358    0.405359
      5          8           0        2.172091    3.436614    0.757441
      6          6           0        1.099345    0.245912   -0.698592
      7          6           0       -0.244603   -0.362460   -0.224103
      8          6           0       -1.458989    0.480024   -0.655823
      9          6           0       -2.766125   -0.151574   -0.220770
     10          6           0       -3.066948   -0.334001    1.136242
     11          6           0       -4.269989   -0.916656    1.530811
     12          6           0       -5.197995   -1.329663    0.572867
     13          6           0       -4.911226   -1.154491   -0.780482
     14          6           0       -3.705019   -0.570380   -1.169583
     15          6           0        2.269812   -0.632558   -0.309075
     16          6           0        2.574039   -0.889436    1.034266
     17          6           0        3.619072   -1.743868    1.376199
     18          6           0        4.380742   -2.358767    0.379532
     19          6           0        4.088153   -2.109600   -0.960108
     20          6           0        3.038822   -1.252679   -1.297293
     21          1           0       -2.160454    2.529019   -0.481885
     22          1           0       -1.337051    1.926967    0.952562
     23          1           0       -0.016157    2.658552   -1.713668
     24          1           0        0.129930    3.562949   -0.204131
     25          1           0        3.012043    3.541641    1.229496
     26          1           0        1.056353    0.276351   -1.798678
     27          1           0       -0.229948   -0.450624    0.869152
     28          1           0       -0.333437   -1.380227   -0.619245
     29          1           0       -1.458541    0.518889   -1.755254
     30          1           0       -2.354186   -0.018241    1.893521
     31          1           0       -4.483473   -1.049043    2.588030
     32          1           0       -6.135700   -1.784127    0.879948
     33          1           0       -5.625356   -1.472177   -1.535386
     34          1           0       -3.486721   -0.436737   -2.226648
     35          1           0        1.998428   -0.402997    1.815274
     36          1           0        3.842730   -1.928805    2.423426
     37          1           0        5.195808   -3.025377    0.647363
     38          1           0        4.673580   -2.581169   -1.744734
     39          1           0        2.813431   -1.063006   -2.344291
 ---------------------------------------------------------------------

 SCF Done:  E(UB3LYP) =  -827.579759246     A.U. after   33 cycles
 SCF Done:  E(UB3LYP) =  -827.579759246     a.u. after    1 cycles

 The electronic state is 2-A.
 Alpha  occ. eigenvalues --  -19.06892 -14.25853 -10.11578 -10.09781 -10.09322
 Alpha  occ. eigenvalues --  -10.09245 -10.08854 -10.08848 -10.08809 -10.08764
 Alpha  occ. eigenvalues --  -10.08717 -10.08649 -10.08591 -10.08541 -10.08385
 Alpha  occ. eigenvalues --  -10.08380 -10.08270 -10.08200 -10.08154 -10.08152
 Alpha  occ. eigenvalues --   -0.98616  -0.79539  -0.77323  -0.76642  -0.73007
 Alpha  occ. eigenvalues --   -0.69138  -0.66785  -0.65910  -0.65885  -0.63823
 Alpha  occ. eigenvalues --   -0.60686  -0.54409  -0.52890  -0.52004  -0.51546
 Alpha  occ. eigenvalues --   -0.50491  -0.47966  -0.45452  -0.43497  -0.42354
 Alpha  occ. eigenvalues --   -0.41023  -0.39353  -0.37884  -0.37636  -0.36540
 Alpha  occ. eigenvalues --   -0.36050  -0.34592  -0.34472  -0.34046  -0.33355
 Alpha  occ. eigenvalues --   -0.33210  -0.32557  -0.31548  -0.30785  -0.29257
 Alpha  occ. eigenvalues --   -0.28736  -0.27922  -0.26909  -0.26725  -0.26651
 Alpha  occ. eigenvalues --   -0.26188  -0.25075  -0.24176  -0.23590  -0.22854
 Alpha  occ. eigenvalues --   -0.18190  -0.16789  -0.16708  -0.16472  -0.16087
 Alpha  occ. eigenvalues --   -0.15367   0.03975
 Alpha virt. eigenvalues --    0.05582   0.05979   0.06233   0.06948   0.07163
 Alpha virt. eigenvalues --    0.07255   0.07371   0.07471   0.07848   0.08175
 Alpha virt. eigenvalues --    0.08352   0.09025   0.09330   0.10252   0.10510

  Beta  occ. eigenvalues --  -19.06873 -14.25767 -10.11556 -10.09774 -10.09323
  Beta  occ. eigenvalues --  -10.09246 -10.08840 -10.08838 -10.08803 -10.08758
  Beta  occ. eigenvalues --  -10.08710 -10.08638 -10.08581 -10.08532 -10.08381
  Beta  occ. eigenvalues --  -10.08366 -10.08254 -10.08188 -10.08143 -10.08140
  Beta  occ. eigenvalues --   -0.98543  -0.79475  -0.77302  -0.76612  -0.72962
  Beta  occ. eigenvalues --   -0.69117  -0.66747  -0.65891  -0.65861  -0.63801
  Beta  occ. eigenvalues --   -0.60633  -0.54379  -0.52852  -0.51978  -0.51505
  Beta  occ. eigenvalues --   -0.50462  -0.47926  -0.45404  -0.43460  -0.42310
  Beta  occ. eigenvalues --   -0.40965  -0.39306  -0.37853  -0.37601  -0.36509
  Beta  occ. eigenvalues --   -0.36015  -0.34546  -0.34443  -0.33989  -0.33322
  Beta  occ. eigenvalues --   -0.33183  -0.32526  -0.31460  -0.30766  -0.29156
  Beta  occ. eigenvalues --   -0.28704  -0.27903  -0.26892  -0.26696  -0.26628
  Beta  occ. eigenvalues --   -0.26153  -0.25047  -0.24132  -0.23558  -0.22826
  Beta  occ. eigenvalues --   -0.18110  -0.16776  -0.16668  -0.16389  -0.15992
  Beta  occ. eigenvalues --   -0.15326
  Beta virt. eigenvalues --    0.05737   0.06124   0.06499   0.06851   0.07034
  Beta virt. eigenvalues --    0.07214   0.07421   0.07599   0.07747   0.07897
  Beta virt. eigenvalues --    0.08499   0.08759   0.09466   0.09762   0.10499

 Mulliken charges and spin densities:
               1          2
     1  C   -0.002611  -0.284829
     2  C    0.690903  -1.357801
     3  C   -0.897826   0.827894
     4  N   -0.399765   0.065454
     5  O    0.034571  -0.006373
     6  C    1.290173  -1.038972
     7  C    0.600615  -1.808881
     8  C    0.093935  -0.047447
     9  C    0.407259   0.290150
    10  C   -0.847577   0.385927
    11  C   -0.592564   0.479487
    12  C    1.033882  -1.305175
    13  C    0.046001  -0.425661
    14  C   -0.206420   0.256444
    15  C    0.435563   0.200182
    16  C   -0.834494   0.526606
    17  C   -0.573193   0.393263
    18  C    0.427894  -0.691165
    19  C   -0.044390  -0.349521
    20  C   -0.120547   0.044575
    21  H    0.020456   0.177045
    22  H    0.023501   0.110623
    23  H   -0.336852   0.510822
    24  H    0.252419  -0.050274
    25  H    0.148565   0.121423
    26  H   -0.137921   0.337565
    27  H    0.171920  -0.088800
    28  H    0.262152  -0.048395
    29  H   -0.048814   0.265941
    30  H    0.058790   0.075872
    31  H   -0.258712   0.427541
    32  H   -0.124983   0.269017
    33  H   -0.367220   0.543658
    34  H   -0.571576   0.743233
    35  H    0.059805   0.125536
    36  H   -0.100214   0.254876
    37  H   -0.029651   0.172606
    38  H   -0.148719   0.319140
    39  H   -0.414354   0.578415
 Sum of Mulliken charges =  -1.00000   1.00000

 Dipole moment (field-independent basis, Debye):
    X=              2.8706    Y=              0.7981    Z=              4.2202  Tot=              5.1659
 Quadrupole moment (field-independent basis, Debye-Ang):
   XX=           -212.7510   YY=           -163.1905   ZZ=           -162.0436
   XY=             -2.2790   XZ=             -1.6243   YZ=              2.0761

 Summary of Natural Population Analysis:

                                       Natural Population
                Natural  -----------------------------------------------
    Atom  No    Charge         Core      Valence    Rydberg      Total
 -----------------------------------------------------------------------
      C    1   -0.17890      0.99961     2.17049    0.00880     3.17890
      C    2   -0.22086      0.99958     2.21223    0.00905     3.22086
      C    3    0.13166      0.99958     1.85094    0.01782     2.86834
      N    4   -0.08061      0.99957     2.56738    0.01365     3.58061
      O    5   -0.29216      0.99990     3.28634    0.00592     4.29216
      C    6   -0.13230      0.99952     2.12021    0.01258     3.13230
      C    7   -0.17465      0.99960     2.16602    0.00903     3.17465
      C    8   -0.11911      0.99956     2.10736    0.01220     3.11911
      C    9   -0.00829      0.99950     1.99622    0.01258     3.00829
      C   10   -0.10144      0.99950     2.09396    0.00797     3.10144
      C   11   -0.09963      0.99956     2.09026    0.00981     3.09963
      C   12   -0.10633      0.99956     2.09706    0.00970     3.10633
      C   13   -0.09811      0.99956     2.08819    0.01035     3.09811
      C   14   -0.09719      0.99951     2.08722    0.01046     3.09719
      C   15   -0.00455      0.99950     1.99221    0.01284     3.00455
      C   16   -0.09054      0.99950     2.08282    0.00822     3.09054
      C   17   -0.10229      0.99956     2.09312    0.00961     3.10229
      C   18   -0.10797      0.99956     2.09862    0.00979     3.10797
      C   19   -0.10050      0.99956     2.09158    0.00936     3.10050
      C   20   -0.09688      0.99950     2.08749    0.00989     3.09688
      H   21    0.10383      0.00000     0.39530    0.00087     0.39617
      H   22    0.09536      0.00000     0.40308    0.00156     0.40464
      H   23    0.10889      0.00000     0.38918    0.00194     0.39111
      H   24    0.11618      0.00000     0.38247    0.00135     0.38382
      H   25    0.23253      0.00000     0.26435    0.00312     0.26747
      H   26    0.10908      0.00000     0.38812    0.00280     0.39092
      H   27    0.09676      0.00000     0.40160    0.00164     0.40324
      H   28    0.10665      0.00000     0.39244    0.00091     0.39335
      H   29    0.10191      0.00000     0.39496    0.00313     0.39809
      H   30    0.10009      0.00000     0.39853    0.00139     0.39991
      H   31    0.09961      0.00000     0.39948    0.00091     0.40039
      H   32    0.10052      0.00000     0.39843    0.00105     0.39948
      H   33    0.10175      0.00000     0.39708    0.00117     0.39825
      H   34    0.10422      0.00000     0.39412    0.00165     0.39578
      H   35    0.10321      0.00000     0.39526    0.00153     0.39679
      H   36    0.09877      0.00000     0.40039    0.00084     0.40123
      H   37    0.09890      0.00000     0.40029    0.00082     0.40110
      H   38    0.10019      0.00000     0.39893    0.00089     0.39981
      H   39    0.10221      0.00000     0.39612    0.00167     0.39779
 =======================================================================
   * Total *   -0.00000     19.99130    50.76983    0.23887    71.00000

 Normal termination of Gaussian 16 at Sun Dec 13 14:15:12 2020.
