 Gaussian 16, Revision A.03,

 -----------------------------------------------------------
 # opt freq B3LYP/6-31G(d) empiricaldispersion=gd3bj scf=xqc
 -----------------------------------------------------------

 ------------------------------
 CID_67053795_JID_4679_neutraal
 ------------------------------
 Symbolic Z-matrix:
 Charge =  0 Multiplicity = 1

 SCF Done:  E(RB3LYP) =  -581.512209697     A.U. after   14 cycles
 SCF Done:  E(RB3LYP) =  -581.515080216     A.U. after   12 cycles
 SCF Done:  E(RB3LYP) =  -581.515346544     A.U. after   11 cycles
 SCF Done:  E(RB3LYP) =  -581.515466216     A.U. after   11 cycles
 SCF Done:  E(RB3LYP) =  -581.515555895     A.U. after   10 cycles
 SCF Done:  E(RB3LYP) =  -581.515559809     A.U. after    8 cycles
 SCF Done:  E(RB3LYP) =  -581.515560040     A.U. after    7 cycles
 SCF Done:  E(RB3LYP) =  -581.515560087     A.U. after    6 cycles
 Optimization completed.
    -- Stationary point found.
 Normal termination of Gaussian 16 at Thu Dec 10 10:20:15 2020.

 --------------------------------------------------------------------
 #N Geom=AllCheck Guess=TCheck SCRF=Check GenChk RB3LYP/6-31G(d) Freq
 --------------------------------------------------------------------

 Structure from the checkpoint file:  "JID_4679.chk"
 ------------------------------
 CID_67053795_JID_4679_neutraal
 ------------------------------
 Charge =  0 Multiplicity = 1

 SCF Done:  E(RB3LYP) =  -581.515560087     A.U. after    1 cycles

  Exact polarizability: 170.982   2.340 141.907   3.907   6.605  89.332
 Approx polarizability: 246.891   0.001 219.276   9.842  16.572 137.621

                      1                      2                      3
                      A                      A                      A
 Frequencies --     75.9182                95.7371               154.4504
 Red. masses --      3.9022                 3.4469                 2.5318
 Frc consts  --      0.0133                 0.0186                 0.0356
 IR Inten    --      0.0994                 1.1212                 0.3615

                      4                      5                      6
                      A                      A                      A
 Frequencies --    219.3539               229.2305               239.6838
 Red. masses --      1.2877                 2.6931                 3.7220
 Frc consts  --      0.0365                 0.0834                 0.1260
 IR Inten    --      0.6759                 1.8439                 0.8059

                      7                      8                      9
                      A                      A                      A
 Frequencies --    271.4679               289.0501               320.4488
 Red. masses --      2.7649                 2.2531                 3.3838
 Frc consts  --      0.1201                 0.1109                 0.2047
 IR Inten    --      1.1648                 1.7247                 1.0689

                     10                     11                     12
                      A                      A                      A
 Frequencies --    344.8585               349.6597               361.1266
 Red. masses --      2.1241                 2.1194                 1.1519
 Frc consts  --      0.1488                 0.1527                 0.0885
 IR Inten    --      4.6355                 1.2566               105.2925

                     13                     14                     15
                      A                      A                      A
 Frequencies --    371.5946               380.6692               427.7257
 Red. masses --      2.1707                 1.4055                 2.9496
 Frc consts  --      0.1766                 0.1200                 0.3179
 IR Inten    --      2.3632                 0.7352                 3.2460

                     16                     17                     18
                      A                      A                      A
 Frequencies --    444.4185               482.0958               494.9295
 Red. masses --      3.0614                 2.5203                 3.1417
 Frc consts  --      0.3563                 0.3451                 0.4534
 IR Inten    --      1.2096                 2.2694                 1.5951

                     19                     20                     21
                      A                      A                      A
 Frequencies --    523.4291               545.0439               590.9500
 Red. masses --      2.8028                 2.0605                 3.2058
 Frc consts  --      0.4524                 0.3606                 0.6596
 IR Inten    --      0.6672                 1.1279                 2.5773

                     22                     23                     24
                      A                      A                      A
 Frequencies --    639.4394               653.0868               739.9207
 Red. masses --      3.4971                 4.2820                 5.5351
 Frc consts  --      0.8425                 1.0761                 1.7854
 IR Inten    --      0.6042                 3.1824                 0.6393

                     25                     26                     27
                      A                      A                      A
 Frequencies --    758.2311               800.5804               810.5763
 Red. masses --      3.2239                 1.8566                 1.6156
 Frc consts  --      1.0920                 0.7011                 0.6254
 IR Inten    --      2.6993                 9.3042                14.0668

                     28                     29                     30
                      A                      A                      A
 Frequencies --    832.9100               876.2361               884.8824
 Red. masses --      2.5519                 1.4956                 1.9427
 Frc consts  --      1.0431                 0.6765                 0.8962
 IR Inten    --      0.4555                 6.3553                13.8098

                     31                     32                     33
                      A                      A                      A
 Frequencies --    899.7610               932.7738               944.2876
 Red. masses --      1.6513                 1.3097                 2.2354
 Frc consts  --      0.7876                 0.6714                 1.1744
 IR Inten    --      5.9954                 0.6863                 1.2066

                     34                     35                     36
                      A                      A                      A
 Frequencies --    955.8770               974.7664               997.7181
 Red. masses --      1.4993                 2.5374                 2.1850
 Frc consts  --      0.8071                 1.4205                 1.2815
 IR Inten    --      1.4485                 4.5945                20.3558

                     37                     38                     39
                      A                      A                      A
 Frequencies --   1037.8082              1043.5309              1079.3523
 Red. masses --      1.3793                 2.2073                 1.7402
 Frc consts  --      0.8753                 1.4162                 1.1945
 IR Inten    --      3.5450                10.5581                 1.3831

                     40                     41                     42
                      A                      A                      A
 Frequencies --   1103.2620              1122.0850              1145.4263
 Red. masses --      2.9810                 2.1069                 1.5689
 Frc consts  --      2.1378                 1.5629                 1.2128
 IR Inten    --      4.3779                 0.7745                 0.1295

                     43                     44                     45
                      A                      A                      A
 Frequencies --   1164.3866              1195.1407              1217.9372
 Red. masses --      1.7751                 1.7135                 1.3528
 Frc consts  --      1.4180                 1.4420                 1.1823
 IR Inten    --     24.9568                 7.7394                84.9776

                     46                     47                     48
                      A                      A                      A
 Frequencies --   1227.9889              1235.6458              1242.0972
 Red. masses --      1.3858                 1.5368                 2.3313
 Frc consts  --      1.2312                 1.3824                 2.1191
 IR Inten    --     15.7641                60.9014                 4.4944

                     49                     50                     51
                      A                      A                      A
 Frequencies --   1285.3220              1297.1552              1306.7172
 Red. masses --      1.7562                 1.3823                 2.3501
 Frc consts  --      1.7094                 1.3704                 2.3642
 IR Inten    --      3.9573                 2.1986                56.8766

                     52                     53                     54
                      A                      A                      A
 Frequencies --   1340.5898              1345.0495              1368.3769
 Red. masses --      1.9155                 1.9907                 1.8175
 Frc consts  --      2.0283                 2.1220                 2.0051
 IR Inten    --     58.7726                 0.9286                 4.2542

                     55                     56                     57
                      A                      A                      A
 Frequencies --   1396.7023              1400.8476              1409.6835
 Red. masses --      1.5381                 1.3385                 1.4229
 Frc consts  --      1.7678                 1.5476                 1.6659
 IR Inten    --     10.6873                 4.1702                12.9292

                     58                     59                     60
                      A                      A                      A
 Frequencies --   1425.2606              1425.9318              1451.2082
 Red. masses --      1.2671                 1.3975                 1.2238
 Frc consts  --      1.5166                 1.6742                 1.5186
 IR Inten    --      5.1067                 5.6718                 8.1587

                     61                     62                     63
                      A                      A                      A
 Frequencies --   1492.1483              1506.0284              1512.3095
 Red. masses --      2.6773                 1.0916                 1.1141
 Frc consts  --      3.5121                 1.4588                 1.5013
 IR Inten    --     10.5342                 1.5204                 0.7811

                     64                     65                     66
                      A                      A                      A
 Frequencies --   1515.1640              1521.2892              1528.0315
 Red. masses --      1.0786                 1.0952                 1.0970
 Frc consts  --      1.4589                 1.4933                 1.5091
 IR Inten    --      1.8352                 4.1208                 3.7482

                     67                     68                     69
                      A                      A                      A
 Frequencies --   1534.5196              1544.1959              1552.0186
 Red. masses --      1.1623                 1.0593                 1.0640
 Frc consts  --      1.6125                 1.4882                 1.5100
 IR Inten    --     14.7523                 5.1226                10.1555

                     70                     71                     72
                      A                      A                      A
 Frequencies --   1554.5594              1642.4170              1680.8496
 Red. masses --      2.0766                 6.0199                 5.8497
 Frc consts  --      2.9568                 9.5677                 9.7373
 IR Inten    --     47.0298                73.3270                53.8839

                     73                     74                     75
                      A                      A                      A
 Frequencies --   3022.9229              3029.6269              3033.9443
 Red. masses --      1.0606                 1.0603                 1.0645
 Frc consts  --      5.7101                 5.7341                 5.7730
 IR Inten    --     16.6161                21.4120                33.3383

                     76                     77                     78
                      A                      A                      A
 Frequencies --   3045.3057              3048.4837              3053.5976
 Red. masses --      1.0561                 1.0463                 1.0443
 Frc consts  --      5.7708                 5.7290                 5.7370
 IR Inten    --      5.1652                31.6155                31.5460

                     79                     80                     81
                      A                      A                      A
 Frequencies --   3059.8818              3066.0372              3077.5329
 Red. masses --      1.0968                 1.1014                 1.0997
 Frc consts  --      6.0506                 6.1004                 6.1367
 IR Inten    --     58.4836                30.1540                84.7356

                     82                     83                     84
                      A                      A                      A
 Frequencies --   3086.7480              3110.1491              3118.5262
 Red. masses --      1.0997                 1.1005                 1.1019
 Frc consts  --      6.1736                 6.2721                 6.3137
 IR Inten    --     45.4866                 8.3228                53.6135

                     85                     86                     87
                      A                      A                      A
 Frequencies --   3121.6453              3162.5958              3167.3449
 Red. masses --      1.1021                 1.0941                 1.0901
 Frc consts  --      6.3275                 6.4478                 6.4431
 IR Inten    --     45.9148                25.6526                24.3628

                     88                     89                     90
                      A                      A                      A
 Frequencies --   3200.6746              3242.5944              3750.9623
 Red. masses --      1.0901                 1.0891                 1.0659
 Frc consts  --      6.5795                 6.7467                 8.8358
 IR Inten    --     10.8070                10.5566                42.6366

 - Thermochemistry -
 -------------------
 Temperature   298.150 Kelvin.  Pressure   1.00000 Atm.
 Atom     1 has atomic number  6 and mass  12.00000

 Molecular mass:   190.13577 amu.
 Principal axes and moments of inertia in atomic units:
                           1         2         3
     Eigenvalues --  1601.719523403.311174437.75621
           X            0.99999   0.00378   0.00217
           Y           -0.00379   0.99999   0.00353
           Z           -0.00215  -0.00354   0.99999
 This molecule is an asymmetric top.
 Rotational symmetry number  1.
 Warning -- assumption of classical behavior for rotation
           may cause significant error
 Rotational temperatures (Kelvin)      0.05408     0.02545     0.01952
 Rotational constants (GHZ):           1.12675     0.53029     0.40668
 Zero-point vibrational energy     748638.0 (Joules/Mol)
                                  178.92878 (Kcal/Mol)
 Warning -- explicit consideration of  21 degrees of freedom as
           vibrations may cause significant error
 Vibrational temperatures:    109.23   137.74   222.22   315.60   329.81
          (Kelvin)            344.85   390.58   415.88   461.05   496.17
                              503.08   519.58   534.64   547.70   615.40
                              639.42   693.63   712.09   753.10   784.20
                              850.25   920.01   939.65  1064.58  1090.93
                             1151.86  1166.24  1198.37  1260.71  1273.15
                             1294.56  1342.05  1358.62  1375.29  1402.47
                             1435.49  1493.17  1501.41  1552.95  1587.35
                             1614.43  1648.01  1675.29  1719.54  1752.34
                             1766.80  1777.82  1787.10  1849.29  1866.32
                             1880.07  1928.81  1935.23  1968.79  2009.54
                             2015.51  2028.22  2050.63  2051.60  2087.96
                             2146.87  2166.84  2175.88  2179.98  2188.80
                             2198.50  2207.83  2221.75  2233.01  2236.66
                             2363.07  2418.37  4349.31  4358.96  4365.17
                             4381.52  4386.09  4393.45  4402.49  4411.34
                             4427.88  4441.14  4474.81  4486.86  4491.35
                             4550.27  4557.10  4605.06  4665.37  5396.80

 Zero-point correction=                           0.285141 (Hartree/Particle)
 Thermal correction to Energy=                    0.297772
 Thermal correction to Enthalpy=                  0.298716
 Thermal correction to Gibbs Free Energy=         0.247653
 Sum of electronic and zero-point Energies=           -581.230419
 Sum of electronic and thermal Energies=              -581.217789
 Sum of electronic and thermal Enthalpies=            -581.216844
 Sum of electronic and thermal Free Energies=         -581.267907

                     E (Thermal)             CV                S
                      KCal/Mol        Cal/Mol-Kelvin    Cal/Mol-Kelvin
 Total                  186.854             52.728            107.470
 Electronic               0.000              0.000              0.000
 Translational            0.889              2.981             41.633
 Rotational               0.889              2.981             31.559
 Vibrational            185.077             46.767             34.277
 Vibration     1          0.599              1.965              3.994
 Vibration     2          0.603              1.952              3.539
 Vibration     3          0.620              1.898              2.617
 Vibration     4          0.647              1.812              1.964
 Vibration     5          0.652              1.796              1.885
 Vibration     6          0.657              1.780              1.805
 Vibration     7          0.675              1.726              1.587
 Vibration     8          0.686              1.694              1.480
 Vibration     9          0.706              1.634              1.308
 Vibration    10          0.723              1.586              1.190
 Vibration    11          0.727              1.576              1.168
 Vibration    12          0.735              1.552              1.117
 Vibration    13          0.743              1.531              1.073
 Vibration    14          0.750              1.511              1.037
 Vibration    15          0.789              1.410              0.866
 Vibration    16          0.804              1.373              0.813
 Vibration    17          0.838              1.290              0.704
 Vibration    18          0.851              1.261              0.671
 Vibration    19          0.878              1.198              0.602
 Vibration    20          0.900              1.151              0.555
 Vibration    21          0.948              1.051              0.465

 Optimization completed.
    -- Stationary point found.
 Normal termination of Gaussian 16 at Thu Dec 10 10:31:27 2020.

 ----------------------------------------------------------------------
 # B3LYP/6-311++G(d,p) empiricaldispersion=gd3bj scf=xqc pop=npa geom=c
 heck
 ----------------------------------------------------------------------

 --------------------------------------
 CID_67053795_JID_4679_Energie_neutraal
 --------------------------------------
 Structure from the checkpoint file:  "JID_4679.chk"
 Charge =  0 Multiplicity = 1

 SCF Done:  E(RB3LYP) =  -581.676719845     A.U. after   14 cycles
 Normal termination of Gaussian 16 at Thu Dec 10 10:36:39 2020.

 ----------------------------------------------------------------------
 # B3LYP/6-311++G(d,p) empiricaldispersion=gd3bj scf=xqc pop=npa geom=c
 heck
 ----------------------------------------------------------------------

 ------------------------------------
 CID_67053795_JID_4679_Energie_kation
 ------------------------------------
 Structure from the checkpoint file:  "JID_4679.chk"
 Charge =  1 Multiplicity = 2

 SCF Done:  E(UB3LYP) =  -581.389028590     A.U. after   21 cycles
 Normal termination of Gaussian 16 at Thu Dec 10 10:47:25 2020.
 Gaussian 16:  ES64L-G16RevA.03 25-Dec-2016

 ----------------------------------------------------------------------
 # B3LYP/6-311++G(d,p) empiricaldispersion=gd3bj scf=xqc pop=npa geom=c
 heck
 ----------------------------------------------------------------------

 -----------------------------------
 CID_67053795_JID_4679_Energie_anion
 -----------------------------------
 Structure from the checkpoint file:  "JID_4679.chk"
 Charge = -1 Multiplicity = 2

                         Standard orientation:
 ---------------------------------------------------------------------
 Center     Atomic      Atomic             Coordinates (Angstroms)
 Number     Number       Type             X           Y           Z
 ---------------------------------------------------------------------
      1          6           0        1.955741   -0.868214    1.555749
      2          6           0        1.423256   -0.972121    0.108563
      3          6           0        2.289579   -0.138130   -0.879647
      4          6           0        2.612406    1.317730   -0.532085
      5          6           0        1.416557    2.268339   -0.504175
      6          6           0        0.386840    1.945006    0.588135
      7          6           0       -0.517377    0.762739    0.290854
      8          6           0       -0.063374   -0.562140    0.053105
      9          6           0       -1.041676   -1.524237   -0.231693
     10          6           0       -2.404853   -1.237079   -0.286291
     11          6           0       -2.833682    0.063887   -0.048945
     12          6           0       -1.884831    1.045672    0.234107
     13          8           0       -4.149239    0.441425   -0.081463
     14          6           0        1.622022   -2.443249   -0.315554
     15          1           0        1.848888    0.129176    1.983940
     16          1           0        3.020251   -1.131764    1.589988
     17          1           0        1.412712   -1.564552    2.203740
     18          1           0        1.804288   -0.174683   -1.864590
     19          1           0        3.247371   -0.664065   -0.990120
     20          1           0        3.127903    1.360671    0.437050
     21          1           0        3.336550    1.683619   -1.272113
     22          1           0        1.784253    3.289828   -0.340799
     23          1           0        0.915244    2.267721   -1.481561
     24          1           0       -0.252916    2.821947    0.732954
     25          1           0        0.913080    1.805645    1.540818
     26          1           0       -0.749517   -2.547843   -0.424929
     27          1           0       -3.120119   -2.025251   -0.514103
     28          1           0       -2.236753    2.057483    0.410861
     29          1           0       -4.688428   -0.336915   -0.290305
     30          1           0        2.686029   -2.695226   -0.257383
     31          1           0        1.087899   -3.137111    0.341435
     32          1           0        1.293535   -2.619303   -1.345905
 ---------------------------------------------------------------------

 SCF Done:  E(UB3LYP) =  -581.662879532     A.U. after   33 cycles
 SCF Done:  E(UB3LYP) =  -581.662879532     a.u. after    1 cycles

 The electronic state is 2-A.
 Alpha  occ. eigenvalues --  -19.04846 -10.12964 -10.09300 -10.08292 -10.07478
 Alpha  occ. eigenvalues --  -10.07385 -10.07031 -10.07011 -10.06699 -10.06676
 Alpha  occ. eigenvalues --  -10.06594 -10.06494 -10.06225 -10.06146  -0.95835
 Alpha  occ. eigenvalues --   -0.76523  -0.72242  -0.69989  -0.65707  -0.63556
 Alpha  occ. eigenvalues --   -0.60636  -0.59083  -0.55467  -0.52400  -0.50264
 Alpha  occ. eigenvalues --   -0.47876  -0.44708  -0.42642  -0.39630  -0.38303
 Alpha  occ. eigenvalues --   -0.35917  -0.35443  -0.33822  -0.33295  -0.32386
 Alpha  occ. eigenvalues --   -0.31623  -0.31511  -0.30288  -0.29940  -0.28989
 Alpha  occ. eigenvalues --   -0.28278  -0.27130  -0.26156  -0.25070  -0.23533
 Alpha  occ. eigenvalues --   -0.23219  -0.22745  -0.21917  -0.21648  -0.21063
 Alpha  occ. eigenvalues --   -0.14825  -0.11961   0.04329
 Alpha virt. eigenvalues --    0.05753   0.06891   0.07620   0.08194   0.08742
 Alpha virt. eigenvalues --    0.09097   0.09574   0.09749   0.10035   0.10598
 Alpha virt. eigenvalues --    0.11234   0.11560   0.12506   0.12857   0.13217

  Beta  occ. eigenvalues --  -19.04798 -10.12966 -10.09298 -10.08286 -10.07474
  Beta  occ. eigenvalues --  -10.07376 -10.07026 -10.06998 -10.06683 -10.06661
  Beta  occ. eigenvalues --  -10.06558 -10.06481 -10.06207 -10.06124  -0.95745
  Beta  occ. eigenvalues --   -0.76502  -0.72216  -0.69965  -0.65671  -0.63519
  Beta  occ. eigenvalues --   -0.60601  -0.59045  -0.55424  -0.52347  -0.50232
  Beta  occ. eigenvalues --   -0.47811  -0.44658  -0.42575  -0.39608  -0.38266
  Beta  occ. eigenvalues --   -0.35876  -0.35408  -0.33793  -0.33266  -0.32360
  Beta  occ. eigenvalues --   -0.31584  -0.31481  -0.30249  -0.29906  -0.28955
  Beta  occ. eigenvalues --   -0.28250  -0.27098  -0.26125  -0.25045  -0.23505
  Beta  occ. eigenvalues --   -0.23197  -0.22717  -0.21892  -0.21619  -0.21032
  Beta  occ. eigenvalues --   -0.14783  -0.11925
  Beta virt. eigenvalues --    0.06368   0.07304   0.07727   0.07967   0.08768
  Beta virt. eigenvalues --    0.08861   0.09407   0.09745   0.09865   0.10274
  Beta virt. eigenvalues --    0.11128   0.11484   0.11885   0.12680   0.13108

 Mulliken charges and spin densities:
               1          2
     1  C    0.274169  -1.053315
     2  C   -1.247228   1.690499
     3  C    0.158090  -0.629756
     4  C   -0.198966  -0.203773
     5  C    0.035666  -0.546132
     6  C    0.913158  -0.735700
     7  C   -0.308615   0.837251
     8  C   -0.360096   0.469391
     9  C   -0.982739   0.733268
    10  C    0.910505  -0.892879
    11  C    0.764516  -1.614049
    12  C    0.603417  -0.839451
    13  O   -0.285092   0.053076
    14  C    0.556044  -0.932129
    15  H    0.081636   0.007892
    16  H   -0.258042   0.417240
    17  H    0.116034   0.039227
    18  H    0.094018   0.053501
    19  H   -0.070810   0.220663
    20  H    0.009265   0.136099
    21  H   -0.373161   0.543915
    22  H   -0.213558   0.364523
    23  H    0.119725   0.016510
    24  H    0.090381   0.079177
    25  H   -0.075568   0.224188
    26  H    0.282844  -0.127736
    27  H   -1.198233   1.371540
    28  H    0.101439   0.060186
    29  H   -0.266150   0.547210
    30  H   -0.124373   0.293151
    31  H   -0.058284   0.185611
    32  H   -0.089992   0.230800
 Sum of Mulliken charges =  -1.00000   1.00000

 Dipole moment (field-independent basis, Debye):
    X=              3.2781    Y=              1.9825    Z=              0.9800  Tot=              3.9543
 Quadrupole moment (field-independent basis, Debye-Ang):
   XX=           -179.7186   YY=           -130.0795   ZZ=           -114.8377
   XY=            -12.1095   XZ=             -4.0453   YZ=             -1.4558

 Summary of Natural Population Analysis:

                                       Natural Population
                Natural  -----------------------------------------------
    Atom  No    Charge         Core      Valence    Rydberg      Total
 -----------------------------------------------------------------------
      C    1   -0.28225      0.99962     2.27577    0.00686     3.28225
      C    2   -0.04772      0.99955     2.03630    0.01187     3.04772
      C    3   -0.18401      0.99959     2.17388    0.01054     3.18401
      C    4   -0.18945      0.99962     2.18096    0.00887     3.18945
      C    5   -0.18527      0.99962     2.17708    0.00856     3.18527
      C    6   -0.19670      0.99960     2.18850    0.00860     3.19670
      C    7   -0.00194      0.99948     1.99355    0.00890     3.00194
      C    8   -0.02639      0.99944     2.01528    0.01167     3.02639
      C    9   -0.08960      0.99953     2.08125    0.00883     3.08960
      C   10   -0.13592      0.99951     2.12569    0.01072     3.13592
      C   11    0.15919      0.99936     1.82762    0.01383     2.84081
      C   12   -0.12240      0.99948     2.11430    0.00863     3.12240
      O   13   -0.34214      0.99988     3.33531    0.00695     4.34214
      C   14   -0.28486      0.99964     2.27762    0.00760     3.28486
      H   15    0.09927      0.00000     0.39969    0.00104     0.40073
      H   16    0.09875      0.00000     0.40028    0.00097     0.40125
      H   17    0.10097      0.00000     0.39822    0.00081     0.39903
      H   18    0.09789      0.00000     0.40094    0.00117     0.40211
      H   19    0.09860      0.00000     0.40018    0.00121     0.40140
      H   20    0.09452      0.00000     0.40397    0.00151     0.40548
      H   21    0.09881      0.00000     0.40007    0.00112     0.40119
      H   22    0.09751      0.00000     0.40142    0.00107     0.40249
      H   23    0.09438      0.00000     0.40439    0.00123     0.40562
      H   24    0.09971      0.00000     0.39922    0.00107     0.40029
      H   25    0.09956      0.00000     0.39905    0.00139     0.40044
      H   26    0.10169      0.00000     0.39672    0.00159     0.39831
      H   27    0.10430      0.00000     0.39233    0.00337     0.39570
      H   28    0.10123      0.00000     0.39738    0.00140     0.39877
      H   29    0.23979      0.00000     0.24883    0.01138     0.26021
      H   30    0.10131      0.00000     0.39770    0.00099     0.39869
      H   31    0.09968      0.00000     0.39929    0.00103     0.40032
      H   32    0.10147      0.00000     0.39753    0.00100     0.39853
 =======================================================================
   * Total *   -0.00000     13.99391    37.84030    0.16578    52.00000

 Normal termination of Gaussian 16 at Thu Dec 10 11:04:30 2020.
