 Gaussian 16, Revision A.03,

 -----------------------------------------------------------
 # opt freq B3LYP/6-31G(d) empiricaldispersion=gd3bj scf=xqc
 -----------------------------------------------------------

 ------------------------------
 CID_43275064_JID_7318_neutraal
 ------------------------------
 Symbolic Z-matrix:
 Charge =  0 Multiplicity = 1

 SCF Done:  E(RB3LYP) =  -716.698059636     A.U. after   14 cycles
 SCF Done:  E(RB3LYP) =  -716.676660175     A.U. after   13 cycles
 SCF Done:  E(RB3LYP) =  -716.703951276     A.U. after   12 cycles
 SCF Done:  E(RB3LYP) =  -716.705078356     A.U. after   12 cycles
 SCF Done:  E(RB3LYP) =  -716.705410532     A.U. after   11 cycles
 SCF Done:  E(RB3LYP) =  -716.705556136     A.U. after   11 cycles
 SCF Done:  E(RB3LYP) =  -716.705680351     A.U. after   11 cycles
 SCF Done:  E(RB3LYP) =  -716.705752608     A.U. after   11 cycles
 SCF Done:  E(RB3LYP) =  -716.705825631     A.U. after   10 cycles
 SCF Done:  E(RB3LYP) =  -716.705911521     A.U. after   11 cycles
 SCF Done:  E(RB3LYP) =  -716.706171817     A.U. after   10 cycles
 SCF Done:  E(RB3LYP) =  -716.706172572     A.U. after    7 cycles
 SCF Done:  E(RB3LYP) =  -716.706173288     A.U. after    7 cycles
 SCF Done:  E(RB3LYP) =  -716.706173474     A.U. after    7 cycles
 SCF Done:  E(RB3LYP) =  -716.706173487     A.U. after    6 cycles
 Optimization completed.
    -- Stationary point found.
 Normal termination of Gaussian 16 at Mon Dec 14 19:03:46 2020.

 --------------------------------------------------------------------
 #N Geom=AllCheck Guess=TCheck SCRF=Check GenChk RB3LYP/6-31G(d) Freq
 --------------------------------------------------------------------

 Structure from the checkpoint file:  "JID_7318.chk"
 ------------------------------
 CID_43275064_JID_7318_neutraal
 ------------------------------
 Charge =  0 Multiplicity = 1

 SCF Done:  E(RB3LYP) =  -716.706173487     A.U. after    1 cycles

  Exact polarizability: 176.687 -26.133 160.711  -1.176  -3.186 153.587
 Approx polarizability: 235.118 -47.858 225.276  -3.804  -8.749 258.018

                      1                      2                      3
                      A                      A                      A
 Frequencies --     24.8316                37.0533                45.3740
 Red. masses --      3.2450                 3.6727                 3.5652
 Frc consts  --      0.0012                 0.0030                 0.0043
 IR Inten    --      0.1463                 0.0223                 0.2245

                      4                      5                      6
                      A                      A                      A
 Frequencies --     80.5196                91.7830               114.4318
 Red. masses --      3.1360                 3.1153                 3.0212
 Frc consts  --      0.0120                 0.0155                 0.0233
 IR Inten    --      0.2368                 0.0351                 0.6613

                      7                      8                      9
                      A                      A                      A
 Frequencies --    123.1867               138.5153               144.3302
 Red. masses --      2.9260                 2.0463                 1.1932
 Frc consts  --      0.0262                 0.0231                 0.0146
 IR Inten    --      0.4425                 2.5520                 0.8106

                     10                     11                     12
                      A                      A                      A
 Frequencies --    173.7482               180.1851               189.7842
 Red. masses --      1.1211                 3.4503                 2.2374
 Frc consts  --      0.0199                 0.0660                 0.0475
 IR Inten    --      0.6381                 1.4253                 1.7170

                     13                     14                     15
                      A                      A                      A
 Frequencies --    205.7252               235.3204               247.0625
 Red. masses --      2.4873                 1.8344                 2.3211
 Frc consts  --      0.0620                 0.0599                 0.0835
 IR Inten    --      1.0124                 3.4645                 5.7541

                     16                     17                     18
                      A                      A                      A
 Frequencies --    266.3624               275.2363               290.0404
 Red. masses --      1.2280                 1.8903                 2.3440
 Frc consts  --      0.0513                 0.0844                 0.1162
 IR Inten    --     42.3982                 1.7584                 0.5666

                     19                     20                     21
                      A                      A                      A
 Frequencies --    308.8272               325.2176               360.7471
 Red. masses --      2.4294                 2.6768                 2.8244
 Frc consts  --      0.1365                 0.1668                 0.2166
 IR Inten    --      1.0101                 0.3915                 1.6226

                     22                     23                     24
                      A                      A                      A
 Frequencies --    406.4137               427.5887               449.5683
 Red. masses --      2.1782                 2.8676                 3.0641
 Frc consts  --      0.2120                 0.3089                 0.3649
 IR Inten    --      1.4075                 0.2784                 0.3537

                     25                     26                     27
                      A                      A                      A
 Frequencies --    472.2239               478.8280               530.2150
 Red. masses --      2.7946                 3.6011                 2.5394
 Frc consts  --      0.3672                 0.4865                 0.4206
 IR Inten    --      6.5430                 1.1285                 0.3470

                     28                     29                     30
                      A                      A                      A
 Frequencies --    559.1548               600.5676               621.7725
 Red. masses --      3.1197                 3.2020                 3.2182
 Frc consts  --      0.5747                 0.6804                 0.7330
 IR Inten    --      0.0903                 2.6745                12.7959

                     31                     32                     33
                      A                      A                      A
 Frequencies --    718.7337               738.4598               757.3509
 Red. masses --      3.4260                 2.8219                 1.2815
 Frc consts  --      1.0427                 0.9067                 0.4331
 IR Inten    --      4.0313                13.6387                 5.2239

                     34                     35                     36
                      A                      A                      A
 Frequencies --    768.0062               792.1040               833.9132
 Red. masses --      4.4433                 2.4826                 1.4253
 Frc consts  --      1.5441                 0.9177                 0.5840
 IR Inten    --      0.4043                 1.2963                14.1446

                     37                     38                     39
                      A                      A                      A
 Frequencies --    877.3752               898.2455               901.6702
 Red. masses --      1.4678                 1.8931                 1.4417
 Frc consts  --      0.6657                 0.9000                 0.6906
 IR Inten    --      1.5069                20.4769                 3.8424

                     40                     41                     42
                      A                      A                      A
 Frequencies --    917.5978               920.0371               931.1780
 Red. masses --      1.8331                 2.5672                 1.8115
 Frc consts  --      0.9094                 1.2803                 0.9255
 IR Inten    --     20.1538                85.9959                99.4359

                     43                     44                     45
                      A                      A                      A
 Frequencies --    946.1862              1009.6547              1015.9531
 Red. masses --      1.2947                 1.9539                 1.4797
 Frc consts  --      0.6829                 1.1736                 0.8998
 IR Inten    --     18.8243                17.0646                24.6118

                     46                     47                     48
                      A                      A                      A
 Frequencies --   1026.3172              1026.6217              1032.3439
 Red. masses --      1.5373                 1.6407                 1.5169
 Frc consts  --      0.9541                 1.0189                 0.9525
 IR Inten    --      2.7610                 0.7220                 4.7343

                     49                     50                     51
                      A                      A                      A
 Frequencies --   1050.6002              1059.2645              1064.4945
 Red. masses --      2.0810                 1.4339                 1.8886
 Frc consts  --      1.3533                 0.9479                 1.2609
 IR Inten    --      5.7641                 7.7421                10.1905

                     52                     53                     54
                      A                      A                      A
 Frequencies --   1085.5001              1115.8950              1134.4370
 Red. masses --      1.5959                 2.0298                 2.5077
 Frc consts  --      1.1079                 1.4892                 1.9015
 IR Inten    --      0.0466                 5.1818                20.1731

                     55                     56                     57
                      A                      A                      A
 Frequencies --   1142.2770              1155.6540              1174.5664
 Red. masses --      2.1092                 2.0578                 2.9279
 Frc consts  --      1.6214                 1.6193                 2.3799
 IR Inten    --     13.7824                 4.9871                98.0000

                     58                     59                     60
                      A                      A                      A
 Frequencies --   1182.7725              1200.6174              1224.3840
 Red. masses --      3.0029                 1.4813                 1.4091
 Frc consts  --      2.4751                 1.2581                 1.2446
 IR Inten    --     88.0267                 4.5453                 1.7154

                     61                     62                     63
                      A                      A                      A
 Frequencies --   1243.2607              1254.2237              1261.7859
 Red. masses --      1.8443                 1.4700                 1.2325
 Frc consts  --      1.6796                 1.3625                 1.1562
 IR Inten    --      0.2361                 7.1050                 0.7168

                     64                     65                     66
                      A                      A                      A
 Frequencies --   1279.1730              1288.3570              1312.2540
 Red. masses --      3.3929                 1.3187                 1.1435
 Frc consts  --      3.2710                 1.2896                 1.1602
 IR Inten    --      5.1691                 1.6404                 2.0618

                     67                     68                     69
                      A                      A                      A
 Frequencies --   1329.0634              1342.3128              1345.9065
 Red. masses --      1.4602                 1.2204                 2.3080
 Frc consts  --      1.5197                 1.2955                 2.4633
 IR Inten    --      6.3836                 0.4254                13.4415

                     70                     71                     72
                      A                      A                      A
 Frequencies --   1379.5309              1388.0496              1401.5047
 Red. masses --      1.8108                 1.3744                 1.3428
 Frc consts  --      2.0304                 1.5602                 1.5540
 IR Inten    --     13.8553                 8.9825                28.9465

                     73                     74                     75
                      A                      A                      A
 Frequencies --   1412.5386              1417.4336              1425.8233
 Red. masses --      1.4402                 1.3474                 1.4129
 Frc consts  --      1.6930                 1.5950                 1.6923
 IR Inten    --      1.8173                 2.8465                 9.3661

                     76                     77                     78
                      A                      A                      A
 Frequencies --   1438.5898              1439.8500              1450.7414
 Red. masses --      1.2695                 1.2828                 1.2316
 Frc consts  --      1.5479                 1.5670                 1.5272
 IR Inten    --      2.0782                 7.1670                 1.0978

                     79                     80                     81
                      A                      A                      A
 Frequencies --   1465.9116              1470.5525              1504.2831
 Red. masses --      1.5095                 2.1421                 1.0785
 Frc consts  --      1.9111                 2.7293                 1.4380
 IR Inten    --      5.0027                 4.1293                 5.3918

                     82                     83                     84
                      A                      A                      A
 Frequencies --   1506.6402              1514.8795              1519.5774
 Red. masses --      1.0463                 1.0853                 1.0720
 Frc consts  --      1.3994                 1.4674                 1.4585
 IR Inten    --      0.2774                 6.2289                 1.4861

                     85                     86                     87
                      A                      A                      A
 Frequencies --   1522.1374              1522.3006              1525.3320
 Red. masses --      1.1254                 1.1077                 1.1199
 Frc consts  --      1.5363                 1.5125                 1.5352
 IR Inten    --     15.0818                12.6697                 3.3131

                     88                     89                     90
                      A                      A                      A
 Frequencies --   1528.8798              1537.7204              1545.9697
 Red. masses --      1.0722                 1.0866                 1.0589
 Frc consts  --      1.4767                 1.5139                 1.4911
 IR Inten    --      5.8843                 6.9576                 2.7991

                     91                     92                     93
                      A                      A                      A
 Frequencies --   1555.4099              1559.1801              1634.9580
 Red. masses --      2.3645                 1.0926                 5.7677
 Frc consts  --      3.3703                 1.5649                 9.0837
 IR Inten    --     12.4994                 1.3867                 1.1033

                     94                     95                     96
                      A                      A                      A
 Frequencies --   1677.0020              1701.6880              2960.7148
 Red. masses --      5.9111                 1.0902                 1.0582
 Frc consts  --      9.7946                 1.8600                 5.4654
 IR Inten    --      2.6226                23.3007                19.7387

                     97                     98                     99
                      A                      A                      A
 Frequencies --   2971.8843              2991.8335              3014.0670
 Red. masses --      1.0636                 1.1046                 1.0617
 Frc consts  --      5.5345                 5.8255                 5.6830
 IR Inten    --     78.0821                59.9653                26.9035

                    100                    101                    102
                      A                      A                      A
 Frequencies --   3027.4491              3034.9976              3036.7032
 Red. masses --      1.0932                 1.0706                 1.0392
 Frc consts  --      5.9033                 5.8103                 5.6464
 IR Inten    --     64.3645                48.7802                16.8466

                    103                    104                    105
                      A                      A                      A
 Frequencies --   3037.6072              3040.6172              3043.8954
 Red. masses --      1.0382                 1.0511                 1.0733
 Frc consts  --      5.6439                 5.7258                 5.8589
 IR Inten    --     47.5385                37.1320                11.8517

                    106                    107                    108
                      A                      A                      A
 Frequencies --   3051.2471              3068.6968              3082.9982
 Red. masses --      1.0870                 1.0865                 1.1002
 Frc consts  --      5.9626                 6.0282                 6.1612
 IR Inten    --     68.4548                32.3183                46.3643

                    109                    110                    111
                      A                      A                      A
 Frequencies --   3084.9693              3088.6872              3107.5497
 Red. masses --      1.1001                 1.0984                 1.0907
 Frc consts  --      6.1684                 6.1740                 6.2059
 IR Inten    --      1.4196                40.3646                27.0770

                    112                    113                    114
                      A                      A                      A
 Frequencies --   3125.9434              3128.5398              3131.6090
 Red. masses --      1.0998                 1.0996                 1.0940
 Frc consts  --      6.3320                 6.3411                 6.3214
 IR Inten    --     27.4771                 8.7106                24.2617

                    115                    116                    117
                      A                      A                      A
 Frequencies --   3136.2639              3164.4312              3170.1301
 Red. masses --      1.0992                 1.0861                 1.0895
 Frc consts  --      6.3701                 6.4078                 6.4508
 IR Inten    --     32.6136                14.9814                19.4488

                    118                    119                    120
                      A                      A                      A
 Frequencies --   3184.6358              3455.6967              3540.1525
 Red. masses --      1.0938                 1.0504                 1.0909
 Frc consts  --      6.5361                 7.3903                 8.0554
 IR Inten    --     24.6301                 1.1126                 0.1524

 - Thermochemistry -
 -------------------
 Temperature   298.150 Kelvin.  Pressure   1.00000 Atm.
 Atom     1 has atomic number  6 and mass  12.00000

 Molecular mass:   235.19361 amu.
 Principal axes and moments of inertia in atomic units:
                           1         2         3
     Eigenvalues --  3365.148724858.302876688.35079
           X            0.99987  -0.01447   0.00644
           Y            0.01454   0.99985  -0.00990
           Z           -0.00629   0.00999   0.99993
 This molecule is an asymmetric top.
 Rotational symmetry number  1.
 Warning -- assumption of classical behavior for rotation
           may cause significant error
 Rotational temperatures (Kelvin)      0.02574     0.01783     0.01295
 Rotational constants (GHZ):           0.53630     0.37148     0.26983
 Zero-point vibrational energy     995837.1 (Joules/Mol)
                                  238.01079 (Kcal/Mol)
 Warning -- explicit consideration of  29 degrees of freedom as
           vibrations may cause significant error
 Vibrational temperatures:     35.73    53.31    65.28   115.85   132.06
          (Kelvin)            164.64   177.24   199.29   207.66   249.98
                              259.25   273.06   295.99   338.57   355.47
                              383.24   396.00   417.30   444.33   467.92
                              519.03   584.74   615.20   646.83   679.42
                              688.93   762.86   804.50   864.08   894.59
                             1034.10  1062.48  1089.66  1104.99  1139.66
                             1199.82  1262.35  1292.37  1297.30  1320.22
                             1323.73  1339.76  1361.35  1452.67  1461.73
                             1476.64  1477.08  1485.31  1511.58  1524.05
                             1531.57  1561.79  1605.52  1632.20  1643.48
                             1662.73  1689.94  1701.75  1727.42  1761.62
                             1788.77  1804.55  1815.43  1840.44  1853.66
                             1888.04  1912.23  1931.29  1936.46  1984.84
                             1997.09  2016.45  2032.33  2039.37  2051.44
                             2069.81  2071.62  2087.29  2109.12  2115.80
                             2164.33  2167.72  2179.57  2186.33  2190.02
                             2190.25  2194.61  2199.72  2212.44  2224.31
                             2237.89  2243.31  2352.34  2412.83  2448.35
                             4259.81  4275.88  4304.58  4336.57  4355.82
                             4366.68  4369.14  4370.44  4374.77  4379.49
                             4390.06  4415.17  4435.75  4438.58  4443.93
                             4471.07  4497.54  4501.27  4505.69  4512.38
                             4552.91  4561.11  4581.98  4971.98  5093.49

 Zero-point correction=                           0.379294 (Hartree/Particle)
 Thermal correction to Energy=                    0.398381
 Thermal correction to Enthalpy=                  0.399325
 Thermal correction to Gibbs Free Energy=         0.331685
 Sum of electronic and zero-point Energies=           -716.326879
 Sum of electronic and thermal Energies=              -716.307792
 Sum of electronic and thermal Enthalpies=            -716.306848
 Sum of electronic and thermal Free Energies=         -716.374489

                     E (Thermal)             CV                S
                      KCal/Mol        Cal/Mol-Kelvin    Cal/Mol-Kelvin
 Total                  249.988             71.474            142.362
 Electronic               0.000              0.000              0.000
 Translational            0.889              2.981             42.267
 Rotational               0.889              2.981             33.058
 Vibrational            248.210             65.512             67.036
 Vibration     1          0.593              1.985              6.205
 Vibration     2          0.594              1.982              5.411
 Vibration     3          0.595              1.979              5.009
 Vibration     4          0.600              1.962              3.878
 Vibration     5          0.602              1.955              3.622
 Vibration     6          0.607              1.937              3.192
 Vibration     7          0.610              1.930              3.050
 Vibration     8          0.614              1.915              2.824
 Vibration     9          0.616              1.909              2.746
 Vibration    10          0.627              1.875              2.395
 Vibration    11          0.629              1.867              2.326
 Vibration    12          0.633              1.854              2.230
 Vibration    13          0.640              1.832              2.081
 Vibration    14          0.655              1.787              1.838
 Vibration    15          0.661              1.768              1.751
 Vibration    16          0.672              1.735              1.620
 Vibration    17          0.677              1.719              1.563
 Vibration    18          0.686              1.692              1.474
 Vibration    19          0.698              1.657              1.369
 Vibration    20          0.709              1.625              1.284
 Vibration    21          0.735              1.553              1.119
 Vibration    22          0.771              1.456              0.939
 Vibration    23          0.789              1.410              0.867
 Vibration    24          0.808              1.362              0.797
 Vibration    25          0.829              1.312              0.731
 Vibration    26          0.835              1.297              0.713
 Vibration    27          0.885              1.183              0.587
 Vibration    28          0.915              1.120              0.526
 Vibration    29          0.959              1.031              0.449

                           ! Non-Optimized Parameters !
 Normal termination of Gaussian 16 at Mon Dec 14 19:24:52 2020.

 ----------------------------------------------------------------------
 # B3LYP/6-311++G(d,p) empiricaldispersion=gd3bj scf=xqc pop=npa geom=c
 heck
 ----------------------------------------------------------------------

 --------------------------------------
 CID_43275064_JID_7318_Energie_neutraal
 --------------------------------------
 Structure from the checkpoint file:  "JID_7318.chk"
 Charge =  0 Multiplicity = 1

 SCF Done:  E(RB3LYP) =  -716.908160757     A.U. after   15 cycles
 Normal termination of Gaussian 16 at Mon Dec 14 19:35:33 2020.

 ----------------------------------------------------------------------
 # B3LYP/6-311++G(d,p) empiricaldispersion=gd3bj scf=xqc pop=npa geom=c
 heck
 ----------------------------------------------------------------------

 ------------------------------------
 CID_43275064_JID_7318_Energie_kation
 ------------------------------------
 Structure from the checkpoint file:  "JID_7318.chk"
 Charge =  1 Multiplicity = 2

 SCF Done:  E(UB3LYP) =  -716.614873122     A.U. after   29 cycles
 Normal termination of Gaussian 16 at Mon Dec 14 20:04:05 2020.
 Gaussian 16:  ES64L-G16RevA.03 25-Dec-2016

 ----------------------------------------------------------------------
 # B3LYP/6-311++G(d,p) empiricaldispersion=gd3bj scf=xqc pop=npa geom=c
 heck
 ----------------------------------------------------------------------

 -----------------------------------
 CID_43275064_JID_7318_Energie_anion
 -----------------------------------
 Structure from the checkpoint file:  "JID_7318.chk"
 Charge = -1 Multiplicity = 2

                         Standard orientation:
 ---------------------------------------------------------------------
 Center     Atomic      Atomic             Coordinates (Angstroms)
 Number     Number       Type             X           Y           Z
 ---------------------------------------------------------------------
      1          6           0       -0.596121   -2.369188    1.223885
      2          6           0       -0.805355   -2.201543   -0.282617
      3          6           0       -2.254853   -2.443479   -0.734466
      4          6           0       -3.336205   -1.570542   -0.076310
      5          6           0       -3.251918   -0.081938   -0.387721
      6          8           0       -2.144184    0.485803    0.289084
      7          6           0       -1.940080    1.847274   -0.015950
      8          6           0       -0.610436    2.290697    0.596627
      9          6           0        0.537991    1.407766    0.134232
     10          6           0        1.274952    0.656557    1.051247
     11          6           0        2.325953   -0.177758    0.660248
     12          6           0        2.657050   -0.268290   -0.705396
     13          6           0        1.926495    0.491489   -1.624829
     14          6           0        0.884241    1.319804   -1.217320
     15          6           0        3.771501   -1.170637   -1.172015
     16          6           0        3.083909   -0.977834    1.689850
     17          7           0       -0.446670    3.727470    0.317727
     18          1           0       -1.090554   -1.564559    1.776340
     19          1           0        0.468394   -2.333926    1.476314
     20          1           0       -0.995322   -3.328105    1.580714
     21          1           0       -0.483191   -1.199524   -0.576935
     22          1           0       -0.162170   -2.911364   -0.821170
     23          1           0       -2.316269   -2.310525   -1.824454
     24          1           0       -2.511311   -3.495301   -0.542151
     25          1           0       -4.319975   -1.919936   -0.417751
     26          1           0       -3.325401   -1.696761    1.012981
     27          1           0       -3.145625    0.074349   -1.475940
     28          1           0       -4.180289    0.426617   -0.075835
     29          1           0       -1.913489    1.995418   -1.110366
     30          1           0       -2.752743    2.474635    0.380722
     31          1           0       -0.704449    2.185459    1.683713
     32          1           0        1.010039    0.707389    2.105345
     33          1           0        2.177408    0.424979   -2.680952
     34          1           0        0.331725    1.887324   -1.963183
     35          1           0        4.731678   -0.903126   -0.712295
     36          1           0        3.578408   -2.218629   -0.908756
     37          1           0        3.894172   -1.116685   -2.257775
     38          1           0        2.693634   -0.796310    2.695386
     39          1           0        3.014498   -2.055517    1.493953
     40          1           0        4.152518   -0.727009    1.692562
     41          1           0        0.403027    4.053443    0.776469
     42          1           0       -0.277292    3.854669   -0.680503
 ---------------------------------------------------------------------

 SCF Done:  E(UB3LYP) =  -716.893763324     A.U. after   33 cycles
 SCF Done:  E(UB3LYP) =  -716.893763323     a.u. after    1 cycles

 The electronic state is 2-A.
 Alpha  occ. eigenvalues --  -19.03206 -14.20890 -10.12343 -10.12318 -10.11381
 Alpha  occ. eigenvalues --  -10.08508 -10.08357 -10.08050 -10.07455 -10.07401
 Alpha  occ. eigenvalues --  -10.07392 -10.07389 -10.07357 -10.07033 -10.06746
 Alpha  occ. eigenvalues --  -10.05576 -10.05276  -0.94915  -0.80732  -0.76414
 Alpha  occ. eigenvalues --   -0.70789  -0.68912  -0.67051  -0.65846  -0.62769
 Alpha  occ. eigenvalues --   -0.60399  -0.58272  -0.56808  -0.52343  -0.51626
 Alpha  occ. eigenvalues --   -0.50501  -0.46458  -0.45982  -0.42311  -0.41591
 Alpha  occ. eigenvalues --   -0.39249  -0.38719  -0.37853  -0.36277  -0.35364
 Alpha  occ. eigenvalues --   -0.34772  -0.34079  -0.33472  -0.32612  -0.31916
 Alpha  occ. eigenvalues --   -0.31485  -0.30702  -0.30483  -0.29494  -0.29355
 Alpha  occ. eigenvalues --   -0.28487  -0.28027  -0.26871  -0.26075  -0.25258
 Alpha  occ. eigenvalues --   -0.24358  -0.24115  -0.23319  -0.22619  -0.22289
 Alpha  occ. eigenvalues --   -0.21601  -0.17200  -0.16636  -0.15340  -0.13712
 Alpha  occ. eigenvalues --    0.04180
 Alpha virt. eigenvalues --    0.05940   0.06273   0.06781   0.07708   0.08025
 Alpha virt. eigenvalues --    0.08284   0.08436   0.08544   0.09010   0.09116
 Alpha virt. eigenvalues --    0.10201   0.10616   0.10853   0.10956   0.11507

  Beta  occ. eigenvalues --  -19.03199 -14.20870 -10.12332 -10.12303 -10.11377
  Beta  occ. eigenvalues --  -10.08504 -10.08356 -10.08052 -10.07442 -10.07391
  Beta  occ. eigenvalues --  -10.07389 -10.07373 -10.07329 -10.07000 -10.06734
  Beta  occ. eigenvalues --  -10.05569 -10.05267  -0.94902  -0.80704  -0.76398
  Beta  occ. eigenvalues --   -0.70768  -0.68889  -0.67027  -0.65825  -0.62740
  Beta  occ. eigenvalues --   -0.60361  -0.58231  -0.56771  -0.52307  -0.51586
  Beta  occ. eigenvalues --   -0.50470  -0.46423  -0.45949  -0.42287  -0.41563
  Beta  occ. eigenvalues --   -0.39221  -0.38693  -0.37831  -0.36248  -0.35334
  Beta  occ. eigenvalues --   -0.34739  -0.34050  -0.33446  -0.32588  -0.31891
  Beta  occ. eigenvalues --   -0.31447  -0.30675  -0.30458  -0.29467  -0.29323
  Beta  occ. eigenvalues --   -0.28465  -0.28003  -0.26852  -0.26052  -0.25229
  Beta  occ. eigenvalues --   -0.24335  -0.24088  -0.23294  -0.22597  -0.22267
  Beta  occ. eigenvalues --   -0.21574  -0.17185  -0.16621  -0.15326  -0.13694
  Beta virt. eigenvalues --    0.06087   0.06686   0.06898   0.07246   0.07950
  Beta virt. eigenvalues --    0.08098   0.08583   0.08712   0.08943   0.09238
  Beta virt. eigenvalues --    0.09345   0.10545   0.10947   0.11086   0.11283

 Mulliken charges and spin densities:
               1          2
     1  C   -0.619221  -0.110008
     2  C   -0.524185   0.622840
     3  C    0.294100  -0.649868
     4  C   -0.150337  -0.235667
     5  C    0.170779  -0.394229
     6  O   -0.039740   0.025075
     7  C   -0.075414  -0.338180
     8  C    0.711857  -0.969359
     9  C    1.257164  -0.815721
    10  C   -0.869999   0.414600
    11  C   -1.488582   1.582747
    12  C   -1.477368   1.822040
    13  C   -0.048755  -0.278469
    14  C   -0.324339  -0.162522
    15  C    2.596489  -3.165453
    16  C    0.673261  -1.174174
    17  N   -0.267134   0.011757
    18  H    0.078194   0.054357
    19  H    0.441204  -0.304108
    20  H   -0.063437   0.196152
    21  H    1.012170  -0.787362
    22  H   -0.130748   0.298638
    23  H   -0.171151   0.310448
    24  H    0.016636   0.111953
    25  H   -0.235975   0.401351
    26  H    0.172249  -0.014277
    27  H   -0.010296   0.130743
    28  H   -0.119208   0.250763
    29  H    0.002052   0.158027
    30  H    0.083287   0.062371
    31  H    0.200992  -0.003914
    32  H   -0.022466   0.180890
    33  H   -0.511371   0.686214
    34  H   -0.676519   0.812156
    35  H   -0.112977   0.269221
    36  H   -0.105312   0.259242
    37  H   -0.273896   0.420166
    38  H   -0.202786   0.340149
    39  H   -0.129196   0.295949
    40  H   -0.187718   0.340373
    41  H    0.054350   0.187031
    42  H    0.073345   0.158061
 Sum of Mulliken charges =  -1.00000   1.00000

 Dipole moment (field-independent basis, Debye):
    X=             -2.5234    Y=              0.4930    Z=              3.2858  Tot=              4.1722
 Quadrupole moment (field-independent basis, Debye-Ang):
   XX=           -182.6661   YY=           -163.5040   ZZ=           -150.4624
   XY=              5.0678   XZ=             -0.7374   YZ=              1.1848

 Summary of Natural Population Analysis:

                                       Natural Population
                Natural  -----------------------------------------------
    Atom  No    Charge         Core      Valence    Rydberg      Total
 -----------------------------------------------------------------------
      C    1   -0.28758      0.99966     2.28262    0.00530     3.28758
      C    2   -0.19554      0.99963     2.18804    0.00787     3.19554
      C    3   -0.18552      0.99963     2.17797    0.00793     3.18552
      C    4   -0.20021      0.99962     2.19151    0.00907     3.20021
      C    5   -0.00551      0.99958     1.99418    0.01175     3.00551
      O    6   -0.30320      0.99987     3.29401    0.00932     4.30320
      C    7   -0.00265      0.99956     1.99101    0.01208     3.00265
      C    8   -0.02728      0.99955     2.01435    0.01338     3.02728
      C    9   -0.02322      0.99948     2.01073    0.01301     3.02322
      C   10   -0.09469      0.99946     2.08570    0.00953     3.09469
      C   11   -0.01390      0.99947     2.00412    0.01031     3.01390
      C   12   -0.01661      0.99947     2.00675    0.01039     3.01661
      C   13   -0.09212      0.99951     2.08236    0.01025     3.09212
      C   14   -0.10307      0.99950     2.09291    0.01067     3.10307
      C   15   -0.29376      0.99964     2.28858    0.00554     3.29376
      C   16   -0.29508      0.99964     2.28935    0.00610     3.29508
      N   17   -0.41623      0.99977     2.90772    0.00874     3.91623
      H   18    0.09992      0.00000     0.39882    0.00126     0.40008
      H   19    0.09970      0.00000     0.39926    0.00104     0.40030
      H   20    0.08942      0.00000     0.40976    0.00082     0.41058
      H   21    0.10644      0.00000     0.39031    0.00325     0.39356
      H   22    0.09120      0.00000     0.40751    0.00128     0.40880
      H   23    0.09560      0.00000     0.40325    0.00115     0.40440
      H   24    0.09222      0.00000     0.40679    0.00099     0.40778
      H   25    0.09898      0.00000     0.40006    0.00096     0.40102
      H   26    0.09826      0.00000     0.40051    0.00123     0.40174
      H   27    0.07870      0.00000     0.41976    0.00155     0.42130
      H   28    0.07825      0.00000     0.42046    0.00129     0.42175
      H   29    0.07869      0.00000     0.41975    0.00155     0.42131
      H   30    0.08452      0.00000     0.41413    0.00136     0.41548
      H   31    0.09380      0.00000     0.40434    0.00186     0.40620
      H   32    0.09660      0.00000     0.40177    0.00163     0.40340
      H   33    0.09975      0.00000     0.39865    0.00159     0.40025
      H   34    0.09923      0.00000     0.39858    0.00219     0.40077
      H   35    0.10414      0.00000     0.39464    0.00122     0.39586
      H   36    0.10486      0.00000     0.39377    0.00137     0.39514
      H   37    0.10349      0.00000     0.39536    0.00116     0.39651
      H   38    0.10158      0.00000     0.39750    0.00092     0.39842
      H   39    0.10495      0.00000     0.39391    0.00114     0.39505
      H   40    0.10584      0.00000     0.39299    0.00117     0.39416
      H   41    0.17649      0.00000     0.32197    0.00154     0.32351
      H   42    0.17355      0.00000     0.32447    0.00199     0.32645
 =======================================================================
   * Total *    0.00000     16.99304    47.81021    0.19675    65.00000

 Normal termination of Gaussian 16 at Mon Dec 14 20:32:50 2020.
