 Gaussian 16, Revision A.03,

 -----------------------------------------------------------
 # opt freq B3LYP/6-31G(d) empiricaldispersion=gd3bj scf=xqc
 -----------------------------------------------------------

 -----------------------------
 CID_20334604_JID_330_neutraal
 -----------------------------
 Symbolic Z-matrix:
 Charge =  0 Multiplicity = 1

 SCF Done:  E(RB3LYP) =  -500.852084008     A.U. after   13 cycles
 SCF Done:  E(RB3LYP) =  -500.854264810     A.U. after   10 cycles
 SCF Done:  E(RB3LYP) =  -500.854425462     A.U. after   10 cycles
 SCF Done:  E(RB3LYP) =  -500.854438874     A.U. after   10 cycles
 SCF Done:  E(RB3LYP) =  -500.854459667     A.U. after    9 cycles
 SCF Done:  E(RB3LYP) =  -500.854465219     A.U. after    8 cycles
 SCF Done:  E(RB3LYP) =  -500.854466350     A.U. after    7 cycles
 SCF Done:  E(RB3LYP) =  -500.854466517     A.U. after    7 cycles
 Optimization completed.
    -- Stationary point found.

 1\1\GINC-NODE365\FOpt\RB3LYP\6-31G(d)\C7H14O3\VSC10255\13-Dec-2020\0\\
 # opt freq B3LYP/6-31G(d) empiricaldispersion=gd3bj scf=xqc\\CID_20334
 604_JID_330_neutraal\\0,1\C,1.0030735326,-0.0941867093,0.0480690305\C,
 0.1543789384,0.9888060254,-0.6214401112\C,0.4623736446,1.0997954424,-2
 .1204461044\O,0.1668119216,-0.0985854535,-2.8202851928\C,-1.2203132191
 ,-0.2825033058,-3.0722938726\C,-1.761494692,0.8977362569,-3.8775759358
 \C,-1.4683219513,2.218673727,-3.139553858\O,-0.0907414969,2.2491994432
 ,-2.7370385166\C,-2.4470298838,2.5229825586,-1.9993761894\O,-3.1364964

 Normal termination of Gaussian 16 at Sun Dec 13 15:52:16 2020.

 --------------------------------------------------------------------
 #N Geom=AllCheck Guess=TCheck SCRF=Check GenChk RB3LYP/6-31G(d) Freq
 --------------------------------------------------------------------

 Structure from the checkpoint file:  "JID_330.chk"
 -----------------------------
 CID_20334604_JID_330_neutraal
 -----------------------------
 Charge =  0 Multiplicity = 1

 SCF Done:  E(RB3LYP) =  -500.854466517     A.U. after    1 cycles

  Exact polarizability:  91.820   0.457  76.899  -1.630  -0.531  72.667
 Approx polarizability: 114.784  -0.297 106.508  -5.377   0.214 110.128

                      1                      2                      3
                      A                      A                      A
 Frequencies --     74.9951               107.9386               134.4467
 Red. masses --      3.0352                 2.4716                 2.5378
 Frc consts  --      0.0101                 0.0170                 0.0270
 IR Inten    --      0.0805                 0.3032                 0.5884

                      4                      5                      6
                      A                      A                      A
 Frequencies --    209.9872               242.2290               248.5125
 Red. masses --      1.3959                 1.7466                 1.5674
 Frc consts  --      0.0363                 0.0604                 0.0570
 IR Inten    --      1.4025                 2.2498                 3.4249

                      7                      8                      9
                      A                      A                      A
 Frequencies --    269.9758               291.2906               337.0884
 Red. masses --      2.2706                 2.4517                 1.5017
 Frc consts  --      0.0975                 0.1226                 0.1005
 IR Inten    --      8.0649                 4.0391                32.0426

                     10                     11                     12
                      A                      A                      A
 Frequencies --    340.4608               374.7744               430.9759
 Red. masses --      3.1304                 1.9956                 6.1373
 Frc consts  --      0.2138                 0.1651                 0.6716
 IR Inten    --      2.6112                82.1154                 4.5621

                     13                     14                     15
                      A                      A                      A
 Frequencies --    475.3497               496.8261               533.1549
 Red. masses --      3.0709                 3.2831                 4.2491
 Frc consts  --      0.4088                 0.4775                 0.7116
 IR Inten    --      9.7474                 3.6844                 8.1122

                     16                     17                     18
                      A                      A                      A
 Frequencies --    596.9643               699.2759               776.9250
 Red. masses --      2.6156                 4.3222                 1.5015
 Frc consts  --      0.5492                 1.2452                 0.5340
 IR Inten    --      2.9898                 0.4833                 1.3699

                     19                     20                     21
                      A                      A                      A
 Frequencies --    818.1078               857.8239               913.9609
 Red. masses --      2.6546                 1.9683                 1.7975
 Frc consts  --      1.0468                 0.8534                 0.8847
 IR Inten    --      6.0157                 4.6684                17.6089

                     22                     23                     24
                      A                      A                      A
 Frequencies --    951.7999               996.3932              1020.0835
 Red. masses --      2.0601                 1.5620                 2.4524
 Frc consts  --      1.0996                 0.9137                 1.5035
 IR Inten    --     45.3476                10.4197                 6.8228

                     25                     26                     27
                      A                      A                      A
 Frequencies --   1045.6861              1048.7743              1093.0185
 Red. masses --      2.6364                 2.8993                 2.3957
 Frc consts  --      1.6985                 1.8789                 1.6863
 IR Inten    --     51.0734                29.2993                96.0220

                     28                     29                     30
                      A                      A                      A
 Frequencies --   1101.4892              1121.1647              1136.8349
 Red. masses --      2.4723                 2.4443                 2.4538
 Frc consts  --      1.7673                 1.8103                 1.8685
 IR Inten    --     14.5719               100.7027                56.9051

                     31                     32                     33
                      A                      A                      A
 Frequencies --   1181.4494              1191.7297              1199.8387
 Red. masses --      2.6346                 2.5149                 3.5028
 Frc consts  --      2.1667                 2.1044                 2.9711
 IR Inten    --     17.5946                 7.0827               167.0332

                     34                     35                     36
                      A                      A                      A
 Frequencies --   1257.9531              1292.1561              1304.7113
 Red. masses --      1.2801                 1.3475                 1.2273
 Frc consts  --      1.1935                 1.3255                 1.2309
 IR Inten    --      5.3417                27.0530                 6.1420

                     37                     38                     39
                      A                      A                      A
 Frequencies --   1355.2649              1362.9915              1378.1144
 Red. masses --      1.3511                 1.3316                 1.2936
 Frc consts  --      1.4622                 1.4575                 1.4475
 IR Inten    --      0.4309                 5.5317                11.5477

                     40                     41                     42
                      A                      A                      A
 Frequencies --   1404.6112              1409.3290              1425.6892
 Red. masses --      1.2393                 1.2161                 1.2721
 Frc consts  --      1.4406                 1.4232                 1.5234
 IR Inten    --     18.1472                22.3894                19.5555

                     43                     44                     45
                      A                      A                      A
 Frequencies --   1427.4939              1435.7969              1441.3008
 Red. masses --      1.3107                 1.3082                 1.2430
 Frc consts  --      1.5737                 1.5890                 1.5214
 IR Inten    --     19.1468                13.6988                 0.9333

                     46                     47                     48
                      A                      A                      A
 Frequencies --   1447.6697              1511.3733              1526.1049
 Red. masses --      1.3749                 1.0797                 1.0592
 Frc consts  --      1.6977                 1.4532                 1.4535
 IR Inten    --     15.9445                 0.5737                 2.0803

                     49                     50                     51
                      A                      A                      A
 Frequencies --   1527.4908              1536.3325              1537.6419
 Red. masses --      1.0403                 1.0561                 1.0584
 Frc consts  --      1.4302                 1.4687                 1.4744
 IR Inten    --      4.4281                 3.4127                 4.3040

                     52                     53                     54
                      A                      A                      A
 Frequencies --   1545.6081              2989.5561              3052.1486
 Red. masses --      1.0792                 1.0710                 1.0374
 Frc consts  --      1.5190                 5.6397                 5.6938
 IR Inten    --      9.3688                43.2515                27.1076

                     55                     56                     57
                      A                      A                      A
 Frequencies --   3059.0291              3070.8919              3075.2893
 Red. masses --      1.0385                 1.0613                 1.0864
 Frc consts  --      5.7256                 5.8967                 6.0535
 IR Inten    --      9.3219                19.7671                24.0976

                     58                     59                     60
                      A                      A                      A
 Frequencies --   3084.4990              3104.6212              3105.1415
 Red. masses --      1.0892                 1.0873                 1.0980
 Frc consts  --      6.1053                 6.1745                 6.2377
 IR Inten    --     21.6417                19.3990                22.9731

                     61                     62                     63
                      A                      A                      A
 Frequencies --   3120.8315              3126.6875              3130.2606
 Red. masses --      1.1016                 1.0938                 1.0994
 Frc consts  --      6.3213                 6.3003                 6.3469
 IR Inten    --     49.9118                32.5321                48.2628

                     64                     65                     66
                      A                      A                      A
 Frequencies --   3136.2500              3143.1580              3734.2025
 Red. masses --      1.1025                 1.1016                 1.0656
 Frc consts  --      6.3890                 6.4123                 8.7547
 IR Inten    --     24.0239                26.4972                 8.4709

 - Thermochemistry -
 -------------------
 Temperature   298.150 Kelvin.  Pressure   1.00000 Atm.
 Atom     1 has atomic number  6 and mass  12.00000

 Molecular mass:   146.09429 amu.
 Principal axes and moments of inertia in atomic units:
                           1         2         3
     Eigenvalues --   820.695041871.143742137.59683
           X            0.99987   0.01297   0.00926
           Y           -0.01263   0.99928  -0.03571
           Z           -0.00972   0.03559   0.99932
 This molecule is an asymmetric top.
 Rotational symmetry number  1.
 Warning -- assumption of classical behavior for rotation
           may cause significant error
 Rotational temperatures (Kelvin)      0.10554     0.04629     0.04052
 Rotational constants (GHZ):           2.19904     0.96451     0.84429
 Zero-point vibrational energy     558533.6 (Joules/Mol)
                                  133.49273 (Kcal/Mol)
 Warning -- explicit consideration of  16 degrees of freedom as
           vibrations may cause significant error
 Vibrational temperatures:    107.90   155.30   193.44   302.12   348.51
          (Kelvin)            357.55   388.43   419.10   485.00   489.85
                              539.22   620.08   683.92   714.82   767.09
                              858.90  1006.10  1117.82  1177.07  1234.22
                             1314.99  1369.43  1433.59  1467.67  1504.51
                             1508.95  1572.61  1584.80  1613.11  1635.65
                             1699.84  1714.63  1726.30  1809.91  1859.12
                             1877.19  1949.92  1961.04  1982.80  2020.92
                             2027.71  2051.25  2053.85  2065.79  2073.71
                             2082.87  2174.53  2195.72  2197.72  2210.44
                             2212.32  2223.79  4301.30  4391.36  4401.26
                             4418.33  4424.66  4437.91  4466.86  4467.61
                             4490.18  4498.61  4503.75  4512.36  4522.30
                             5372.68

 Zero-point correction=                           0.212734 (Hartree/Particle)
 Thermal correction to Energy=                    0.223201
 Thermal correction to Enthalpy=                  0.224145
 Thermal correction to Gibbs Free Energy=         0.177487
 Sum of electronic and zero-point Energies=           -500.641732
 Sum of electronic and thermal Energies=              -500.631265
 Sum of electronic and thermal Enthalpies=            -500.630321
 Sum of electronic and thermal Free Energies=         -500.676979

                     E (Thermal)             CV                S
                      KCal/Mol        Cal/Mol-Kelvin    Cal/Mol-Kelvin
 Total                  140.061             40.098             98.200
 Electronic               0.000              0.000              0.000
 Translational            0.889              2.981             40.848
 Rotational               0.889              2.981             29.575
 Vibrational            138.283             34.136             27.778
 Vibration     1          0.599              1.966              4.018
 Vibration     2          0.606              1.943              3.306
 Vibration     3          0.613              1.919              2.881
 Vibration     4          0.642              1.826              2.044
 Vibration     5          0.658              1.776              1.786
 Vibration     6          0.662              1.765              1.741
 Vibration     7          0.674              1.728              1.596
 Vibration     8          0.687              1.690              1.466
 Vibration     9          0.718              1.601              1.226
 Vibration    10          0.720              1.595              1.210
 Vibration    11          0.746              1.524              1.060
 Vibration    12          0.792              1.403              0.855
 Vibration    13          0.832              1.305              0.723
 Vibration    14          0.852              1.257              0.666
 Vibration    15          0.888              1.177              0.580
 Vibration    16          0.955              1.038              0.455

                           ! Non-Optimized Parameters !

 1\1\GINC-NODE365\Freq\RB3LYP\6-31G(d)\C7H14O3\VSC10255\13-Dec-2020\0\\
 #N Geom=AllCheck Guess=TCheck SCRF=Check GenChk RB3LYP/6-31G(d) Freq\\
 CID_20334604_JID_330_neutraal\\0,1\C,1.0030735326,-0.0941867093,0.0480
 690305\C,0.1543789384,0.9888060254,-0.6214401112\C,0.4623736446,1.0997
 954424,-2.1204461044\O,0.1668119216,-0.0985854535,-2.8202851928\C,-1.2
 203132191,-0.2825033058,-3.0722938726\C,-1.761494692,0.8977362569,-3.8
 775759358\C,-1.4683219513,2.218673727,-3.139553858\O,-0.0907414969,2.2
 491994432,-2.7370385166\C,-2.4470298838,2.5229825586,-1.9993761894\O,-

 Normal termination of Gaussian 16 at Sun Dec 13 15:56:31 2020.

 ----------------------------------------------------------------------
 # B3LYP/6-311++G(d,p) empiricaldispersion=gd3bj scf=xqc pop=npa geom=c
 heck
 ----------------------------------------------------------------------

 -------------------------------------
 CID_20334604_JID_330_Energie_neutraal
 -------------------------------------
 Structure from the checkpoint file:  "JID_330.chk"
 Charge =  0 Multiplicity = 1

 SCF Done:  E(RB3LYP) =  -501.010548955     A.U. after   13 cycles
 Normal termination of Gaussian 16 at Sun Dec 13 15:57:53 2020.

 ----------------------------------------------------------------------
 # B3LYP/6-311++G(d,p) empiricaldispersion=gd3bj scf=xqc pop=npa geom=c
 heck
 ----------------------------------------------------------------------

 -----------------------------------
 CID_20334604_JID_330_Energie_kation
 -----------------------------------
 Structure from the checkpoint file:  "JID_330.chk"
 Charge =  1 Multiplicity = 2

 SCF Done:  E(UB3LYP) =  -500.671863902     A.U. after   33 cycles
 SCF Done:  E(UB3LYP) =  -500.671864051     a.u. after    2 cycles
 Normal termination of Gaussian 16 at Sun Dec 13 16:05:12 2020.
 Gaussian 16:  ES64L-G16RevA.03 25-Dec-2016

 ----------------------------------
 CID_20334604_JID_330_Energie_anion
 ----------------------------------
 Structure from the checkpoint file:  "JID_330.chk"
 Charge = -1 Multiplicity = 2

                         Standard orientation:
 ---------------------------------------------------------------------
 Center     Atomic      Atomic             Coordinates (Angstroms)
 Number     Number       Type             X           Y           Z
 ---------------------------------------------------------------------
      1          6           0       -3.196087   -0.179844   -0.671570
      2          6           0       -1.913074    0.610698   -0.406388
      3          6           0       -1.120074    0.020901    0.767277
      4          8           0       -0.698691   -1.310549    0.516424
      5          6           0        0.427190   -1.397382   -0.347464
      6          6           0        1.599286   -0.620000    0.249351
      7          6           0        1.180357    0.837568    0.524119
      8          8           0       -0.070685    0.853884    1.227899
      9          6           0        1.195325    1.732728   -0.720446
     10          8           0        2.768182   -0.713835   -0.552681
     11          1           0       -2.964800   -1.221067   -0.916163
     12          1           0       -3.761690    0.253409   -1.502993
     13          1           0       -3.847451   -0.182917    0.210800
     14          1           0       -1.302095    0.635394   -1.313817
     15          1           0       -2.142360    1.652543   -0.154881
     16          1           0       -1.788562   -0.065354    1.629672
     17          1           0        0.190735   -1.025373   -1.358656
     18          1           0        0.676437   -2.457690   -0.433098
     19          1           0        1.856080   -1.086860    1.204221
     20          1           0        1.885632    1.268048    1.242231
     21          1           0        0.721070    2.689104   -0.483812
     22          1           0        2.229020    1.931449   -1.022849
     23          1           0        0.665065    1.299374   -1.574703
     24          1           0        2.554942   -0.354074   -1.428368
 ---------------------------------------------------------------------

 SCF Done:  E(UB3LYP) =  -500.996128818     A.U. after   25 cycles

 The electronic state is 2-A.
 Alpha  occ. eigenvalues --  -19.02915 -19.02481 -19.02446 -10.16594 -10.12253
 Alpha  occ. eigenvalues --  -10.12034 -10.11416 -10.06054 -10.05432 -10.05328
 Alpha  occ. eigenvalues --   -0.97393  -0.92679  -0.90696  -0.69950  -0.66103
 Alpha  occ. eigenvalues --   -0.62134  -0.56879  -0.55624  -0.50765  -0.45545
 Alpha  occ. eigenvalues --   -0.43034  -0.41060  -0.38877  -0.35859  -0.35245
 Alpha  occ. eigenvalues --   -0.33623  -0.32676  -0.31548  -0.29958  -0.28760
 Alpha  occ. eigenvalues --   -0.27404  -0.27048  -0.26471  -0.25625  -0.23649
 Alpha  occ. eigenvalues --   -0.22708  -0.21850  -0.19958  -0.15832  -0.15201
 Alpha  occ. eigenvalues --    0.04880
 Alpha virt. eigenvalues --    0.07284   0.08200   0.08637   0.09810   0.10159
 Alpha virt. eigenvalues --    0.10869   0.11179   0.11615   0.12799   0.13252
 Alpha virt. eigenvalues --    0.13631   0.14993   0.15325   0.16787   0.16917

  Beta  occ. eigenvalues --  -19.02912 -19.02477 -19.02403 -10.16590 -10.12245
  Beta  occ. eigenvalues --  -10.12031 -10.11381 -10.06029 -10.05400 -10.05268
  Beta  occ. eigenvalues --   -0.97380  -0.92595  -0.90684  -0.69914  -0.66056
  Beta  occ. eigenvalues --   -0.62073  -0.56834  -0.55544  -0.50684  -0.45474
  Beta  occ. eigenvalues --   -0.42995  -0.41027  -0.38825  -0.35814  -0.35203
  Beta  occ. eigenvalues --   -0.33573  -0.32638  -0.31501  -0.29915  -0.28709
  Beta  occ. eigenvalues --   -0.27354  -0.27005  -0.26424  -0.25575  -0.23608
  Beta  occ. eigenvalues --   -0.22677  -0.21817  -0.19928  -0.15808  -0.15174
  Beta virt. eigenvalues --    0.07409   0.08281   0.08830   0.09171   0.10398
  Beta virt. eigenvalues --    0.10719   0.11256   0.11912   0.12126   0.13320
  Beta virt. eigenvalues --    0.13844   0.14065   0.15397   0.16026   0.16927

 Mulliken charges and spin densities:
               1          2
     1  C    1.496710  -2.074604
     2  C   -0.933586   1.091489
     3  C   -0.081418  -0.406741
     4  O   -0.100814   0.036466
     5  C    0.757816  -1.048223
     6  C    0.268593  -0.550182
     7  C   -1.942241   1.694558
     8  O   -0.070816  -0.003380
     9  C    2.250614  -2.688567
    10  O   -0.170090  -0.022512
    11  H   -0.052707   0.207502
    12  H   -0.628067   0.779297
    13  H   -0.121022   0.238473
    14  H    0.427394  -0.305059
    15  H   -0.224629   0.394088
    16  H    0.061775   0.142200
    17  H   -0.359432   0.569670
    18  H    0.040392   0.136733
    19  H    0.164302   0.040481
    20  H   -0.167668   0.364151
    21  H   -0.110780   0.261688
    22  H   -0.479379   0.638499
    23  H   -0.830307   1.042918
    24  H   -0.194639   0.461057
 Sum of Mulliken charges =  -1.00000   1.00000

 Dipole moment (field-independent basis, Debye):
    X=              0.0800    Y=             -2.2756    Z=              5.9328  Tot=              6.3548
 Quadrupole moment (field-independent basis, Debye-Ang):
   XX=           -120.0197   YY=            -96.9463   ZZ=           -101.7749
   XY=             -0.1542   XZ=              1.2656   YZ=              2.9749

 Summary of Natural Population Analysis:

                                       Natural Population
                Natural  -----------------------------------------------
    Atom  No    Charge         Core      Valence    Rydberg      Total
 -----------------------------------------------------------------------
      C    1   -0.28620      0.99966     2.28041    0.00613     3.28620
      C    2   -0.21729      0.99961     2.20857    0.00911     3.21729
      C    3    0.22588      0.99956     1.75471    0.01986     2.77412
      O    4   -0.30297      0.99989     3.29480    0.00828     4.30297
      C    5   -0.02809      0.99955     2.01364    0.01491     3.02809
      C    6    0.04384      0.99953     1.94247    0.01416     2.95616
      C    7    0.05693      0.99953     1.92815    0.01539     2.94307
      O    8   -0.30778      0.99988     3.29906    0.00885     4.30778
      C    9   -0.31068      0.99964     2.30355    0.00750     3.31068
      O   10   -0.36851      0.99990     3.36206    0.00655     4.36851
      H   11    0.10125      0.00000     0.39742    0.00133     0.39875
      H   12    0.10215      0.00000     0.39641    0.00144     0.39785
      H   13    0.09305      0.00000     0.40592    0.00104     0.40695
      H   14    0.10196      0.00000     0.39570    0.00234     0.39804
      H   15    0.10241      0.00000     0.39622    0.00137     0.39759
      H   16    0.08257      0.00000     0.41595    0.00148     0.41743
      H   17    0.08527      0.00000     0.41230    0.00242     0.41473
      H   18    0.09476      0.00000     0.40400    0.00124     0.40524
      H   19    0.08788      0.00000     0.41023    0.00189     0.41212
      H   20    0.09114      0.00000     0.40731    0.00154     0.40886
      H   21    0.10872      0.00000     0.38989    0.00139     0.39128
      H   22    0.10648      0.00000     0.39179    0.00174     0.39352
      H   23    0.10178      0.00000     0.39455    0.00368     0.39822
      H   24    0.23547      0.00000     0.25762    0.00691     0.26453
 =======================================================================
   * Total *    0.00000      9.99673    29.86273    0.14054    40.00000

 Normal termination of Gaussian 16 at Sun Dec 13 16:08:36 2020.
