 Gaussian 16, Revision A.03,

 -----------------------------------------------------------
 # opt freq B3LYP/6-31G(d) empiricaldispersion=gd3bj scf=xqc
 -----------------------------------------------------------

 -------------------------------
 CID_130523188_JID_4051_neutraal
 -------------------------------
 Symbolic Z-matrix:
 Charge =  0 Multiplicity = 1

 SCF Done:  E(RB3LYP) =  -636.995871228     A.U. after   13 cycles
 SCF Done:  E(RB3LYP) =  -636.999044430     A.U. after   11 cycles
 SCF Done:  E(RB3LYP) =  -636.998814840     A.U. after   11 cycles
 SCF Done:  E(RB3LYP) =  -636.999527631     A.U. after   11 cycles
 SCF Done:  E(RB3LYP) =  -637.000164475     A.U. after   11 cycles
 SCF Done:  E(RB3LYP) =  -637.000330131     A.U. after   10 cycles
 SCF Done:  E(RB3LYP) =  -637.000393119     A.U. after   10 cycles
 SCF Done:  E(RB3LYP) =  -637.000422534     A.U. after   10 cycles
 SCF Done:  E(RB3LYP) =  -637.000496691     A.U. after   11 cycles
 SCF Done:  E(RB3LYP) =  -637.000504964     A.U. after   11 cycles
 SCF Done:  E(RB3LYP) =  -637.002059063     A.U. after   10 cycles
 SCF Done:  E(RB3LYP) =  -637.002067543     A.U. after    9 cycles
 SCF Done:  E(RB3LYP) =  -637.002068800     A.U. after    9 cycles
 SCF Done:  E(RB3LYP) =  -637.002070412     A.U. after    9 cycles
 SCF Done:  E(RB3LYP) =  -637.002070594     A.U. after    8 cycles
 SCF Done:  E(RB3LYP) =  -637.002070765     A.U. after    7 cycles
 Optimization completed.
    -- Stationary point found.
 Normal termination of Gaussian 16 at Thu Dec 10 09:32:32 2020.

 --------------------------------------------------------------------
 #N Geom=AllCheck Guess=TCheck SCRF=Check GenChk RB3LYP/6-31G(d) Freq
 --------------------------------------------------------------------

 Structure from the checkpoint file:  "JID_4051.chk"
 -------------------------------
 CID_130523188_JID_4051_neutraal
 -------------------------------
 Charge =  0 Multiplicity = 1

 SCF Done:  E(RB3LYP) =  -637.002070765     A.U. after    1 cycles

  Exact polarizability: 137.265   1.164 118.707   0.717   1.427 115.356
 Approx polarizability: 175.903   4.332 175.696   2.615   1.713 170.379

                      1                      2                      3
                      A                      A                      A
 Frequencies --     40.4877                51.0593                60.7896
 Red. masses --      4.6394                 3.1470                 4.0493
 Frc consts  --      0.0045                 0.0048                 0.0088
 IR Inten    --      0.2552                 0.1560                 1.0697

                      4                      5                      6
                      A                      A                      A
 Frequencies --     99.4618               154.0935               191.6494
 Red. masses --      3.4674                 3.2290                 2.5631
 Frc consts  --      0.0202                 0.0452                 0.0555
 IR Inten    --      0.2459                 0.1709                 1.4089

                      7                      8                      9
                      A                      A                      A
 Frequencies --    222.9026               238.5908               257.4357
 Red. masses --      2.7169                 1.7814                 2.5089
 Frc consts  --      0.0795                 0.0597                 0.0980
 IR Inten    --     13.9300                 0.8996                 2.6805

                     10                     11                     12
                      A                      A                      A
 Frequencies --    296.0284               315.9024               340.0675
 Red. masses --      1.2215                 2.5837                 1.7286
 Frc consts  --      0.0631                 0.1519                 0.1178
 IR Inten    --     51.0763                 7.6478                 0.5159

                     13                     14                     15
                      A                      A                      A
 Frequencies --    367.1310               412.0517               431.7850
 Red. masses --      4.0362                 3.2698                 2.2057
 Frc consts  --      0.3205                 0.3271                 0.2423
 IR Inten    --     20.3052                12.1751                 4.5873

                     16                     17                     18
                      A                      A                      A
 Frequencies --    437.6773               451.0254               474.6901
 Red. masses --      2.0178                 2.6635                 2.6258
 Frc consts  --      0.2277                 0.3192                 0.3486
 IR Inten    --      0.9791                 0.1640                 3.7349

                     19                     20                     21
                      A                      A                      A
 Frequencies --    537.5289               581.2215               586.6708
 Red. masses --      1.6004                 3.7014                 2.8033
 Frc consts  --      0.2725                 0.7367                 0.5685
 IR Inten    --      0.7978                 0.2083                 6.0695

                     22                     23                     24
                      A                      A                      A
 Frequencies --    653.8243               757.2441               780.4102
 Red. masses --      5.4117                 3.3549                 2.8436
 Frc consts  --      1.3630                 1.1334                 1.0204
 IR Inten    --      8.6295                 6.1546                 6.0764

                     25                     26                     27
                      A                      A                      A
 Frequencies --    802.5889               846.1702               851.1249
 Red. masses --      1.4633                 1.9115                 2.3012
 Frc consts  --      0.5554                 0.8064                 0.9822
 IR Inten    --      0.0806                 2.9354                 0.4345

                     28                     29                     30
                      A                      A                      A
 Frequencies --    880.0771               886.1933               905.2052
 Red. masses --      2.8933                 2.1698                 1.9363
 Frc consts  --      1.3203                 1.0040                 0.9348
 IR Inten    --      8.8487                 2.3486                 3.2715

                     31                     32                     33
                      A                      A                      A
 Frequencies --    925.1588               934.2445               947.6248
 Red. masses --      1.8371                 1.4939                 1.4627
 Frc consts  --      0.9265                 0.7682                 0.7739
 IR Inten    --      0.3715                 0.9752                 2.4724

                     34                     35                     36
                      A                      A                      A
 Frequencies --    977.5109              1015.5601              1026.4395
 Red. masses --      2.5423                 2.2695                 2.1662
 Frc consts  --      1.4313                 1.3791                 1.3446
 IR Inten    --      1.5059                 1.8135                 2.3001

                     37                     38                     39
                      A                      A                      A
 Frequencies --   1052.1357              1055.2534              1075.5773
 Red. masses --      1.8323                 6.4574                 1.6199
 Frc consts  --      1.1950                 4.2367                 1.1041
 IR Inten    --      0.6531                24.5171                 3.0273

                     40                     41                     42
                      A                      A                      A
 Frequencies --   1084.1226              1093.9881              1106.1624
 Red. masses --      1.4749                 1.9384                 1.6325
 Frc consts  --      1.0213                 1.3669                 1.1769
 IR Inten    --     14.5550                15.4142                 0.9406

                     43                     44                     45
                      A                      A                      A
 Frequencies --   1114.0511              1124.6570              1132.8817
 Red. masses --      2.5216                 2.8050                 2.8589
 Frc consts  --      1.8439                 2.0904                 2.1618
 IR Inten    --      4.4312                18.6552                66.6454

                     46                     47                     48
                      A                      A                      A
 Frequencies --   1154.9611              1171.1781              1219.2972
 Red. masses --      1.6340                 2.0348                 1.4656
 Frc consts  --      1.2842                 1.6444                 1.2838
 IR Inten    --     17.4034                 4.3874                 1.2052

                     49                     50                     51
                      A                      A                      A
 Frequencies --   1226.9791              1242.3875              1245.2863
 Red. masses --      1.2362                 1.4175                 1.5192
 Frc consts  --      1.0965                 1.2891                 1.3881
 IR Inten    --      1.1252                 0.6876                 3.6451

                     52                     53                     54
                      A                      A                      A
 Frequencies --   1295.9495              1303.1130              1310.9116
 Red. masses --      1.2600                 1.2665                 1.3006
 Frc consts  --      1.2468                 1.2671                 1.3169
 IR Inten    --      1.2258                 3.1976                 2.4566

                     55                     56                     57
                      A                      A                      A
 Frequencies --   1313.2027              1324.9015              1332.2473
 Red. masses --      1.3240                 1.3294                 1.2539
 Frc consts  --      1.3452                 1.3749                 1.3112
 IR Inten    --      2.6541                 2.1675                 0.9476

                     58                     59                     60
                      A                      A                      A
 Frequencies --   1347.0454              1352.5447              1370.7431
 Red. masses --      1.3073                 1.3077                 1.2479
 Frc consts  --      1.3976                 1.4095                 1.3815
 IR Inten    --      1.5899                 1.8772                14.4482

                     61                     62                     63
                      A                      A                      A
 Frequencies --   1381.6515              1389.0505              1392.5385
 Red. masses --      1.3621                 1.3670                 1.3770
 Frc consts  --      1.5320                 1.5540                 1.5733
 IR Inten    --      3.4205                 2.3248                 4.2645

                     64                     65                     66
                      A                      A                      A
 Frequencies --   1401.4100              1403.8094              1411.6259
 Red. masses --      1.5076                 1.5284                 1.4240
 Frc consts  --      1.7445                 1.7746                 1.6719
 IR Inten    --      0.6218                 2.4366                 6.6566

                     67                     68                     69
                      A                      A                      A
 Frequencies --   1416.3122              1426.3409              1455.1928
 Red. masses --      1.3804                 1.4115                 1.2712
 Frc consts  --      1.6314                 1.6919                 1.5860
 IR Inten    --      1.2631                 9.8873                39.7661

                     70                     71                     72
                      A                      A                      A
 Frequencies --   1507.4430              1509.9505              1513.4823
 Red. masses --      1.0823                 1.0889                 1.0923
 Frc consts  --      1.4491                 1.4627                 1.4741
 IR Inten    --      3.1729                 1.8136                 1.7140

                     73                     74                     75
                      A                      A                      A
 Frequencies --   1517.2156              1517.6230              1522.5459
 Red. masses --      1.0900                 1.0979                 1.0868
 Frc consts  --      1.4783                 1.4898                 1.4844
 IR Inten    --      0.8421                 3.0182                13.1210

                     76                     77                     78
                      A                      A                      A
 Frequencies --   1536.2124              1536.5566              1550.9321
 Red. masses --      1.0953                 1.0934                 1.0880
 Frc consts  --      1.5230                 1.5209                 1.5420
 IR Inten    --      0.6664                 2.1288                 0.4977

                     79                     80                     81
                      A                      A                      A
 Frequencies --   2989.3090              3012.3633              3013.5856
 Red. masses --      1.0709                 1.0722                 1.0707
 Frc consts  --      5.6382                 5.7324                 5.7293
 IR Inten    --     71.0772                 5.1106                22.5524

                     82                     83                     84
                      A                      A                      A
 Frequencies --   3017.8535              3019.7593              3021.9504
 Red. masses --      1.0727                 1.0626                 1.0664
 Frc consts  --      5.7560                 5.7089                 5.7376
 IR Inten    --     12.5718                 4.3199                 9.3469

                     85                     86                     87
                      A                      A                      A
 Frequencies --   3028.3824              3033.2349              3056.7827
 Red. masses --      1.0637                 1.0668                 1.0613
 Frc consts  --      5.7477                 5.7827                 5.8427
 IR Inten    --     10.0419                98.3314                48.1767

                     88                     89                     90
                      A                      A                      A
 Frequencies --   3064.3139              3066.3649              3073.4991
 Red. masses --      1.0973                 1.0642                 1.0937
 Frc consts  --      6.0709                 5.8954                 6.0874
 IR Inten    --     48.1818                12.3688                83.2585

                     91                     92                     93
                      A                      A                      A
 Frequencies --   3074.4562              3076.6549              3079.7860
 Red. masses --      1.0964                 1.0900                 1.1021
 Frc consts  --      6.1062                 6.0789                 6.1589
 IR Inten    --     44.6380                49.6968                42.3713

                     94                     95                     96
                      A                      A                      A
 Frequencies --   3083.2772              3096.5910              3100.3026
 Red. masses --      1.0979                 1.1016                 1.1005
 Frc consts  --      6.1496                 6.2235                 6.2324
 IR Inten    --    103.5390                14.8179                33.7502

                     97                     98                     99
                      A                      A                      A
 Frequencies --   3114.9083              3128.6557              3716.9185
 Red. masses --      1.0929                 1.0941                 1.0655
 Frc consts  --      6.2479                 6.3102                 8.6732
 IR Inten    --     19.0582                57.6409                15.9513

 - Thermochemistry -
 -------------------
 Temperature   298.150 Kelvin.  Pressure   1.00000 Atm.
 Atom     1 has atomic number  6 and mass  12.00000

 Molecular mass:   199.15723 amu.
 Principal axes and moments of inertia in atomic units:
                           1         2         3
     Eigenvalues --  1687.046694183.073384633.22931
           X            1.00000  -0.00007  -0.00148
           Y            0.00010   0.99990   0.01380
           Z            0.00148  -0.01380   0.99990
 This molecule is an asymmetric top.
 Rotational symmetry number  1.
 Warning -- assumption of classical behavior for rotation
           may cause significant error
 Rotational temperatures (Kelvin)      0.05134     0.02071     0.01869
 Rotational constants (GHZ):           1.06976     0.43144     0.38952
 Zero-point vibrational energy     837661.4 (Joules/Mol)
                                  200.20588 (Kcal/Mol)
 Warning -- explicit consideration of  21 degrees of freedom as
           vibrations may cause significant error
 Vibrational temperatures:     58.25    73.46    87.46   143.10   221.71
          (Kelvin)            275.74   320.71   343.28   370.39   425.92
                              454.51   489.28   528.22   592.85   621.24
                              629.72   648.92   682.97   773.38   836.25
                              844.09   940.71  1089.51  1122.84  1154.75
                             1217.45  1224.58  1266.23  1275.03  1302.39
                             1331.10  1344.17  1363.42  1406.42  1461.16
                             1476.82  1513.79  1518.27  1547.52  1559.81
                             1574.00  1591.52  1602.87  1618.13  1629.96
                             1661.73  1685.06  1754.30  1765.35  1787.52
                             1791.69  1864.58  1874.89  1886.11  1889.41
                             1906.24  1916.81  1938.10  1946.01  1972.19
                             1987.89  1998.53  2003.55  2016.32  2019.77
                             2031.01  2037.76  2052.19  2093.70  2168.87
                             2172.48  2177.56  2182.93  2183.52  2190.60
                             2210.27  2210.76  2231.45  4300.95  4334.12
                             4335.88  4342.02  4344.76  4347.91  4357.17
                             4364.15  4398.03  4408.86  4411.82  4422.08
                             4423.46  4426.62  4431.13  4436.15  4455.30
                             4460.64  4481.66  4501.44  5347.82

 Zero-point correction=                           0.319048 (Hartree/Particle)
 Thermal correction to Energy=                    0.332726
 Thermal correction to Enthalpy=                  0.333670
 Thermal correction to Gibbs Free Energy=         0.278426
 Sum of electronic and zero-point Energies=           -636.683022
 Sum of electronic and thermal Energies=              -636.669345
 Sum of electronic and thermal Enthalpies=            -636.668400
 Sum of electronic and thermal Free Energies=         -636.723645

                     E (Thermal)             CV                S
                      KCal/Mol        Cal/Mol-Kelvin    Cal/Mol-Kelvin
 Total                  208.789             54.267            116.271
 Electronic               0.000              0.000              0.000
 Translational            0.889              2.981             41.772
 Rotational               0.889              2.981             31.859
 Vibrational            207.011             48.305             42.641
 Vibration     1          0.594              1.981              5.235
 Vibration     2          0.595              1.977              4.776
 Vibration     3          0.597              1.973              4.431
 Vibration     4          0.604              1.949              3.465
 Vibration     5          0.620              1.898              2.621
 Vibration     6          0.634              1.851              2.212
 Vibration     7          0.649              1.806              1.935
 Vibration     8          0.657              1.781              1.813
 Vibration     9          0.667              1.750              1.679
 Vibration    10          0.690              1.681              1.439
 Vibration    11          0.703              1.643              1.331
 Vibration    12          0.720              1.595              1.212
 Vibration    13          0.740              1.540              1.092
 Vibration    14          0.776              1.444              0.919
 Vibration    15          0.793              1.401              0.853
 Vibration    16          0.798              1.388              0.834
 Vibration    17          0.810              1.359              0.793
 Vibration    18          0.831              1.306              0.725
 Vibration    19          0.893              1.167              0.571
 Vibration    20          0.938              1.072              0.483
 Vibration    21          0.944              1.060              0.473

                           ! Non-Optimized Parameters !
 Normal termination of Gaussian 16 at Thu Dec 10 09:43:40 2020.

 ----------------------------------------------------------------------
 # B3LYP/6-311++G(d,p) empiricaldispersion=gd3bj scf=xqc pop=npa geom=c
 heck
 ----------------------------------------------------------------------

 ---------------------------------------
 CID_130523188_JID_4051_Energie_neutraal
 ---------------------------------------
 Structure from the checkpoint file:  "JID_4051.chk"
 Charge =  0 Multiplicity = 1

 SCF Done:  E(RB3LYP) =  -637.188224378     A.U. after   13 cycles
 Normal termination of Gaussian 16 at Thu Dec 10 09:47:56 2020.

 ----------------------------------------------------------------------
 # B3LYP/6-311++G(d,p) empiricaldispersion=gd3bj scf=xqc pop=npa geom=c
 heck
 ----------------------------------------------------------------------

 -------------------------------------
 CID_130523188_JID_4051_Energie_kation
 -------------------------------------
 Structure from the checkpoint file:  "JID_4051.chk"
 Charge =  1 Multiplicity = 2

 SCF Done:  E(UB3LYP) =  -636.893650367     A.U. after   20 cycles
 Normal termination of Gaussian 16 at Thu Dec 10 09:56:39 2020.
 Gaussian 16:  ES64L-G16RevA.03 25-Dec-2016

 ----------------------------------------------------------------------
 # B3LYP/6-311++G(d,p) empiricaldispersion=gd3bj scf=xqc pop=npa geom=c
 heck
 ----------------------------------------------------------------------

 ------------------------------------
 CID_130523188_JID_4051_Energie_anion
 ------------------------------------
 Structure from the checkpoint file:  "JID_4051.chk"
 Charge = -1 Multiplicity = 2

                         Standard orientation:
 ---------------------------------------------------------------------
 Center     Atomic      Atomic             Coordinates (Angstroms)
 Number     Number       Type             X           Y           Z
 ---------------------------------------------------------------------
      1          6           0       -3.697779    0.540901   -0.201529
      2          6           0       -2.960347    0.759016    1.125569
      3          6           0       -1.953715   -0.366320    1.395645
      4          6           0       -0.952624   -0.538510    0.240749
      5          6           0       -1.703282   -0.754966   -1.082867
      6          6           0       -2.708960    0.370381   -1.361336
      7          6           0        0.049704   -1.658472    0.559753
      8          6           0        1.198049   -1.930494   -0.430702
      9          7           0        2.291788   -0.965832   -0.568481
     10          6           0        1.993762    0.318671   -1.224278
     11          6           0        2.307952    1.432053   -0.192232
     12          6           0        2.356132    0.637184    1.119310
     13          8           0        2.825656   -0.650042    0.753448
     14          8           0        1.410008    2.525053   -0.192835
     15          1           0       -4.380315    1.375879   -0.401462
     16          1           0       -4.319554   -0.362768   -0.123217
     17          1           0       -2.425902    1.720441    1.087409
     18          1           0       -3.675403    0.834625    1.953756
     19          1           0       -2.494525   -1.313828    1.538296
     20          1           0       -1.409891   -0.175879    2.330271
     21          1           0       -0.408484    0.413544    0.155474
     22          1           0       -2.234006   -1.717508   -1.031545
     23          1           0       -0.998044   -0.835768   -1.918956
     24          1           0       -3.246276    0.173092   -2.296868
     25          1           0       -2.160656    1.312936   -1.510342
     26          1           0        0.491454   -1.483741    1.547837
     27          1           0       -0.516067   -2.597660    0.648893
     28          1           0        1.666686   -2.875170   -0.133230
     29          1           0        0.816558   -2.084093   -1.447272
     30          1           0        2.616805    0.425877   -2.118321
     31          1           0        0.947481    0.388271   -1.538697
     32          1           0        3.286250    1.870794   -0.401737
     33          1           0        1.352190    0.605715    1.574987
     34          1           0        3.061007    1.041835    1.850215
     35          1           0        0.529502    2.187472    0.040474
 ---------------------------------------------------------------------

 SCF Done:  E(UB3LYP) =  -637.173804186     A.U. after   31 cycles

 The electronic state is 2-A.
 Alpha  occ. eigenvalues --  -19.05918 -19.04487 -14.26048 -10.14380 -10.12945
 Alpha  occ. eigenvalues --  -10.10956 -10.10431 -10.08027 -10.07362 -10.06717
 Alpha  occ. eigenvalues --  -10.06618 -10.06384 -10.06300 -10.06125  -0.98409
 Alpha  occ. eigenvalues --   -0.94642  -0.77606  -0.74075  -0.68928  -0.67356
 Alpha  occ. eigenvalues --   -0.64397  -0.62305  -0.56265  -0.53644  -0.51796
 Alpha  occ. eigenvalues --   -0.50748  -0.47982  -0.46022  -0.43570  -0.42241
 Alpha  occ. eigenvalues --   -0.39811  -0.38106  -0.36887  -0.35432  -0.34889
 Alpha  occ. eigenvalues --   -0.34071  -0.33940  -0.32651  -0.31532  -0.30725
 Alpha  occ. eigenvalues --   -0.29663  -0.28871  -0.28124  -0.27745  -0.26386
 Alpha  occ. eigenvalues --   -0.25181  -0.24855  -0.24565  -0.23583  -0.22296
 Alpha  occ. eigenvalues --   -0.21354  -0.20347  -0.20003  -0.18650  -0.12459
 Alpha  occ. eigenvalues --    0.04407
 Alpha virt. eigenvalues --    0.06481   0.06683   0.07129   0.08160   0.08357
 Alpha virt. eigenvalues --    0.09091   0.09447   0.09776   0.10847   0.11112
 Alpha virt. eigenvalues --    0.11316   0.12238   0.12455   0.12738   0.13344

  Beta  occ. eigenvalues --  -19.05913 -19.04471 -14.26049 -10.14372 -10.12929
  Beta  occ. eigenvalues --  -10.10941 -10.10422 -10.08019 -10.07351 -10.06698
  Beta  occ. eigenvalues --  -10.06601 -10.06361 -10.06274 -10.06103  -0.98399
  Beta  occ. eigenvalues --   -0.94612  -0.77595  -0.74043  -0.68901  -0.67323
  Beta  occ. eigenvalues --   -0.64351  -0.62270  -0.56229  -0.53607  -0.51744
  Beta  occ. eigenvalues --   -0.50695  -0.47933  -0.45955  -0.43542  -0.42213
  Beta  occ. eigenvalues --   -0.39776  -0.38043  -0.36857  -0.35408  -0.34857
  Beta  occ. eigenvalues --   -0.34038  -0.33909  -0.32621  -0.31506  -0.30698
  Beta  occ. eigenvalues --   -0.29636  -0.28844  -0.28074  -0.27722  -0.26359
  Beta  occ. eigenvalues --   -0.25149  -0.24829  -0.24516  -0.23549  -0.22253
  Beta  occ. eigenvalues --   -0.21324  -0.20307  -0.19965  -0.18634  -0.12450
  Beta virt. eigenvalues --    0.06488   0.07131   0.07352   0.07764   0.08622
  Beta virt. eigenvalues --    0.09021   0.09607   0.09799   0.10102   0.11289
  Beta virt. eigenvalues --    0.11557   0.11740   0.12464   0.12841   0.13004

 Mulliken charges and spin densities:
               1          2
     1  C    1.298413  -1.850647
     2  C   -0.204624  -0.051016
     3  C   -0.410490   0.111926
     4  C    0.222465   0.317680
     5  C    0.067277  -0.469015
     6  C   -0.356006   0.059413
     7  C   -0.324604   0.152153
     8  C   -0.092772  -0.513607
     9  N   -0.044541   0.061531
    10  C    0.397964  -0.804212
    11  C   -0.846034   0.554832
    12  C    0.393357  -0.694422
    13  O   -0.065105   0.025739
    14  O   -0.096401  -0.078073
    15  H   -0.382794   0.559607
    16  H    0.091825   0.020301
    17  H   -0.263655   0.381133
    18  H   -0.600734   0.794669
    19  H   -0.270611   0.424898
    20  H   -0.100563   0.241228
    21  H    2.069939  -2.264690
    22  H   -0.262010   0.423180
    23  H   -0.027511   0.135161
    24  H   -0.485145   0.668547
    25  H   -0.118614   0.247171
    26  H    0.147037   0.049218
    27  H    0.078342   0.048347
    28  H    0.062184   0.137253
    29  H   -0.131827   0.301363
    30  H   -0.243271   0.412895
    31  H   -0.022749   0.242555
    32  H   -0.103285   0.309520
    33  H   -0.092924   0.297477
    34  H   -0.235880   0.417469
    35  H   -0.046653   0.330416
 Sum of Mulliken charges =  -1.00000   1.00000

 Dipole moment (field-independent basis, Debye):
    X=              4.4291    Y=             -2.0235    Z=              0.4906  Tot=              4.8941
 Quadrupole moment (field-independent basis, Debye-Ang):
   XX=           -168.7905   YY=           -130.9649   ZZ=           -135.0614
   XY=              5.7650   XZ=              0.8395   YZ=             -2.5301

 Summary of Natural Population Analysis:

                                       Natural Population
                Natural  -----------------------------------------------
    Atom  No    Charge         Core      Valence    Rydberg      Total
 -----------------------------------------------------------------------
      C    1   -0.18781      0.99963     2.18034    0.00784     3.18781
      C    2   -0.18826      0.99963     2.17962    0.00901     3.18826
      C    3   -0.18606      0.99961     2.17661    0.00984     3.18606
      C    4   -0.11495      0.99958     2.10566    0.00972     3.11495
      C    5   -0.19020      0.99961     2.18107    0.00953     3.19020
      C    6   -0.18820      0.99963     2.17957    0.00899     3.18820
      C    7   -0.20048      0.99960     2.19230    0.00858     3.20048
      C    8   -0.08880      0.99959     2.07716    0.01204     3.08880
      N    9   -0.11891      0.99972     2.60492    0.01426     3.61891
      C   10   -0.10978      0.99959     2.09926    0.01093     3.10978
      C   11    0.05067      0.99956     1.93596    0.01381     2.94933
      C   12   -0.02799      0.99959     2.01599    0.01240     3.02799
      O   13   -0.22449      0.99990     3.21638    0.00821     4.22449
      O   14   -0.36320      0.99989     3.35676    0.00655     4.36320
      H   15    0.10042      0.00000     0.39807    0.00151     0.39958
      H   16    0.09236      0.00000     0.40616    0.00147     0.40764
      H   17    0.09137      0.00000     0.40685    0.00179     0.40863
      H   18    0.10105      0.00000     0.39737    0.00158     0.39895
      H   19    0.09457      0.00000     0.40401    0.00141     0.40543
      H   20    0.09924      0.00000     0.39952    0.00124     0.40076
      H   21    0.07941      0.00000     0.41595    0.00464     0.42059
      H   22    0.09568      0.00000     0.40287    0.00145     0.40432
      H   23    0.09814      0.00000     0.40037    0.00150     0.40186
      H   24    0.10072      0.00000     0.39792    0.00136     0.39928
      H   25    0.09169      0.00000     0.40651    0.00179     0.40831
      H   26    0.10245      0.00000     0.39610    0.00145     0.39755
      H   27    0.10067      0.00000     0.39817    0.00117     0.39933
      H   28    0.09736      0.00000     0.40143    0.00121     0.40264
      H   29    0.09906      0.00000     0.39973    0.00121     0.40094
      H   30    0.09980      0.00000     0.39870    0.00150     0.40020
      H   31    0.09928      0.00000     0.39909    0.00163     0.40072
      H   32    0.09084      0.00000     0.40785    0.00132     0.40916
      H   33    0.07977      0.00000     0.41832    0.00191     0.42023
      H   34    0.09577      0.00000     0.40297    0.00126     0.40423
      H   35    0.22882      0.00000     0.26766    0.00351     0.27118
 =======================================================================
   * Total *    0.00000     13.99513    40.82724    0.17763    55.00000

 Normal termination of Gaussian 16 at Thu Dec 10 10:14:23 2020.
