 Gaussian 16, Revision A.03,

 -----------------------------------------------------------
 # opt freq B3LYP/6-31G(d) empiricaldispersion=gd3bj scf=xqc
 -----------------------------------------------------------

 -------------------------------
 CID_105749290_JID_7973_neutraal
 -------------------------------
 Symbolic Z-matrix:
 Charge =  0 Multiplicity = 1

 SCF Done:  E(RB3LYP) =  -725.252810602     A.U. after   15 cycles
 SCF Done:  E(RB3LYP) =  -725.261100222     A.U. after   13 cycles
 SCF Done:  E(RB3LYP) =  -725.263113773     A.U. after   13 cycles
 SCF Done:  E(RB3LYP) =  -725.264163092     A.U. after   12 cycles
 SCF Done:  E(RB3LYP) =  -725.264687267     A.U. after   12 cycles
 SCF Done:  E(RB3LYP) =  -725.264968601     A.U. after   12 cycles
 SCF Done:  E(RB3LYP) =  -725.265067293     A.U. after   12 cycles
 SCF Done:  E(RB3LYP) =  -725.265099882     A.U. after   10 cycles
 SCF Done:  E(RB3LYP) =  -725.265117185     A.U. after   10 cycles
 SCF Done:  E(RB3LYP) =  -725.265125151     A.U. after   10 cycles
 SCF Done:  E(RB3LYP) =  -725.265126633     A.U. after    9 cycles
 SCF Done:  E(RB3LYP) =  -725.265127549     A.U. after    8 cycles
 SCF Done:  E(RB3LYP) =  -725.265127610     A.U. after    7 cycles
 SCF Done:  E(RB3LYP) =  -725.265127628     A.U. after    6 cycles
 SCF Done:  E(RB3LYP) =  -725.265127632     A.U. after    6 cycles
 Optimization completed.
    -- Stationary point found.
 Normal termination of Gaussian 16 at Fri Dec 11 13:27:45 2020.

 --------------------------------------------------------------------
 #N Geom=AllCheck Guess=TCheck SCRF=Check GenChk RB3LYP/6-31G(d) Freq
 --------------------------------------------------------------------

 Structure from the checkpoint file:  "JID_7973.chk"
 -------------------------------
 CID_105749290_JID_7973_neutraal
 -------------------------------
 Charge =  0 Multiplicity = 1

 SCF Done:  E(RB3LYP) =  -725.265127632     A.U. after    1 cycles

  Exact polarizability: 241.297 -23.952 148.184  10.107  13.800 108.879
 Approx polarizability: 343.340 -48.526 238.548  18.640  32.425 165.739

                      1                      2                      3
                      A                      A                      A
 Frequencies --     24.8776                39.7230                43.9869
 Red. masses --      4.5894                 4.2975                 3.3462
 Frc consts  --      0.0017                 0.0040                 0.0038
 IR Inten    --      1.8458                 1.2011                 2.3096

                      4                      5                      6
                      A                      A                      A
 Frequencies --     68.9448                94.3004               111.1469
 Red. masses --      1.7914                 5.9192                 2.4765
 Frc consts  --      0.0050                 0.0310                 0.0180
 IR Inten    --      0.6718                 1.2227                 0.2148

                      7                      8                      9
                      A                      A                      A
 Frequencies --    134.8921               176.4293               186.5443
 Red. masses --      4.9448                 5.0712                 3.8268
 Frc consts  --      0.0530                 0.0930                 0.0785
 IR Inten    --      3.1147                 2.9666                 3.1593

                     10                     11                     12
                      A                      A                      A
 Frequencies --    218.5123               237.2799               255.2178
 Red. masses --      1.9035                 2.5953                 1.3547
 Frc consts  --      0.0535                 0.0861                 0.0520
 IR Inten    --      2.4879                 4.5082                 1.0614

                     13                     14                     15
                      A                      A                      A
 Frequencies --    263.3000               295.3175               314.6902
 Red. masses --      1.7596                 2.2187                 3.5392
 Frc consts  --      0.0719                 0.1140                 0.2065
 IR Inten    --      5.4813                 1.1503                 6.7696

                     16                     17                     18
                      A                      A                      A
 Frequencies --    332.2734               389.0865               403.9555
 Red. masses --      2.9216                 2.1123                 3.8419
 Frc consts  --      0.1900                 0.1884                 0.3694
 IR Inten    --      2.9576                 0.6757                 7.1686

                     19                     20                     21
                      A                      A                      A
 Frequencies --    444.9147               460.2977               502.4102
 Red. masses --      4.3631                 4.1129                 2.6312
 Frc consts  --      0.5089                 0.5134                 0.3913
 IR Inten    --      3.1017                 3.2495                78.7226

                     22                     23                     24
                      A                      A                      A
 Frequencies --    507.5534               530.8001               561.5514
 Red. masses --      6.5532                 2.4032                 5.3563
 Frc consts  --      0.9946                 0.3989                 0.9952
 IR Inten    --      1.4282                20.4870                 1.6035

                     25                     26                     27
                      A                      A                      A
 Frequencies --    584.4026               612.7304               615.0595
 Red. masses --      1.8987                 3.7144                 3.2176
 Frc consts  --      0.3821                 0.8216                 0.7172
 IR Inten    --     79.6233                10.2088                 3.5670

                     28                     29                     30
                      A                      A                      A
 Frequencies --    647.8160               707.4076               716.8518
 Red. masses --      3.0404                 8.8825                 1.5720
 Frc consts  --      0.7518                 2.6189                 0.4759
 IR Inten    --     12.5122                 0.4082                 5.6959

                     31                     32                     33
                      A                      A                      A
 Frequencies --    755.8447               766.1818               803.6718
 Red. masses --      5.4103                 1.2979                 3.0749
 Frc consts  --      1.8211                 0.4489                 1.1702
 IR Inten    --     34.5620                 2.5113                 8.1096

                     34                     35                     36
                      A                      A                      A
 Frequencies --    815.8506               829.4362               866.8786
 Red. masses --      1.1971                 1.4894                 2.1578
 Frc consts  --      0.4695                 0.6037                 0.9554
 IR Inten    --      1.0389               194.0840                 2.7333

                     37                     38                     39
                      A                      A                      A
 Frequencies --    902.6298               909.8178               921.9476
 Red. masses --      1.4194                 2.2036                 2.1322
 Frc consts  --      0.6813                 1.0747                 1.0678
 IR Inten    --     40.5741                 5.3586                 0.9238

                     40                     41                     42
                      A                      A                      A
 Frequencies --    931.4553               952.6581               977.7968
 Red. masses --      1.3899                 2.3959                 1.9064
 Frc consts  --      0.7105                 1.2811                 1.0739
 IR Inten    --      2.2280                 1.6815                 0.4182

                     43                     44                     45
                      A                      A                      A
 Frequencies --    997.4532              1003.7388              1023.6243
 Red. masses --      2.4473                 4.2000                 1.4615
 Frc consts  --      1.4346                 2.4931                 0.9023
 IR Inten    --      0.2163                 1.6705                 3.9035

                     46                     47                     48
                      A                      A                      A
 Frequencies --   1073.1089              1077.5213              1100.7038
 Red. masses --      1.6093                 2.3641                 2.4810
 Frc consts  --      1.0918                 1.6172                 1.7710
 IR Inten    --      9.1877                 0.6705                17.0302

                     49                     50                     51
                      A                      A                      A
 Frequencies --   1150.6412              1176.4344              1191.2776
 Red. masses --      1.5815                 2.0295                 1.6589
 Frc consts  --      1.2337                 1.6549                 1.3871
 IR Inten    --      9.2251                 1.0534                32.4371

                     52                     53                     54
                      A                      A                      A
 Frequencies --   1196.4618              1211.9794              1225.3143
 Red. masses --      2.2027                 2.0223                 1.3959
 Frc consts  --      1.8578                 1.7502                 1.2348
 IR Inten    --     17.6710                 6.1777                 1.0744

                     55                     56                     57
                      A                      A                      A
 Frequencies --   1251.0461              1270.3840              1282.1035
 Red. masses --      2.3036                 1.2373                 1.6645
 Frc consts  --      2.1242                 1.1765                 1.6121
 IR Inten    --     19.0976                 0.7477                 2.3248

                     58                     59                     60
                      A                      A                      A
 Frequencies --   1287.1587              1301.5582              1326.7525
 Red. masses --      1.3998                 1.5118                 3.8951
 Frc consts  --      1.3664                 1.5090                 4.0397
 IR Inten    --      2.7139                14.5959                86.8769

                     61                     62                     63
                      A                      A                      A
 Frequencies --   1338.1795              1345.6126              1363.4235
 Red. masses --      1.2814                 1.5987                 1.6827
 Frc consts  --      1.3520                 1.7055                 1.8430
 IR Inten    --      0.2113                 1.1305                39.3217

                     64                     65                     66
                      A                      A                      A
 Frequencies --   1393.4481              1403.9516              1413.6457
 Red. masses --      2.0817                 1.5532                 1.5197
 Frc consts  --      2.3815                 1.8037                 1.7893
 IR Inten    --     26.1500                 0.9021                49.0875

                     67                     68                     69
                      A                      A                      A
 Frequencies --   1443.9477              1474.1229              1499.8074
 Red. masses --      1.2590                 3.2422                 1.5572
 Frc consts  --      1.5466                 4.1511                 2.0638
 IR Inten    --      3.2812               145.8113                 5.9480

                     70                     71                     72
                      A                      A                      A
 Frequencies --   1503.2423              1506.8280              1510.5292
 Red. masses --      1.2966                 1.1109                 1.1657
 Frc consts  --      1.7263                 1.4861                 1.5671
 IR Inten    --      4.4401                 3.5376                 2.8452

                     73                     74                     75
                      A                      A                      A
 Frequencies --   1516.0989              1534.0613              1538.5898
 Red. masses --      1.0834                 1.0772                 1.0467
 Frc consts  --      1.4673                 1.4936                 1.4599
 IR Inten    --      4.8185                 6.2217                 8.4468

                     76                     77                     78
                      A                      A                      A
 Frequencies --   1544.0556              1569.2488              1620.1676
 Red. masses --      1.1124                 3.5718                 3.7590
 Frc consts  --      1.5625                 5.1822                 5.8135
 IR Inten    --      6.5878               277.1725               155.7272

                     79                     80                     81
                      A                      A                      A
 Frequencies --   1656.2238              1696.2641              2341.4611
 Red. masses --      2.5413                 1.4958                12.6728
 Frc consts  --      4.1072                 2.5358                40.9352
 IR Inten    --    188.3661               148.2045               106.9197

                     82                     83                     84
                      A                      A                      A
 Frequencies --   3040.4595              3051.3718              3055.4209
 Red. masses --      1.0603                 1.0364                 1.0656
 Frc consts  --      5.7750                 5.6857                 5.8612
 IR Inten    --     30.6934                31.0100                36.3808

                     85                     86                     87
                      A                      A                      A
 Frequencies --   3060.9183              3066.3957              3073.3688
 Red. masses --      1.0629                 1.0627                 1.1019
 Frc consts  --      5.8673                 5.8871                 6.1322
 IR Inten    --     48.9055                29.4054                 6.9519

                     88                     89                     90
                      A                      A                      A
 Frequencies --   3078.5320              3108.4533              3114.4589
 Red. masses --      1.0617                 1.1038                 1.1038
 Frc consts  --      5.9282                 6.2842                 6.3084
 IR Inten    --     56.1095                20.7746                30.7012

                     91                     92                     93
                      A                      A                      A
 Frequencies --   3116.2242              3125.3328              3127.7849
 Red. masses --      1.1017                 1.1012                 1.0990
 Frc consts  --      6.3035                 6.3374                 6.3346
 IR Inten    --     28.0816                18.4505                 5.8746

                     94                     95                     96
                      A                      A                      A
 Frequencies --   3135.5440              3195.5841              3201.4907
 Red. masses --      1.1040                 1.0916                 1.0919
 Frc consts  --      6.3950                 6.5678                 6.5938
 IR Inten    --     82.3695                12.1902                 6.6745

                     97                     98                     99
                      A                      A                      A
 Frequencies --   3479.0836              3590.1723              3603.5920
 Red. masses --      1.0524                 1.0912                 1.0766
 Frc consts  --      7.5053                 8.2865                 8.2372
 IR Inten    --      2.7415                11.8040                39.8668

 - Thermochemistry -
 -------------------
 Temperature   298.150 Kelvin.  Pressure   1.00000 Atm.
 Atom     1 has atomic number  6 and mass  12.00000

 Molecular mass:   230.15315 amu.
 Principal axes and moments of inertia in atomic units:
                           1         2         3
     Eigenvalues --  1785.961338120.211978906.34540
           X            0.99992   0.01256   0.00001
           Y           -0.01256   0.99989  -0.00825
           Z           -0.00011   0.00825   0.99997
 This molecule is an asymmetric top.
 Rotational symmetry number  1.
 Warning -- assumption of classical behavior for rotation
           may cause significant error
 Rotational temperatures (Kelvin)      0.04850     0.01067     0.00972
 Rotational constants (GHZ):           1.01052     0.22225     0.20264
 Zero-point vibrational energy     786549.5 (Joules/Mol)
                                  187.98983 (Kcal/Mol)
 Warning -- explicit consideration of  27 degrees of freedom as
           vibrations may cause significant error
 Vibrational temperatures:     35.79    57.15    63.29    99.20   135.68
          (Kelvin)            159.92   194.08   253.84   268.40   314.39
                              341.39   367.20   378.83   424.90   452.77
                              478.07   559.81   581.20   640.13   662.27
                              722.86   730.26   763.70   807.95   840.83
                              881.58   884.93   932.06  1017.80  1031.39
                             1087.49  1102.36  1156.30  1173.83  1193.37
                             1247.24  1298.68  1309.02  1326.48  1340.16
                             1370.66  1406.83  1435.11  1444.16  1472.77
                             1543.96  1550.31  1583.67  1655.52  1692.63
                             1713.98  1721.44  1743.77  1762.95  1799.98
                             1827.80  1844.66  1851.93  1872.65  1908.90
                             1925.34  1936.04  1961.66  2004.86  2019.97
                             2033.92  2077.52  2120.93  2157.89  2162.83
                             2167.99  2173.31  2181.33  2207.17  2213.69
                             2221.55  2257.80  2331.06  2382.94  2440.55
                             3368.84  4374.54  4390.24  4396.07  4403.98
                             4411.86  4421.89  4429.32  4472.37  4481.01
                             4483.55  4496.66  4500.18  4511.35  4597.73
                             4606.23  5005.63  5165.46  5184.77

 Zero-point correction=                           0.299581 (Hartree/Particle)
 Thermal correction to Energy=                    0.316328
 Thermal correction to Enthalpy=                  0.317272
 Thermal correction to Gibbs Free Energy=         0.254089
 Sum of electronic and zero-point Energies=           -724.965547
 Sum of electronic and thermal Energies=              -724.948800
 Sum of electronic and thermal Enthalpies=            -724.947856
 Sum of electronic and thermal Free Energies=         -725.011038

                     E (Thermal)             CV                S
                      KCal/Mol        Cal/Mol-Kelvin    Cal/Mol-Kelvin
 Total                  198.499             63.904            132.979
 Electronic               0.000              0.000              0.000
 Translational            0.889              2.981             42.203
 Rotational               0.889              2.981             33.224
 Vibrational            196.721             57.943             57.553
 Vibration     1          0.593              1.985              6.201
 Vibration     2          0.594              1.981              5.273
 Vibration     3          0.595              1.980              5.071
 Vibration     4          0.598              1.969              4.183
 Vibration     5          0.603              1.953              3.569
 Vibration     6          0.607              1.940              3.249
 Vibration     7          0.613              1.918              2.875
 Vibration     8          0.628              1.871              2.366
 Vibration     9          0.632              1.858              2.262
 Vibration    10          0.646              1.813              1.971
 Vibration    11          0.656              1.784              1.823
 Vibration    12          0.666              1.754              1.694
 Vibration    13          0.670              1.740              1.640
 Vibration    14          0.690              1.682              1.443
 Vibration    15          0.702              1.646              1.338
 Vibration    16          0.714              1.611              1.249
 Vibration    17          0.757              1.493              1.004
 Vibration    18          0.769              1.462              0.948
 Vibration    19          0.804              1.372              0.811
 Vibration    20          0.818              1.338              0.765
 Vibration    21          0.858              1.245              0.652
 Vibration    22          0.863              1.233              0.640
 Vibration    23          0.886              1.182              0.585
 Vibration    24          0.917              1.114              0.521
 Vibration    25          0.941              1.065              0.477
 Vibration    26          0.972              1.005              0.428
 Vibration    27          0.975              1.000              0.424

 Optimization completed.
    -- Stationary point found.
 Normal termination of Gaussian 16 at Fri Dec 11 13:40:06 2020.

 ----------------------------------------------------------------------
 # B3LYP/6-311++G(d,p) empiricaldispersion=gd3bj scf=xqc pop=npa geom=c
 heck
 ----------------------------------------------------------------------

 ---------------------------------------
 CID_105749290_JID_7973_Energie_neutraal
 ---------------------------------------
 Structure from the checkpoint file:  "JID_7973.chk"
 Charge =  0 Multiplicity = 1

 SCF Done:  E(RB3LYP) =  -725.466167167     A.U. after   15 cycles
 Normal termination of Gaussian 16 at Fri Dec 11 13:45:39 2020.

 ----------------------------------------------------------------------
 # B3LYP/6-311++G(d,p) empiricaldispersion=gd3bj scf=xqc pop=npa geom=c
 heck
 ----------------------------------------------------------------------

 -------------------------------------
 CID_105749290_JID_7973_Energie_kation
 -------------------------------------
 Structure from the checkpoint file:  "JID_7973.chk"
 Charge =  1 Multiplicity = 2

 SCF Done:  E(UB3LYP) =  -725.182888737     A.U. after   23 cycles
 Normal termination of Gaussian 16 at Fri Dec 11 13:57:05 2020.
 Gaussian 16:  ES64L-G16RevA.03 25-Dec-2016

 ----------------------------------------------------------------------
 # B3LYP/6-311++G(d,p) empiricaldispersion=gd3bj scf=xqc pop=npa geom=c
 heck
 ----------------------------------------------------------------------

 ------------------------------------
 CID_105749290_JID_7973_Energie_anion
 ------------------------------------
 Structure from the checkpoint file:  "JID_7973.chk"
 Charge = -1 Multiplicity = 2

                         Standard orientation:
 ---------------------------------------------------------------------
 Center     Atomic      Atomic             Coordinates (Angstroms)
 Number     Number       Type             X           Y           Z
 ---------------------------------------------------------------------
      1          6           0       -2.843889   -2.086461    1.673204
      2          6           0       -1.908636   -1.341495    0.717302
      3          6           0       -2.554433   -0.258247   -0.154845
      4          6           0       -3.822895   -0.626323   -0.987316
      5          6           0       -4.468173    0.718903   -0.562417
      6          6           0       -3.393592    0.854207    0.547392
      7          6           0       -1.502367    0.358839   -1.093166
      8          7           0       -0.428069    1.042977   -0.383355
      9          6           0        0.845117    0.551362   -0.284736
     10          6           0        1.827824    1.363665    0.363778
     11          6           0        3.119800    0.886723    0.424020
     12          6           0        3.420339   -0.380060   -0.126970
     13          6           0        2.373605   -1.115801   -0.688680
     14          7           0        1.120234   -0.664658   -0.767164
     15          6           0        4.744869   -0.905774   -0.085327
     16          7           0        5.827123   -1.333958   -0.049493
     17          7           0        1.417756    2.622467    0.854462
     18          1           0       -3.326494   -1.410424    2.387846
     19          1           0       -2.281371   -2.826270    2.253024
     20          1           0       -3.634645   -2.624250    1.138735
     21          1           0       -1.104387   -0.873433    1.299476
     22          1           0       -1.413316   -2.065612    0.057246
     23          1           0       -3.669091   -0.796258   -2.059125
     24          1           0       -4.357020   -1.487562   -0.577945
     25          1           0       -5.511491    0.683962   -0.236199
     26          1           0       -4.378518    1.490266   -1.333717
     27          1           0       -3.770861    0.540767    1.524540
     28          1           0       -2.908388    1.829653    0.670097
     29          1           0       -1.056737   -0.424095   -1.712279
     30          1           0       -1.981111    1.084742   -1.760965
     31          1           0       -0.490953    2.048469   -0.296827
     32          1           0        3.902017    1.469375    0.902035
     33          1           0        2.560423   -2.104881   -1.098719
     34          1           0        2.179823    3.140725    1.280550
     35          1           0        0.657396    2.539804    1.527645
 ---------------------------------------------------------------------

 SCF Done:  E(UB3LYP) =  -725.465342605     A.U. after   33 cycles
 SCF Done:  E(UB3LYP) =  -725.465342605     a.u. after    1 cycles

 The electronic state is 2-A.
 Alpha  occ. eigenvalues --  -14.22803 -14.21781 -14.19946 -14.19645 -10.13578
 Alpha  occ. eigenvalues --  -10.11190 -10.10845 -10.10420 -10.09855 -10.09227
 Alpha  occ. eigenvalues --  -10.08784 -10.07950 -10.07818 -10.07760 -10.07269
 Alpha  occ. eigenvalues --  -10.07057 -10.06899  -0.87653  -0.81190  -0.80877
 Alpha  occ. eigenvalues --   -0.79379  -0.76167  -0.70056  -0.67286  -0.65277
 Alpha  occ. eigenvalues --   -0.61697  -0.57324  -0.56038  -0.54543  -0.51887
 Alpha  occ. eigenvalues --   -0.50957  -0.45261  -0.44592  -0.43364  -0.41624
 Alpha  occ. eigenvalues --   -0.39644  -0.38165  -0.37594  -0.36969  -0.36146
 Alpha  occ. eigenvalues --   -0.35399  -0.33313  -0.32856  -0.31895  -0.30065
 Alpha  occ. eigenvalues --   -0.29715  -0.29037  -0.28195  -0.27089  -0.26397
 Alpha  occ. eigenvalues --   -0.26061  -0.25808  -0.24434  -0.23480  -0.22996
 Alpha  occ. eigenvalues --   -0.22301  -0.20816  -0.20465  -0.19491  -0.16435
 Alpha  occ. eigenvalues --   -0.15477  -0.10335   0.03812
 Alpha virt. eigenvalues --    0.05899   0.06275   0.06827   0.07743   0.07950
 Alpha virt. eigenvalues --    0.08182   0.09105   0.09394   0.10063   0.10200
 Alpha virt. eigenvalues --    0.11168   0.11231   0.11715   0.12278   0.12947

  Beta  occ. eigenvalues --  -14.22773 -14.21716 -14.19916 -14.19556 -10.13424
  Beta  occ. eigenvalues --  -10.11232 -10.10851 -10.10415 -10.09844 -10.09159
  Beta  occ. eigenvalues --  -10.08784 -10.07937 -10.07814 -10.07579 -10.07260
  Beta  occ. eigenvalues --  -10.07028 -10.06893  -0.87512  -0.81102  -0.80794
  Beta  occ. eigenvalues --   -0.79248  -0.76140  -0.69820  -0.67267  -0.65123
  Beta  occ. eigenvalues --   -0.61612  -0.57279  -0.55919  -0.54455  -0.51730
  Beta  occ. eigenvalues --   -0.50887  -0.45196  -0.44478  -0.43297  -0.41543
  Beta  occ. eigenvalues --   -0.39606  -0.38084  -0.37542  -0.36875  -0.36078
  Beta  occ. eigenvalues --   -0.35350  -0.33274  -0.32772  -0.31604  -0.29969
  Beta  occ. eigenvalues --   -0.29637  -0.29010  -0.28124  -0.27028  -0.26332
  Beta  occ. eigenvalues --   -0.25809  -0.25605  -0.24410  -0.23384  -0.22928
  Beta  occ. eigenvalues --   -0.22167  -0.20790  -0.20424  -0.19157  -0.16321
  Beta  occ. eigenvalues --   -0.15062  -0.09996
  Beta virt. eigenvalues --    0.05915   0.06970   0.07226   0.07388   0.07854
  Beta virt. eigenvalues --    0.08144   0.08565   0.09161   0.09608   0.10247
  Beta virt. eigenvalues --    0.10291   0.11292   0.11418   0.11775   0.12529

 Mulliken charges and spin densities:
               1          2
     1  C   -0.248141  -0.375641
     2  C   -1.012608   0.399127
     3  C    0.790291   0.829773
     4  C   -0.210127  -0.226106
     5  C    0.044712  -0.274824
     6  C    0.208166  -0.781949
     7  C   -0.043150  -0.927120
     8  N   -0.000905   0.017718
     9  C   -0.875521   0.255147
    10  C    0.382514  -0.352085
    11  C    0.483776  -0.235700
    12  C    2.328382  -0.423430
    13  C   -0.869589   0.414108
    14  N   -0.042634   0.053223
    15  C   -1.295980  -0.511892
    16  N   -0.266507   0.052299
    17  N   -0.490888   0.083455
    18  H    0.041284   0.100662
    19  H    0.084923   0.057397
    20  H    0.058822   0.065348
    21  H    0.053406   0.128466
    22  H    0.164931   0.019544
    23  H    0.034404   0.115164
    24  H    0.135654  -0.037201
    25  H   -0.003312   0.144890
    26  H    0.022207   0.099421
    27  H   -0.012497   0.120395
    28  H   -0.243064   0.392988
    29  H    0.301764  -0.053143
    30  H   -0.190688   0.330696
    31  H    0.198831   0.121833
    32  H   -0.137185   0.300505
    33  H    0.134284   0.039889
    34  H   -0.247379   0.518972
    35  H   -0.278175   0.538073
 Sum of Mulliken charges =  -1.00000   1.00000

 Dipole moment (field-independent basis, Debye):
    X=             -6.8694    Y=             -3.2853    Z=             -2.7263  Tot=              8.0879
 Quadrupole moment (field-independent basis, Debye-Ang):
   XX=           -199.1778   YY=           -144.5246   ZZ=           -131.1578
   XY=             13.4673   XZ=             -1.7133   YZ=             -8.1446

 Summary of Natural Population Analysis:

                                       Natural Population
                Natural  -----------------------------------------------
    Atom  No    Charge         Core      Valence    Rydberg      Total
 -----------------------------------------------------------------------
      C    1   -0.28436      0.99966     2.28071    0.00399     3.28436
      C    2   -0.19401      0.99958     2.18546    0.00896     3.19401
      C    3   -0.03738      0.99956     2.02372    0.01410     3.03738
      C    4   -0.18776      0.99960     2.18118    0.00698     3.18776
      C    5   -0.19388      0.99965     2.18591    0.00832     3.19388
      C    6   -0.18756      0.99960     2.17860    0.00936     3.18756
      C    7   -0.08735      0.99955     2.07439    0.01341     3.08735
      N    8   -0.30996      0.99966     2.79910    0.01120     3.80996
      C    9    0.22571      0.99950     1.75920    0.01559     2.77429
      C   10    0.04552      0.99944     1.94356    0.01148     2.95448
      C   11   -0.05356      0.99950     2.04427    0.00979     3.05356
      C   12   -0.12179      0.99942     2.11442    0.00795     3.12179
      C   13    0.04681      0.99956     1.94084    0.01280     2.95319
      N   14   -0.26224      0.99967     2.75353    0.00904     3.76224
      C   15    0.15441      0.99964     1.82752    0.01842     2.84559
      N   16   -0.18768      0.99979     2.67745    0.01043     3.68768
      N   17   -0.41060      0.99973     2.89918    0.01169     3.91060
      H   18    0.09577      0.00000     0.40323    0.00100     0.40423
      H   19    0.09893      0.00000     0.40038    0.00068     0.40107
      H   20    0.09184      0.00000     0.40714    0.00102     0.40816
      H   21    0.10475      0.00000     0.39355    0.00169     0.39525
      H   22    0.10124      0.00000     0.39767    0.00109     0.39876
      H   23    0.09543      0.00000     0.40369    0.00088     0.40457
      H   24    0.09695      0.00000     0.40193    0.00112     0.40305
      H   25    0.09373      0.00000     0.40539    0.00088     0.40627
      H   26    0.09604      0.00000     0.40266    0.00130     0.40396
      H   27    0.09743      0.00000     0.40131    0.00127     0.40257
      H   28    0.10094      0.00000     0.39726    0.00180     0.39906
      H   29    0.10962      0.00000     0.38874    0.00164     0.39038
      H   30    0.09454      0.00000     0.40432    0.00113     0.40546
      H   31    0.19940      0.00000     0.29770    0.00291     0.30060
      H   32    0.10206      0.00000     0.39662    0.00132     0.39794
      H   33    0.08996      0.00000     0.40909    0.00095     0.41004
      H   34    0.18710      0.00000     0.30948    0.00342     0.31290
      H   35    0.18994      0.00000     0.30276    0.00730     0.31006
 =======================================================================
   * Total *   -0.00000     16.99311    44.79198    0.21491    62.00000

 Normal termination of Gaussian 16 at Fri Dec 11 14:13:39 2020.
