 Gaussian 16, Revision A.03,

 -----------------------------------------------------------
 # opt freq B3LYP/6-31G(d) empiricaldispersion=gd3bj scf=xqc
 -----------------------------------------------------------

 -------------------------------
 CID_150696931_JID_5059_neutraal
 -------------------------------
 Symbolic Z-matrix:
 Charge =  0 Multiplicity = 1

 SCF Done:  E(RB3LYP) =  -683.682996827     A.U. after   15 cycles
 SCF Done:  E(RB3LYP) =  -683.688889757     A.U. after   15 cycles
 SCF Done:  E(RB3LYP) =  -683.691573042     A.U. after   13 cycles
 SCF Done:  E(RB3LYP) =  -683.692507634     A.U. after   13 cycles
 SCF Done:  E(RB3LYP) =  -683.692820679     A.U. after   12 cycles
 SCF Done:  E(RB3LYP) =  -683.693086385     A.U. after   13 cycles
 SCF Done:  E(RB3LYP) =  -683.693263139     A.U. after   12 cycles
 SCF Done:  E(RB3LYP) =  -683.693367160     A.U. after   12 cycles
 SCF Done:  E(RB3LYP) =  -683.693441180     A.U. after   11 cycles
 SCF Done:  E(RB3LYP) =  -683.693448335     A.U. after   10 cycles
 SCF Done:  E(RB3LYP) =  -683.693468759     A.U. after    9 cycles
 SCF Done:  E(RB3LYP) =  -683.693469404     A.U. after    9 cycles
 SCF Done:  E(RB3LYP) =  -683.693470032     A.U. after    9 cycles
 SCF Done:  E(RB3LYP) =  -683.693470323     A.U. after    9 cycles
 SCF Done:  E(RB3LYP) =  -683.693470426     A.U. after    8 cycles
 Optimization completed.
    -- Stationary point found.
 Normal termination of Gaussian 16 at Thu Dec 10 14:47:43 2020.

 --------------------------------------------------------------------
 #N Geom=AllCheck Guess=TCheck SCRF=Check GenChk RB3LYP/6-31G(d) Freq
 --------------------------------------------------------------------

 Structure from the checkpoint file:  "JID_5059.chk"
 -------------------------------
 CID_150696931_JID_5059_neutraal
 -------------------------------
 Charge =  0 Multiplicity = 1

 SCF Done:  E(RB3LYP) =  -683.693470426     A.U. after    1 cycles

  Exact polarizability: 150.219   4.545 136.522  11.885  -3.686 102.327
 Approx polarizability: 214.123  17.510 216.977  43.252   6.449 192.303

                      1                      2                      3
                      A                      A                      A
 Frequencies --     31.7965                34.7068                42.7605
 Red. masses --      6.6374                 3.2938                 5.0318
 Frc consts  --      0.0040                 0.0023                 0.0054
 IR Inten    --      0.7316                 0.4072                 0.5605

                      4                      5                      6
                      A                      A                      A
 Frequencies --     48.6456                85.3322               114.6374
 Red. masses --      4.8232                 4.0957                 5.0732
 Frc consts  --      0.0067                 0.0176                 0.0393
 IR Inten    --      0.3937                 0.8982                 4.4847

                      7                      8                      9
                      A                      A                      A
 Frequencies --    135.1413               162.4742               174.9649
 Red. masses --      1.5143                 2.3235                 2.8403
 Frc consts  --      0.0163                 0.0361                 0.0512
 IR Inten    --      0.4158                 3.8838                 0.4904

                     10                     11                     12
                      A                      A                      A
 Frequencies --    219.9618               254.4569               294.3810
 Red. masses --      3.5216                 1.8987                 4.0164
 Frc consts  --      0.1004                 0.0724                 0.2051
 IR Inten    --      0.6922                11.4860                 1.9158

                     13                     14                     15
                      A                      A                      A
 Frequencies --    330.4011               331.9021               351.7674
 Red. masses --      2.1009                 2.6065                 1.6054
 Frc consts  --      0.1351                 0.1692                 0.1170
 IR Inten    --     10.4895                22.3591                19.5847

                     16                     17                     18
                      A                      A                      A
 Frequencies --    379.5532               454.8876               500.2832
 Red. masses --      4.3728                 3.0650                 3.1549
 Frc consts  --      0.3712                 0.3737                 0.4652
 IR Inten    --      1.4417                11.6611                 2.6965

                     19                     20                     21
                      A                      A                      A
 Frequencies --    510.2694               530.1247               570.9292
 Red. masses --      3.8488                 3.9166                13.7249
 Frc consts  --      0.5904                 0.6485                 2.6359
 IR Inten    --      2.3423                 3.3045                 9.8525

                     22                     23                     24
                      A                      A                      A
 Frequencies --    590.4149               620.2409               672.6511
 Red. masses --      4.8190                 5.5308                 5.3061
 Frc consts  --      0.9897                 1.2536                 1.4145
 IR Inten    --      1.2862                 3.0850                 3.7572

                     25                     26                     27
                      A                      A                      A
 Frequencies --    738.4632               765.0656               807.8244
 Red. masses --      2.2127                 3.2312                 2.0467
 Frc consts  --      0.7110                 1.1143                 0.7869
 IR Inten    --      7.7467                28.2134                10.4705

                     28                     29                     30
                      A                      A                      A
 Frequencies --    820.0566               849.7174               885.1247
 Red. masses --      2.7568                 2.4402                 3.6435
 Frc consts  --      1.0923                 1.0381                 1.6818
 IR Inten    --     13.5869                17.5506                45.5705

                     31                     32                     33
                      A                      A                      A
 Frequencies --    896.6957               913.9205               925.8483
 Red. masses --      3.0686                 1.4594                 1.5651
 Frc consts  --      1.4537                 0.7182                 0.7904
 IR Inten    --     85.6188                78.0130                30.7585

                     34                     35                     36
                      A                      A                      A
 Frequencies --    942.8147               970.1721               987.2280
 Red. masses --      1.9025                 1.2758                 1.6852
 Frc consts  --      0.9964                 0.7075                 0.9677
 IR Inten    --     86.9373                 0.1376                 4.5028

                     37                     38                     39
                      A                      A                      A
 Frequencies --   1025.0362              1073.0983              1080.9941
 Red. masses --      1.7087                 1.6474                 2.1493
 Frc consts  --      1.0578                 1.1177                 1.4798
 IR Inten    --     45.9392                 5.9307                10.3208

                     40                     41                     42
                      A                      A                      A
 Frequencies --   1104.5985              1119.0799              1146.8435
 Red. masses --      2.3031                 2.2543                 2.3388
 Frc consts  --      1.6557                 1.6634                 1.8124
 IR Inten    --     39.0627                51.6875                13.6755

                     43                     44                     45
                      A                      A                      A
 Frequencies --   1197.7126              1215.3457              1224.9443
 Red. masses --      1.2672                 2.5485                 1.3748
 Frc consts  --      1.0710                 2.2179                 1.2154
 IR Inten    --      6.9270                17.5891                 4.5424

                     46                     47                     48
                      A                      A                      A
 Frequencies --   1239.0293              1283.6072              1288.0241
 Red. masses --      1.4075                 1.1829                 2.5227
 Frc consts  --      1.2731                 1.1483                 2.4659
 IR Inten    --      2.6241                 2.6741               133.3439

                     49                     50                     51
                      A                      A                      A
 Frequencies --   1295.9586              1307.6204              1351.5631
 Red. masses --      2.1208                 3.3983                 5.0751
 Frc consts  --      2.0986                 3.4235                 5.4622
 IR Inten    --     45.7969               121.1054                 8.5959

                     52                     53                     54
                      A                      A                      A
 Frequencies --   1402.5400              1404.8891              1408.8940
 Red. masses --      1.5879                 1.3304                 1.2618
 Frc consts  --      1.8404                 1.5471                 1.4757
 IR Inten    --     21.7248                11.8024                 4.1678

                     55                     56                     57
                      A                      A                      A
 Frequencies --   1427.4973              1439.7152              1501.7036
 Red. masses --      1.3220                 1.2453                 1.5861
 Frc consts  --      1.5873                 1.5208                 2.1074
 IR Inten    --     13.5973                 2.5036                22.3239

                     58                     59                     60
                      A                      A                      A
 Frequencies --   1505.3757              1511.3388              1523.7711
 Red. masses --      1.0992                 2.8440                 1.5306
 Frc consts  --      1.4676                 3.8274                 2.0939
 IR Inten    --      1.2102                 5.7359                38.9025

                     61                     62                     63
                      A                      A                      A
 Frequencies --   1534.9894              1539.2183              1545.2604
 Red. masses --      1.0838                 1.0832                 1.0849
 Frc consts  --      1.5046                 1.5120                 1.5263
 IR Inten    --      5.2107                 3.4215                 4.1109

                     64                     65                     66
                      A                      A                      A
 Frequencies --   1641.2254              1659.3081              1703.6035
 Red. masses --      6.0564                 6.2067                 1.0881
 Frc consts  --      9.6118                10.0685                 1.8606
 IR Inten    --     20.2837                 3.9093                25.2210

                     67                     68                     69
                      A                      A                      A
 Frequencies --   2256.3590              3001.9426              3040.2256
 Red. masses --     13.6616                 1.0561                 1.1002
 Frc consts  --     40.9798                 5.6075                 5.9915
 IR Inten    --    368.1608                35.4295                20.1265

                     70                     71                     72
                      A                      A                      A
 Frequencies --   3051.7876              3059.9767              3075.2588
 Red. masses --      1.0458                 1.0668                 1.0660
 Frc consts  --      5.7388                 5.8853                 5.9397
 IR Inten    --     18.7134                61.8396                40.3931

                     73                     74                     75
                      A                      A                      A
 Frequencies --   3101.2333              3109.8798              3138.5269
 Red. masses --      1.1058                 1.0956                 1.0993
 Frc consts  --      6.2659                 6.2428                 6.3801
 IR Inten    --     31.7453                10.8244                12.0178

                     76                     77                     78
                      A                      A                      A
 Frequencies --   3167.7654              3186.9353              3202.0038
 Red. masses --      1.0962                 1.0872                 1.0907
 Frc consts  --      6.4813                 6.5061                 6.5888
 IR Inten    --      4.0184                 3.8920                16.6925

                     79                     80                     81
                      A                      A                      A
 Frequencies --   3216.2333              3464.2452              3553.6502
 Red. masses --      1.0963                 1.0497                 1.0918
 Frc consts  --      6.6817                 7.4219                 8.1234
 IR Inten    --     13.5683                 2.2812                 0.3401

 - Thermochemistry -
 -------------------
 Temperature   298.150 Kelvin.  Pressure   1.00000 Atm.
 Atom     1 has atomic number  6 and mass  12.00000

 Molecular mass:   206.11676 amu.
 Principal axes and moments of inertia in atomic units:
                           1         2         3
     Eigenvalues --  1814.892715050.450336061.54915
           X            0.99984   0.01718   0.00513
           Y           -0.01700   0.99932  -0.03274
           Z           -0.00569   0.03265   0.99945
 This molecule is an asymmetric top.
 Rotational symmetry number  1.
 Warning -- assumption of classical behavior for rotation
           may cause significant error
 Rotational temperatures (Kelvin)      0.04772     0.01715     0.01429
 Rotational constants (GHZ):           0.99441     0.35734     0.29774
 Zero-point vibrational energy     629680.9 (Joules/Mol)
                                  150.49735 (Kcal/Mol)
 Warning -- explicit consideration of  23 degrees of freedom as
           vibrations may cause significant error
 Vibrational temperatures:     45.75    49.94    61.52    69.99   122.77
          (Kelvin)            164.94   194.44   233.76   251.74   316.48
                              366.11   423.55   475.37   477.53   506.11
                              546.09   654.48   719.80   734.16   762.73
                              821.44   849.48   892.39   967.79  1062.48
                             1100.76  1162.28  1179.88  1222.55  1273.50
                             1290.15  1314.93  1332.09  1356.50  1395.86
                             1420.40  1474.80  1543.95  1555.31  1589.27
                             1610.11  1650.05  1723.24  1748.61  1762.42
                             1782.69  1846.82  1853.18  1864.60  1881.37
                             1944.60  2017.94  2021.32  2027.08  2053.85
                             2071.43  2160.62  2165.90  2174.48  2192.37
                             2208.51  2214.59  2223.29  2361.36  2387.37
                             2451.11  3246.40  4319.13  4374.21  4390.84
                             4402.62  4424.61  4461.98  4474.42  4515.64
                             4557.71  4585.29  4606.97  4627.44  4984.28
                             5112.91

 Zero-point correction=                           0.239833 (Hartree/Particle)
 Thermal correction to Energy=                    0.254953
 Thermal correction to Enthalpy=                  0.255897
 Thermal correction to Gibbs Free Energy=         0.195447
 Sum of electronic and zero-point Energies=           -683.453638
 Sum of electronic and thermal Energies=              -683.438517
 Sum of electronic and thermal Enthalpies=            -683.437573
 Sum of electronic and thermal Free Energies=         -683.498023

                     E (Thermal)             CV                S
                      KCal/Mol        Cal/Mol-Kelvin    Cal/Mol-Kelvin
 Total                  159.986             54.916            127.228
 Electronic               0.000              0.000              0.000
 Translational            0.889              2.981             41.874
 Rotational               0.889              2.981             32.385
 Vibrational            158.208             48.954             52.969
 Vibration     1          0.594              1.983              5.714
 Vibration     2          0.594              1.983              5.540
 Vibration     3          0.595              1.980              5.127
 Vibration     4          0.595              1.978              4.872
 Vibration     5          0.601              1.959              3.764
 Vibration     6          0.608              1.937              3.189
 Vibration     7          0.613              1.918              2.872
 Vibration     8          0.623              1.888              2.521
 Vibration     9          0.627              1.873              2.381
 Vibration    10          0.647              1.811              1.959
 Vibration    11          0.665              1.755              1.699
 Vibration    12          0.689              1.684              1.449
 Vibration    13          0.713              1.615              1.258
 Vibration    14          0.714              1.612              1.251
 Vibration    15          0.728              1.572              1.158
 Vibration    16          0.750              1.514              1.041
 Vibration    17          0.813              1.350              0.781
 Vibration    18          0.856              1.249              0.657
 Vibration    19          0.865              1.227              0.633
 Vibration    20          0.885              1.183              0.587
 Vibration    21          0.927              1.094              0.502
 Vibration    22          0.948              1.052              0.466
 Vibration    23          0.980              0.989              0.416

                           ! Non-Optimized Parameters !
 Normal termination of Gaussian 16 at Thu Dec 10 14:55:58 2020.

 ----------------------------------------------------------------------
 # B3LYP/6-311++G(d,p) empiricaldispersion=gd3bj scf=xqc pop=npa geom=c
 heck
 ----------------------------------------------------------------------

 ---------------------------------------
 CID_150696931_JID_5059_Energie_neutraal
 ---------------------------------------
 Structure from the checkpoint file:  "JID_5059.chk"
 Charge =  0 Multiplicity = 1

 SCF Done:  E(RB3LYP) =  -683.886171134     A.U. after   15 cycles
 Normal termination of Gaussian 16 at Thu Dec 10 14:59:07 2020.

 ----------------------------------------------------------------------
 # B3LYP/6-311++G(d,p) empiricaldispersion=gd3bj scf=xqc pop=npa geom=c
 heck
 ----------------------------------------------------------------------

 -------------------------------------
 CID_150696931_JID_5059_Energie_kation
 -------------------------------------
 Structure from the checkpoint file:  "JID_5059.chk"
 Charge =  1 Multiplicity = 2

 SCF Done:  E(UB3LYP) =  -683.577594942     A.U. after   31 cycles
 Normal termination of Gaussian 16 at Thu Dec 10 15:13:02 2020.
 Gaussian 16:  ES64L-G16RevA.03 25-Dec-2016

 ----------------------------------------------------------------------
 # B3LYP/6-311++G(d,p) empiricaldispersion=gd3bj scf=xqc pop=npa geom=c
 heck
 ----------------------------------------------------------------------

 ------------------------------------
 CID_150696931_JID_5059_Energie_anion
 ------------------------------------
 Structure from the checkpoint file:  "JID_5059.chk"
 Charge = -1 Multiplicity = 2

                         Standard orientation:
 ---------------------------------------------------------------------
 Center     Atomic      Atomic             Coordinates (Angstroms)
 Number     Number       Type             X           Y           Z
 ---------------------------------------------------------------------
      1          6           0       -0.047676   -1.443733    0.748930
      2          6           0        0.272086   -0.018903    0.359974
      3          6           0        1.528785    0.565498    0.612098
      4          6           0        1.787001    1.885081    0.226570
      5          6           0        0.811056    2.645788   -0.411568
      6          6           0       -0.438474    2.085440   -0.662331
      7          6           0       -0.700352    0.770791   -0.277097
      8          8           0       -1.939851    0.233990   -0.566133
      9          6           0       -2.936228    0.468302    0.436759
     10          6           0       -4.190034   -0.291997    0.017756
     11          7           0       -4.028687   -1.736077   -0.135144
     12          6           0        2.644773   -0.229132    1.248620
     13          7           0        3.599140   -0.824830    0.265027
     14          7           0        3.084785   -1.365479   -0.717253
     15          7           0        2.725435   -1.882899   -1.670962
     16          1           0        0.653993   -2.154874    0.301133
     17          1           0       -0.008192   -1.586233    1.836035
     18          1           0       -1.048221   -1.711476    0.407743
     19          1           0        2.767937    2.309833    0.422327
     20          1           0        1.022040    3.667532   -0.712707
     21          1           0       -1.220465    2.645499   -1.165536
     22          1           0       -2.570630    0.110286    1.411691
     23          1           0       -3.133327    1.547140    0.525025
     24          1           0       -4.979063   -0.098347    0.754856
     25          1           0       -4.539230    0.111992   -0.939729
     26          1           0       -3.723429   -2.147998    0.746159
     27          1           0       -3.282729   -1.911806   -0.806242
     28          1           0        3.270709    0.416397    1.867096
     29          1           0        2.259084   -1.027684    1.891280
 ---------------------------------------------------------------------

 SCF Done:  E(UB3LYP) =  -683.879997660     A.U. after   33 cycles
 SCF Done:  E(UB3LYP) =  -683.879997660     a.u. after    1 cycles

 The electronic state is 2-A.
 Alpha  occ. eigenvalues --  -19.03937 -14.34001 -14.24246 -14.23372 -14.19906
 Alpha  occ. eigenvalues --  -10.12579 -10.12288 -10.10472 -10.10085 -10.08124
 Alpha  occ. eigenvalues --  -10.07891 -10.07560 -10.07312 -10.07259 -10.06264
 Alpha  occ. eigenvalues --   -1.00895  -0.95781  -0.85242  -0.79135  -0.75964
 Alpha  occ. eigenvalues --   -0.68326  -0.66970  -0.63368  -0.60433  -0.58178
 Alpha  occ. eigenvalues --   -0.52576  -0.49713  -0.48886  -0.43824  -0.41008
 Alpha  occ. eigenvalues --   -0.40601  -0.39955  -0.38602  -0.37966  -0.37523
 Alpha  occ. eigenvalues --   -0.36235  -0.35337  -0.33203  -0.32494  -0.31778
 Alpha  occ. eigenvalues --   -0.30872  -0.30180  -0.29563  -0.29474  -0.28147
 Alpha  occ. eigenvalues --   -0.26717  -0.25857  -0.25087  -0.23968  -0.19042
 Alpha  occ. eigenvalues --   -0.17945  -0.15486  -0.14836  -0.14293  -0.13086
 Alpha  occ. eigenvalues --    0.04355
 Alpha virt. eigenvalues --    0.06271   0.07125   0.07282   0.08085   0.08742
 Alpha virt. eigenvalues --    0.09012   0.09168   0.09466   0.10811   0.11349
 Alpha virt. eigenvalues --    0.11533   0.12029   0.12503   0.12686   0.13834

  Beta  occ. eigenvalues --  -19.03933 -14.33773 -14.23906 -14.23413 -14.19887
  Beta  occ. eigenvalues --  -10.12592 -10.12264 -10.10369 -10.10068 -10.08066
  Beta  occ. eigenvalues --  -10.07853 -10.07525 -10.07317 -10.07222 -10.06246
  Beta  occ. eigenvalues --   -1.00436  -0.95776  -0.85001  -0.79095  -0.75881
  Beta  occ. eigenvalues --   -0.68201  -0.66890  -0.63268  -0.60311  -0.58094
  Beta  occ. eigenvalues --   -0.52519  -0.49586  -0.48833  -0.43739  -0.40668
  Beta  occ. eigenvalues --   -0.40493  -0.39855  -0.38044  -0.37845  -0.37405
  Beta  occ. eigenvalues --   -0.36188  -0.35224  -0.33029  -0.31952  -0.31670
  Beta  occ. eigenvalues --   -0.30747  -0.30010  -0.29527  -0.29228  -0.28109
  Beta  occ. eigenvalues --   -0.26668  -0.25747  -0.25024  -0.23885  -0.18592
  Beta  occ. eigenvalues --   -0.17787  -0.15437  -0.14574  -0.14136  -0.12981
  Beta virt. eigenvalues --    0.06739   0.07370   0.07716   0.07938   0.08767
  Beta virt. eigenvalues --    0.09071   0.09282   0.09535   0.10387   0.11138
  Beta virt. eigenvalues --    0.11553   0.11884   0.12168   0.12721   0.12996

 Mulliken charges and spin densities:
               1          2
     1  C    0.747055  -1.496329
     2  C    0.405718   0.896074
     3  C   -0.053694   0.694527
     4  C   -0.757951   0.237409
     5  C   -0.080338  -0.287893
     6  C    0.110282  -0.137710
     7  C   -1.115645   0.469058
     8  O   -0.099962  -0.000696
     9  C   -0.579626   0.296278
    10  C    1.216197  -1.701035
    11  N   -0.433025   0.089478
    12  C    0.582546  -1.435735
    13  N   -0.185916  -0.028791
    14  N    0.496764   0.113276
    15  N   -0.505745   0.192712
    16  H    0.144725  -0.009904
    17  H   -0.541025   0.735010
    18  H    0.471320  -0.337142
    19  H    0.013351   0.134462
    20  H    0.016897   0.122396
    21  H    0.072826   0.092600
    22  H   -0.193209   0.363974
    23  H   -0.343574   0.480516
    24  H   -0.333108   0.498800
    25  H    0.098516   0.061610
    26  H   -0.001953   0.230445
    27  H    0.172170   0.064630
    28  H   -0.335568   0.516279
    29  H    0.011974   0.145701
 Sum of Mulliken charges =  -1.00000   1.00000

 Dipole moment (field-independent basis, Debye):
    X=              0.8382    Y=              2.7822    Z=             -2.2665  Tot=              3.6852
 Quadrupole moment (field-independent basis, Debye-Ang):
   XX=           -166.3632   YY=           -118.3485   ZZ=           -124.9419
   XY=              0.8537   XZ=              7.6409   YZ=             -3.0687

 Summary of Natural Population Analysis:

                                       Natural Population
                Natural  -----------------------------------------------
    Atom  No    Charge         Core      Valence    Rydberg      Total
 -----------------------------------------------------------------------
      C    1   -0.30192      0.99963     2.29548    0.00681     3.30192
      C    2   -0.01792      0.99942     2.00822    0.01028     3.01792
      C    3   -0.01833      0.99947     2.00871    0.01015     3.01833
      C    4   -0.10044      0.99951     2.09091    0.01001     3.10044
      C    5   -0.09705      0.99957     2.08884    0.00865     3.09705
      C    6   -0.11254      0.99950     2.10355    0.00948     3.11254
      C    7    0.15243      0.99932     1.83479    0.01346     2.84757
      O    8   -0.30244      0.99986     3.29333    0.00925     4.30244
      C    9   -0.01565      0.99956     2.00409    0.01201     3.01565
      C   10   -0.10021      0.99964     2.08762    0.01296     3.10021
      N   11   -0.41989      0.99978     2.91051    0.00959     3.91989
      C   12   -0.09381      0.99955     2.08201    0.01224     3.09381
      N   13   -0.20497      0.99972     2.69102    0.01423     3.70497
      N   14    0.12950      0.99970     2.35547    0.01533     3.37050
      N   15   -0.01834      0.99982     2.50527    0.01325     3.51834
      H   16    0.10697      0.00000     0.39203    0.00100     0.39303
      H   17    0.10772      0.00000     0.39044    0.00184     0.39228
      H   18    0.10732      0.00000     0.39112    0.00156     0.39268
      H   19    0.09963      0.00000     0.39943    0.00094     0.40037
      H   20    0.09705      0.00000     0.40221    0.00074     0.40295
      H   21    0.10261      0.00000     0.39648    0.00091     0.39739
      H   22    0.08355      0.00000     0.41398    0.00247     0.41645
      H   23    0.08498      0.00000     0.41338    0.00164     0.41502
      H   24    0.09447      0.00000     0.40424    0.00129     0.40553
      H   25    0.09034      0.00000     0.40855    0.00111     0.40966
      H   26    0.17307      0.00000     0.32492    0.00201     0.32693
      H   27    0.17612      0.00000     0.32170    0.00217     0.32388
      H   28    0.10048      0.00000     0.39801    0.00151     0.39952
      H   29    0.09728      0.00000     0.40123    0.00150     0.40272
 =======================================================================
   * Total *   -0.00000     14.99405    39.81755    0.18840    55.00000

 Normal termination of Gaussian 16 at Thu Dec 10 15:27:11 2020.
