 Gaussian 16, Revision A.03,

 -----------------------------------------------------------
 # opt freq B3LYP/6-31G(d) empiricaldispersion=gd3bj scf=xqc
 -----------------------------------------------------------

 ------------------------------
 CID_62294238_JID_9382_neutraal
 ------------------------------
 Symbolic Z-matrix:
 Charge =  0 Multiplicity = 1

 SCF Done:  E(RB3LYP) =  -786.660609551     A.U. after   14 cycles
 SCF Done:  E(RB3LYP) =  -786.666633726     A.U. after   12 cycles
 SCF Done:  E(RB3LYP) =  -786.667674902     A.U. after   12 cycles
 SCF Done:  E(RB3LYP) =  -786.668412383     A.U. after   14 cycles
 SCF Done:  E(RB3LYP) =  -786.668698477     A.U. after   12 cycles
 SCF Done:  E(RB3LYP) =  -786.668909780     A.U. after   12 cycles
 SCF Done:  E(RB3LYP) =  -786.668970795     A.U. after   11 cycles
 SCF Done:  E(RB3LYP) =  -786.669021457     A.U. after   11 cycles
 SCF Done:  E(RB3LYP) =  -786.669081116     A.U. after   11 cycles
 SCF Done:  E(RB3LYP) =  -786.669121782     A.U. after   12 cycles
 SCF Done:  E(RB3LYP) =  -786.681556109     A.U. after    9 cycles
 SCF Done:  E(RB3LYP) =  -786.681556777     A.U. after    9 cycles
 SCF Done:  E(RB3LYP) =  -786.681557166     A.U. after    9 cycles
 SCF Done:  E(RB3LYP) =  -786.681557236     A.U. after    7 cycles
 SCF Done:  E(RB3LYP) =  -786.681557240     A.U. after    6 cycles
 Optimization completed.
    -- Stationary point found.
 Normal termination of Gaussian 16 at Sat Dec 12 10:25:12 2020.

 --------------------------------------------------------------------
 #N Geom=AllCheck Guess=TCheck SCRF=Check GenChk RB3LYP/6-31G(d) Freq
 --------------------------------------------------------------------

 Structure from the checkpoint file:  "JID_9382.chk"
 ------------------------------
 CID_62294238_JID_9382_neutraal
 ------------------------------
 Charge =  0 Multiplicity = 1

 SCF Done:  E(RB3LYP) =  -786.681557240     A.U. after    1 cycles

  Exact polarizability: 291.690  -1.419 178.407   3.503   2.010 122.210
 Approx polarizability: 379.668  -5.854 289.150   3.758   5.973 190.340

                      1                      2                      3
                      A                      A                      A
 Frequencies --     24.3722                25.2354                29.7551
 Red. masses --      3.0096                 4.1444                 1.0906
 Frc consts  --      0.0011                 0.0016                 0.0006
 IR Inten    --      0.5557                 0.4187                 0.5631

                      4                      5                      6
                      A                      A                      A
 Frequencies --     43.5381                61.4226                78.4425
 Red. masses --      3.3025                 3.4645                 3.3082
 Frc consts  --      0.0037                 0.0077                 0.0120
 IR Inten    --      2.4686                 0.2997                 1.6117

                      7                      8                      9
                      A                      A                      A
 Frequencies --     87.5675                99.8099               112.6237
 Red. masses --      2.3037                 2.7964                 3.6929
 Frc consts  --      0.0104                 0.0164                 0.0276
 IR Inten    --      2.0890                 0.7165                 0.9656

                     10                     11                     12
                      A                      A                      A
 Frequencies --    171.0384               199.8265               208.9346
 Red. masses --      3.5194                 2.4631                 1.7612
 Frc consts  --      0.0607                 0.0579                 0.0453
 IR Inten    --      1.0388                 0.8168                 0.0601

                     13                     14                     15
                      A                      A                      A
 Frequencies --    230.7856               263.9150               273.1765
 Red. masses --      2.0622                 1.2773                 2.8559
 Frc consts  --      0.0647                 0.0524                 0.1256
 IR Inten    --      0.5953                 2.0098                 0.9856

                     16                     17                     18
                      A                      A                      A
 Frequencies --    289.1625               304.4975               336.7024
 Red. masses --      3.6842                 3.2587                 4.0419
 Frc consts  --      0.1815                 0.1780                 0.2700
 IR Inten    --      0.5271                 1.1277                 2.2509

                     19                     20                     21
                      A                      A                      A
 Frequencies --    360.9019               374.4995               402.8954
 Red. masses --      2.6032                 3.3678                 3.0819
 Frc consts  --      0.1998                 0.2783                 0.2947
 IR Inten    --      0.4950                 1.5349                 2.0118

                     22                     23                     24
                      A                      A                      A
 Frequencies --    423.1289               441.8172               468.1174
 Red. masses --      3.1118                 3.9580                 3.9286
 Frc consts  --      0.3283                 0.4552                 0.5072
 IR Inten    --      0.8618                 2.4369                 3.3434

                     25                     26                     27
                      A                      A                      A
 Frequencies --    515.2477               561.2115               584.9428
 Red. masses --      3.1822                 3.6866                 3.8072
 Frc consts  --      0.4978                 0.6841                 0.7675
 IR Inten    --      2.5526                 6.9062                10.5646

                     28                     29                     30
                      A                      A                      A
 Frequencies --    611.3337               658.8508               677.0865
 Red. masses --      4.3644                 6.6845                 5.3308
 Frc consts  --      0.9610                 1.7096                 1.4399
 IR Inten    --     14.9638                 0.2466                 2.2141

                     31                     32                     33
                      A                      A                      A
 Frequencies --    703.2998               731.0921               760.3054
 Red. masses --      4.5678                 3.2209                 1.8779
 Frc consts  --      1.3312                 1.0143                 0.6396
 IR Inten    --      0.4531                 4.0409                 4.5159

                     34                     35                     36
                      A                      A                      A
 Frequencies --    773.9696               793.9030               812.8378
 Red. masses --      1.5761                 1.4959                 1.7773
 Frc consts  --      0.5563                 0.5555                 0.6918
 IR Inten    --     34.1813                73.5045                32.3966

                     37                     38                     39
                      A                      A                      A
 Frequencies --    818.5471               836.3663               846.4977
 Red. masses --      2.8011                 1.5917                 1.2951
 Frc consts  --      1.1058                 0.6560                 0.5468
 IR Inten    --      6.0957                23.8307                 0.0765

                     40                     41                     42
                      A                      A                      A
 Frequencies --    868.9507               882.4688               950.5971
 Red. masses --      2.6159                 1.5194                 1.9815
 Frc consts  --      1.1638                 0.6971                 1.0550
 IR Inten    --      0.5973                 1.2390                 0.5637

                     43                     44                     45
                      A                      A                      A
 Frequencies --    956.1912               963.5797               968.8395
 Red. masses --      1.5283                 1.4288                 1.7842
 Frc consts  --      0.8233                 0.7816                 0.9867
 IR Inten    --      0.3616                 1.0325                 4.9259

                     46                     47                     48
                      A                      A                      A
 Frequencies --    985.4630               990.0450              1007.4203
 Red. masses --      1.9725                 1.2898                 5.2612
 Frc consts  --      1.1286                 0.7449                 3.1460
 IR Inten    --      2.5044                 0.7991                32.5536

                     49                     50                     51
                      A                      A                      A
 Frequencies --   1020.1313              1035.0171              1045.1540
 Red. masses --      1.4153                 2.4901                 2.3445
 Frc consts  --      0.8678                 1.5717                 1.5089
 IR Inten    --      1.3883                 0.6870                 3.6394

                     52                     53                     54
                      A                      A                      A
 Frequencies --   1075.8473              1095.4714              1119.7198
 Red. masses --      1.5080                 3.1901                 1.7046
 Frc consts  --      1.0284                 2.2556                 1.2592
 IR Inten    --     12.0224                 7.8568                 5.9838

                     55                     56                     57
                      A                      A                      A
 Frequencies --   1132.7214              1145.4659              1153.2059
 Red. masses --      1.8532                 2.8400                 1.3023
 Frc consts  --      1.4009                 2.1955                 1.0204
 IR Inten    --     23.8572                26.0353                 4.8406

                     58                     59                     60
                      A                      A                      A
 Frequencies --   1157.7101              1175.0282              1187.7576
 Red. masses --      1.3957                 1.8275                 1.7073
 Frc consts  --      1.1022                 1.4866                 1.4191
 IR Inten    --     62.1187                29.0521                 7.7387

                     61                     62                     63
                      A                      A                      A
 Frequencies --   1204.4136              1218.9125              1247.1344
 Red. masses --      1.2427                 1.1399                 3.0082
 Frc consts  --      1.0621                 0.9978                 2.7567
 IR Inten    --     17.0556                 0.6902                 2.7706

                     64                     65                     66
                      A                      A                      A
 Frequencies --   1261.3476              1285.7443              1309.3621
 Red. masses --      1.8996                 1.5450                 1.9188
 Frc consts  --      1.7807                 1.5048                 1.9382
 IR Inten    --     39.6826                 4.6370                63.9461

                     67                     68                     69
                      A                      A                      A
 Frequencies --   1327.0049              1342.9975              1352.6141
 Red. masses --      3.0590                 2.3951                 3.0271
 Frc consts  --      3.1738                 2.5452                 3.2630
 IR Inten    --     44.3778                40.5840                 2.7973

                     70                     71                     72
                      A                      A                      A
 Frequencies --   1358.4634              1401.6748              1408.4887
 Red. masses --      2.0294                 1.4601                 1.3752
 Frc consts  --      2.2065                 1.6901                 1.6074
 IR Inten    --     30.0385                12.0198                54.4049

                     73                     74                     75
                      A                      A                      A
 Frequencies --   1423.7535              1437.4256              1443.6563
 Red. masses --      1.8853                 1.3438                 1.2502
 Frc consts  --      2.2517                 1.6359                 1.5352
 IR Inten    --     82.9394                26.8215                 0.9314

                     76                     77                     78
                      A                      A                      A
 Frequencies --   1463.8678              1481.3305              1491.0779
 Red. masses --      2.5816                 1.1867                 2.1345
 Frc consts  --      3.2594                 1.5342                 2.7961
 IR Inten    --      0.6845                 4.5568                45.0822

                     79                     80                     81
                      A                      A                      A
 Frequencies --   1497.8724              1505.9099              1517.2491
 Red. masses --      1.8294                 1.3404                 1.0500
 Frc consts  --      2.4183                 1.7909                 1.4242
 IR Inten    --    209.9393                14.8592                11.5064

                     82                     83                     84
                      A                      A                      A
 Frequencies --   1517.3307              1517.4935              1521.0350
 Red. masses --      1.0692                 1.0556                 1.4402
 Frc consts  --      1.4504                 1.4322                 1.9631
 IR Inten    --      5.4618                 4.9765               205.1949

                     85                     86                     87
                      A                      A                      A
 Frequencies --   1524.6811              1534.4004              1538.2496
 Red. masses --      1.1664                 1.0813                 1.0777
 Frc consts  --      1.5976                 1.5000                 1.5024
 IR Inten    --     27.3408                 3.6329                13.2945

                     88                     89                     90
                      A                      A                      A
 Frequencies --   1546.5526              1567.9884              1624.9538
 Red. masses --      1.0543                 2.6433                 5.7743
 Frc consts  --      1.4858                 3.8290                 8.9833
 IR Inten    --      7.4005               146.5555                65.3945

                     91                     92                     93
                      A                      A                      A
 Frequencies --   1634.0213              1650.8977              1676.9116
 Red. masses --      6.2510                 5.7240                 5.8612
 Frc consts  --      9.8337                 9.1916                 9.7108
 IR Inten    --     24.4587               282.7272                 7.6622

                     94                     95                     96
                      A                      A                      A
 Frequencies --   2928.4988              2941.7415              3040.1842
 Red. masses --      1.0727                 1.0625                 1.0405
 Frc consts  --      5.4202                 5.4175                 5.6660
 IR Inten    --     53.5364               165.8070                45.0338

                     97                     98                     99
                      A                      A                      A
 Frequencies --   3054.5304              3071.4213              3083.5225
 Red. masses --      1.0371                 1.0717                 1.0872
 Frc consts  --      5.7012                 5.9568                 6.0902
 IR Inten    --     26.8075                41.1975                20.2476

                    100                    101                    102
                      A                      A                      A
 Frequencies --   3085.3334              3095.9127              3116.2504
 Red. masses --      1.0611                 1.0961                 1.1005
 Frc consts  --      5.9514                 6.1900                 6.2967
 IR Inten    --     20.3208                22.9075                35.5255

                    103                    104                    105
                      A                      A                      A
 Frequencies --   3119.8130              3124.6194              3131.2733
 Red. masses --      1.1023                 1.1022                 1.1041
 Frc consts  --      6.3211                 6.3402                 6.3781
 IR Inten    --     34.1433                16.6884                14.7442

                    106                    107                    108
                      A                      A                      A
 Frequencies --   3151.6078              3177.8953              3180.5462
 Red. masses --      1.1027                 1.0888                 1.0887
 Frc consts  --      6.4531                 6.4786                 6.4885
 IR Inten    --     30.1931                20.3994                24.3554

                    109                    110                    111
                      A                      A                      A
 Frequencies --   3188.0810              3208.1448              3211.8506
 Red. masses --      1.0877                 1.0941                 1.0925
 Frc consts  --      6.5136                 6.6344                 6.6402
 IR Inten    --     11.9046                21.1604                15.2082

                    112                    113                    114
                      A                      A                      A
 Frequencies --   3213.0126              3239.4779              3484.2638
 Red. masses --      1.0931                 1.0926                 1.0741
 Frc consts  --      6.6487                 6.7558                 7.6827
 IR Inten    --      3.8931                 6.2123                 0.8693

 - Thermochemistry -
 -------------------
 Temperature   298.150 Kelvin.  Pressure   1.00000 Atm.
 Atom     1 has atomic number  6 and mass  12.00000

 Molecular mass:   255.17355 amu.
 Principal axes and moments of inertia in atomic units:
                           1         2         3
     Eigenvalues --  2150.69164********************
           X            0.99998   0.00482  -0.00330
           Y           -0.00475   0.99974   0.02247
           Z            0.00340  -0.02245   0.99974
 This molecule is an asymmetric top.
 Rotational symmetry number  1.
 Warning -- assumption of classical behavior for rotation
           may cause significant error
 Rotational temperatures (Kelvin)      0.04027     0.00822     0.00754
 Rotational constants (GHZ):           0.83914     0.17121     0.15712
 Zero-point vibrational energy     906752.9 (Joules/Mol)
                                  216.71914 (Kcal/Mol)
 Warning -- explicit consideration of  28 degrees of freedom as
           vibrations may cause significant error
 Vibrational temperatures:     35.07    36.31    42.81    62.64    88.37
          (Kelvin)            112.86   125.99   143.60   162.04   246.09
                              287.51   300.61   332.05   379.71   393.04
                              416.04   438.10   484.44   519.26   538.82
                              579.68   608.79   635.68   673.52   741.33
                              807.46   841.60   879.57   947.94   974.18
                             1011.89  1051.88  1093.91  1113.57  1142.25
                             1169.49  1177.71  1203.34  1217.92  1250.23
                             1269.68  1367.70  1375.75  1386.38  1393.94
                             1417.86  1424.45  1449.45  1467.74  1489.16
                             1503.74  1547.90  1576.14  1611.03  1629.73
                             1648.07  1659.21  1665.69  1690.60  1708.92
                             1732.88  1753.74  1794.35  1814.80  1849.90
                             1883.88  1909.26  1932.27  1946.11  1954.53
                             2016.70  2026.50  2048.46  2068.13  2077.10
                             2106.18  2131.30  2145.33  2155.10  2166.67
                             2182.98  2183.10  2183.33  2188.43  2193.68
                             2207.66  2213.20  2225.14  2255.99  2337.95
                             2350.99  2375.27  2412.70  4213.46  4232.51
                             4374.15  4394.79  4419.09  4436.50  4439.11
                             4454.33  4483.59  4488.72  4495.63  4505.20
                             4534.46  4572.28  4576.10  4586.94  4615.80
                             4621.14  4622.81  4660.89  5013.08

 Zero-point correction=                           0.345364 (Hartree/Particle)
 Thermal correction to Energy=                    0.364313
 Thermal correction to Enthalpy=                  0.365257
 Thermal correction to Gibbs Free Energy=         0.295437
 Sum of electronic and zero-point Energies=           -786.336193
 Sum of electronic and thermal Energies=              -786.317244
 Sum of electronic and thermal Enthalpies=            -786.316300
 Sum of electronic and thermal Free Energies=         -786.386120

                     E (Thermal)             CV                S
                      KCal/Mol        Cal/Mol-Kelvin    Cal/Mol-Kelvin
 Total                  228.610             70.779            146.949
 Electronic               0.000              0.000              0.000
 Translational            0.889              2.981             42.510
 Rotational               0.889              2.981             33.920
 Vibrational            226.832             64.818             70.518
 Vibration     1          0.593              1.985              6.242
 Vibration     2          0.593              1.985              6.173
 Vibration     3          0.594              1.984              5.846
 Vibration     4          0.595              1.980              5.091
 Vibration     5          0.597              1.973              4.411
 Vibration     6          0.600              1.964              3.929
 Vibration     7          0.601              1.958              3.714
 Vibration     8          0.604              1.949              3.458
 Vibration     9          0.607              1.939              3.223
 Vibration    10          0.626              1.878              2.424
 Vibration    11          0.638              1.840              2.135
 Vibration    12          0.642              1.827              2.053
 Vibration    13          0.652              1.794              1.873
 Vibration    14          0.670              1.739              1.636
 Vibration    15          0.676              1.723              1.576
 Vibration    16          0.686              1.694              1.479
 Vibration    17          0.695              1.665              1.392
 Vibration    18          0.717              1.602              1.228
 Vibration    19          0.735              1.553              1.118
 Vibration    20          0.746              1.524              1.061
 Vibration    21          0.768              1.464              0.952
 Vibration    22          0.785              1.420              0.881
 Vibration    23          0.802              1.379              0.821
 Vibration    24          0.825              1.321              0.743
 Vibration    25          0.870              1.216              0.621
 Vibration    26          0.917              1.115              0.521
 Vibration    27          0.942              1.064              0.476
 Vibration    28          0.970              1.008              0.431

 Optimization completed.
    -- Stationary point found.
 Normal termination of Gaussian 16 at Sat Dec 12 10:43:25 2020.

 ----------------------------------------------------------------------
 # B3LYP/6-311++G(d,p) empiricaldispersion=gd3bj scf=xqc pop=npa geom=c
 heck
 ----------------------------------------------------------------------

 --------------------------------------
 CID_62294238_JID_9382_Energie_neutraal
 --------------------------------------
 Structure from the checkpoint file:  "JID_9382.chk"
 Charge =  0 Multiplicity = 1

 SCF Done:  E(RB3LYP) =  -786.889280835     A.U. after   16 cycles
 Normal termination of Gaussian 16 at Sat Dec 12 10:52:53 2020.

 ----------------------------------------------------------------------
 # B3LYP/6-311++G(d,p) empiricaldispersion=gd3bj scf=xqc pop=npa geom=c
 heck
 ----------------------------------------------------------------------

 ------------------------------------
 CID_62294238_JID_9382_Energie_kation
 ------------------------------------
 Structure from the checkpoint file:  "JID_9382.chk"
 Charge =  1 Multiplicity = 2

 SCF Done:  E(UB3LYP) =  -786.637344994     A.U. after   24 cycles
 Normal termination of Gaussian 16 at Sat Dec 12 11:13:20 2020.
 Gaussian 16:  ES64L-G16RevA.03 25-Dec-2016

 ----------------------------------------------------------------------
 # B3LYP/6-311++G(d,p) empiricaldispersion=gd3bj scf=xqc pop=npa geom=c
 heck
 ----------------------------------------------------------------------

 -----------------------------------
 CID_62294238_JID_9382_Energie_anion
 -----------------------------------
 Structure from the checkpoint file:  "JID_9382.chk"
 Charge = -1 Multiplicity = 2

                         Standard orientation:
 ---------------------------------------------------------------------
 Center     Atomic      Atomic             Coordinates (Angstroms)
 Number     Number       Type             X           Y           Z
 ---------------------------------------------------------------------
      1          6           0        0.206016    2.993350    0.883458
      2          6           0       -0.159314    2.129518   -0.323372
      3          7           0       -0.506316    0.744328    0.031561
      4          6           0       -1.854693    0.326880   -0.096488
      5          6           0       -2.885457    1.075005    0.484654
      6          6           0       -4.216604    0.700100    0.310577
      7          6           0       -4.562704   -0.438432   -0.423827
      8          6           0       -3.524297   -1.181198   -1.002105
      9          6           0       -2.193921   -0.803241   -0.855607
     10          6           0       -6.001478   -0.867376   -0.574802
     11          6           0        0.512212   -0.132238    0.379469
     12          6           0        0.249836   -1.402749    0.946176
     13          6           0        1.326340   -2.204960    1.279893
     14          6           0        2.631506   -1.748726    1.063364
     15          6           0        2.795923   -0.475485    0.521639
     16          7           0        1.763562    0.313610    0.190865
     17          6           0        4.175134    0.068351    0.231343
     18          7           0        4.552797   -0.204501   -1.156579
     19          6           0        5.915867    0.213889   -1.452188
     20          1           0       -0.621598    3.054380    1.598672
     21          1           0        0.453977    4.010211    0.557498
     22          1           0        1.077110    2.575539    1.394501
     23          1           0       -1.023082    2.543321   -0.849217
     24          1           0        0.682693    2.099650   -1.020030
     25          1           0       -2.641274    1.950889    1.077006
     26          1           0       -5.000394    1.299661    0.767291
     27          1           0       -3.763620   -2.059488   -1.597311
     28          1           0       -1.406993   -1.374186   -1.337709
     29          1           0       -6.198670   -1.261137   -1.578060
     30          1           0       -6.259203   -1.660361    0.139800
     31          1           0       -6.687825   -0.033051   -0.398264
     32          1           0       -0.766032   -1.727428    1.130968
     33          1           0        1.151836   -3.181303    1.724349
     34          1           0        3.493396   -2.353842    1.326191
     35          1           0        4.163252    1.155172    0.369779
     36          1           0        4.897759   -0.351490    0.958457
     37          1           0        4.458181   -1.204579   -1.326451
     38          1           0        6.681375   -0.209084   -0.772912
     39          1           0        6.171461   -0.069184   -2.478450
     40          1           0        5.981159    1.306123   -1.380143
 ---------------------------------------------------------------------

 SCF Done:  E(UB3LYP) =  -786.875601117     A.U. after   33 cycles
 SCF Done:  E(UB3LYP) =  -786.875601117     a.u. after    1 cycles

 The electronic state is 2-A.
 Alpha  occ. eigenvalues --  -14.24090 -14.20320 -14.19056 -10.14305 -10.11867
 Alpha  occ. eigenvalues --  -10.10963 -10.10366 -10.09459 -10.09330 -10.08736
 Alpha  occ. eigenvalues --  -10.08014 -10.07920 -10.07880 -10.07806 -10.07739
 Alpha  occ. eigenvalues --  -10.07304 -10.07271 -10.06885 -10.06787  -0.88079
 Alpha  occ. eigenvalues --   -0.82584  -0.80356  -0.76021  -0.69990  -0.68224
 Alpha  occ. eigenvalues --   -0.67983  -0.65473  -0.64574  -0.60243  -0.58958
 Alpha  occ. eigenvalues --   -0.55285  -0.54486  -0.51948  -0.51767  -0.50218
 Alpha  occ. eigenvalues --   -0.47719  -0.43989  -0.41065  -0.40430  -0.38654
 Alpha  occ. eigenvalues --   -0.37917  -0.37305  -0.36295  -0.35731  -0.35147
 Alpha  occ. eigenvalues --   -0.34617  -0.34045  -0.32908  -0.32767  -0.32144
 Alpha  occ. eigenvalues --   -0.31148  -0.30007  -0.29432  -0.29238  -0.28682
 Alpha  occ. eigenvalues --   -0.28470  -0.27121  -0.26742  -0.26587  -0.26047
 Alpha  occ. eigenvalues --   -0.25358  -0.24977  -0.20713  -0.18205  -0.16507
 Alpha  occ. eigenvalues --   -0.15959  -0.15436  -0.13431  -0.10197   0.04288
 Alpha virt. eigenvalues --    0.05264   0.06136   0.06911   0.07012   0.07350
 Alpha virt. eigenvalues --    0.07654   0.07774   0.08229   0.08852   0.08982
 Alpha virt. eigenvalues --    0.09214   0.09751   0.10156   0.10588   0.10878

  Beta  occ. eigenvalues --  -14.24093 -14.20294 -14.18938 -10.14314 -10.11874
  Beta  occ. eigenvalues --  -10.10963 -10.10291 -10.09456 -10.09297 -10.08745
  Beta  occ. eigenvalues --  -10.07904 -10.07896 -10.07838 -10.07767 -10.07681
  Beta  occ. eigenvalues --  -10.07268 -10.07264 -10.06845 -10.06812  -0.88027
  Beta  occ. eigenvalues --   -0.82478  -0.80292  -0.75961  -0.69824  -0.68152
  Beta  occ. eigenvalues --   -0.67928  -0.65372  -0.64519  -0.60175  -0.58895
  Beta  occ. eigenvalues --   -0.55205  -0.54422  -0.51895  -0.51669  -0.50050
  Beta  occ. eigenvalues --   -0.47674  -0.43940  -0.41028  -0.40372  -0.38606
  Beta  occ. eigenvalues --   -0.37862  -0.37246  -0.36261  -0.35632  -0.35075
  Beta  occ. eigenvalues --   -0.34577  -0.34005  -0.32867  -0.32712  -0.32103
  Beta  occ. eigenvalues --   -0.31085  -0.29928  -0.29384  -0.29074  -0.28626
  Beta  occ. eigenvalues --   -0.28431  -0.27067  -0.26675  -0.26511  -0.25970
  Beta  occ. eigenvalues --   -0.25302  -0.24941  -0.20540  -0.17615  -0.16253
  Beta  occ. eigenvalues --   -0.15777  -0.15257  -0.13390  -0.10049
  Beta virt. eigenvalues --    0.06117   0.06361   0.06921   0.07102   0.07173
  Beta virt. eigenvalues --    0.07421   0.08084   0.08329   0.08438   0.09041
  Beta virt. eigenvalues --    0.09113   0.09385   0.09885   0.10189   0.10835

 Mulliken charges and spin densities:
               1          2
     1  C   -0.371702  -0.001869
     2  C   -0.268135  -0.008669
     3  N    0.562071  -0.007328
     4  C   -0.807470  -0.080268
     5  C    0.408387  -0.222340
     6  C   -0.015521  -0.551261
     7  C   -1.231341   1.525904
     8  C   -0.675645   0.577543
     9  C   -0.292167   0.484547
    10  C    2.607132  -3.241856
    11  C   -1.125418   0.185122
    12  C    0.980052  -0.142239
    13  C   -0.617068  -0.032576
    14  C    0.270518  -0.062138
    15  C   -0.509679   0.373001
    16  N    0.102909   0.062705
    17  C   -0.025031  -0.612616
    18  N   -0.179616   0.127206
    19  C    0.545704  -0.866694
    20  H    0.108729   0.011704
    21  H    0.107572   0.003505
    22  H    0.175162   0.000592
    23  H    0.129956   0.003832
    24  H    0.204565  -0.000942
    25  H    0.079661   0.033449
    26  H   -0.297574   0.467137
    27  H   -0.055392   0.224847
    28  H    0.146317   0.016572
    29  H   -0.112731   0.245557
    30  H   -0.151091   0.319813
    31  H   -0.528467   0.676811
    32  H    0.157837   0.028508
    33  H    0.154432  -0.017382
    34  H   -0.228451   0.401942
    35  H    0.109242   0.056588
    36  H    0.062078   0.028137
    37  H    0.146026   0.060262
    38  H   -0.392090   0.508820
    39  H   -0.116641   0.239935
    40  H   -0.057123   0.184138
 Sum of Mulliken charges =  -1.00000   1.00000

 Dipole moment (field-independent basis, Debye):
    X=              1.6111    Y=              1.6489    Z=              1.0830  Tot=              2.5471
 Quadrupole moment (field-independent basis, Debye-Ang):
   XX=           -279.4176   YY=           -138.2231   ZZ=           -140.8320
   XY=             -0.1589   XZ=              2.5086   YZ=              1.7972

 Summary of Natural Population Analysis:

                                       Natural Population
                Natural  -----------------------------------------------
    Atom  No    Charge         Core      Valence    Rydberg      Total
 -----------------------------------------------------------------------
      C    1   -0.28942      0.99966     2.28627    0.00349     3.28942
      C    2   -0.08478      0.99962     2.07536    0.00980     3.08478
      N    3   -0.25125      0.99961     2.73938    0.01225     3.75125
      C    4    0.08100      0.99947     1.90842    0.01111     2.91900
      C    5   -0.10349      0.99952     2.09493    0.00904     3.10349
      C    6   -0.09307      0.99952     2.08374    0.00981     3.09307
      C    7   -0.02322      0.99952     2.01426    0.00944     3.02322
      C    8   -0.09051      0.99952     2.08140    0.00959     3.09051
      C    9   -0.10449      0.99952     2.09654    0.00843     3.10449
      C   10   -0.29240      0.99964     2.28684    0.00593     3.29240
      C   11    0.21118      0.99952     1.77545    0.01385     2.78882
      C   12   -0.13900      0.99953     2.13137    0.00810     3.13900
      C   13   -0.05829      0.99958     2.04972    0.00900     3.05829
      C   14   -0.15583      0.99950     2.14590    0.01042     3.15583
      C   15    0.12324      0.99953     1.86297    0.01425     2.87676
      N   16   -0.25231      0.99964     2.74278    0.00989     3.75231
      C   17   -0.09869      0.99959     2.08609    0.01301     3.09869
      N   18   -0.32931      0.99975     2.81837    0.01120     3.82931
      C   19   -0.17810      0.99967     2.17003    0.00841     3.17810
      H   20    0.09323      0.00000     0.40591    0.00086     0.40677
      H   21    0.09457      0.00000     0.40468    0.00074     0.40543
      H   22    0.10790      0.00000     0.39117    0.00093     0.39210
      H   23    0.09597      0.00000     0.40308    0.00096     0.40403
      H   24    0.10829      0.00000     0.39076    0.00095     0.39171
      H   25    0.10005      0.00000     0.39840    0.00155     0.39995
      H   26    0.09955      0.00000     0.39949    0.00096     0.40045
      H   27    0.09819      0.00000     0.40098    0.00083     0.40181
      H   28    0.10598      0.00000     0.39285    0.00117     0.39402
      H   29    0.10142      0.00000     0.39757    0.00101     0.39858
      H   30    0.10531      0.00000     0.39324    0.00144     0.39469
      H   31    0.10417      0.00000     0.39412    0.00171     0.39583
      H   32    0.10848      0.00000     0.39031    0.00121     0.39152
      H   33    0.09580      0.00000     0.40347    0.00073     0.40420
      H   34    0.10172      0.00000     0.39738    0.00090     0.39828
      H   35    0.09756      0.00000     0.40094    0.00150     0.40244
      H   36    0.08000      0.00000     0.41835    0.00165     0.42000
      H   37    0.16954      0.00000     0.32729    0.00317     0.33046
      H   38    0.07892      0.00000     0.41861    0.00247     0.42108
      H   39    0.09296      0.00000     0.40623    0.00081     0.40704
      H   40    0.08912      0.00000     0.40969    0.00119     0.41088
 =======================================================================
   * Total *   -0.00000     18.99189    49.79433    0.21378    69.00000

 Normal termination of Gaussian 16 at Sat Dec 12 11:41:28 2020.
