 Gaussian 16, Revision A.03,

 -----------------------------------------------------------
 # opt freq B3LYP/6-31G(d) empiricaldispersion=gd3bj scf=xqc
 -----------------------------------------------------------

 -------------------------------
 CID_110661317_JID_7851_neutraal
 -------------------------------
 Symbolic Z-matrix:
 Charge =  0 Multiplicity = 1

 SCF Done:  E(RB3LYP) =  -1127.46260837     A.U. after   14 cycles
 SCF Done:  E(RB3LYP) =  -1127.46831168     A.U. after   13 cycles
 SCF Done:  E(RB3LYP) =  -1127.46521879     A.U. after   15 cycles
 SCF Done:  E(RB3LYP) =  -1127.46902952     A.U. after   12 cycles
 SCF Done:  E(RB3LYP) =  -1127.47101503     A.U. after   12 cycles
 SCF Done:  E(RB3LYP) =  -1127.47251671     A.U. after   13 cycles
 SCF Done:  E(RB3LYP) =  -1127.47374061     A.U. after   15 cycles
 SCF Done:  E(RB3LYP) =  -1127.47481270     A.U. after   12 cycles
 SCF Done:  E(RB3LYP) =  -1127.47595692     A.U. after   12 cycles
 SCF Done:  E(RB3LYP) =  -1127.47711681     A.U. after   14 cycles
 SCF Done:  E(RB3LYP) =  -1127.47959948     A.U. after   10 cycles
 SCF Done:  E(RB3LYP) =  -1127.47960164     A.U. after   10 cycles
 SCF Done:  E(RB3LYP) =  -1127.47960164     A.U. after    8 cycles
 SCF Done:  E(RB3LYP) =  -1127.47960166     A.U. after    7 cycles
 Optimization completed.
    -- Stationary point found.
 Normal termination of Gaussian 16 at Fri Dec 11 13:41:45 2020.

 --------------------------------------------------------------------
 #N Geom=AllCheck Guess=TCheck SCRF=Check GenChk RB3LYP/6-31G(d) Freq
 --------------------------------------------------------------------

 Structure from the checkpoint file:  "JID_7851.chk"
 -------------------------------
 CID_110661317_JID_7851_neutraal
 -------------------------------
 Charge =  0 Multiplicity = 1

 SCF Done:  E(RB3LYP) =  -1127.47960166     A.U. after    1 cycles

  Exact polarizability: 180.331   7.814 171.167   6.526 -11.613 114.421
 Approx polarizability: 246.329   8.765 254.064  13.644 -26.069 193.478

                      1                      2                      3
                      A                      A                      A
 Frequencies --     14.7465                22.4159                42.2975
 Red. masses --      6.5934                 3.5432                 4.0227
 Frc consts  --      0.0008                 0.0010                 0.0042
 IR Inten    --      1.6920                 0.5381                 1.3161

                      4                      5                      6
                      A                      A                      A
 Frequencies --     43.2213                55.8171                62.1062
 Red. masses --      5.7797                 3.4628                 4.1448
 Frc consts  --      0.0064                 0.0064                 0.0094
 IR Inten    --      2.9092                 0.7247                 1.3521

                      7                      8                      9
                      A                      A                      A
 Frequencies --    117.6909               122.5291               145.1645
 Red. masses --      3.0235                 2.6920                 3.3048
 Frc consts  --      0.0247                 0.0238                 0.0410
 IR Inten    --      0.9795                 0.2806                 0.7878

                     10                     11                     12
                      A                      A                      A
 Frequencies --    175.1018               225.6132               245.2486
 Red. masses --      2.7773                 2.2449                 2.8822
 Frc consts  --      0.0502                 0.0673                 0.1021
 IR Inten    --      3.4399                 2.5598                 0.6579

                     13                     14                     15
                      A                      A                      A
 Frequencies --    259.9528               275.3501               301.9636
 Red. masses --      1.9817                 2.6350                 2.8279
 Frc consts  --      0.0789                 0.1177                 0.1519
 IR Inten    --      1.0047                 3.0549                 5.9204

                     16                     17                     18
                      A                      A                      A
 Frequencies --    312.5219               346.1066               372.6419
 Red. masses --      2.9848                 2.3196                 2.6352
 Frc consts  --      0.1718                 0.1637                 0.2156
 IR Inten    --      4.8493                 0.5101                 9.9628

                     19                     20                     21
                      A                      A                      A
 Frequencies --    384.4970               411.8965               420.3099
 Red. masses --      2.8793                 2.1764                 3.3025
 Frc consts  --      0.2508                 0.2176                 0.3437
 IR Inten    --     16.4812                 1.0995                 2.0043

                     22                     23                     24
                      A                      A                      A
 Frequencies --    463.1690               508.1654               513.0400
 Red. masses --      7.4732                 3.6961                 3.5551
 Frc consts  --      0.9446                 0.5623                 0.5513
 IR Inten    --      4.7775                 4.2215                11.5601

                     25                     26                     27
                      A                      A                      A
 Frequencies --    549.5195               594.6881               644.1774
 Red. masses --      4.2167                 3.3744                 5.6735
 Frc consts  --      0.7502                 0.7031                 1.3871
 IR Inten    --     35.4450                 3.2282                30.5276

                     28                     29                     30
                      A                      A                      A
 Frequencies --    648.9451               708.0314               738.3932
 Red. masses --      3.7890                 2.2830                 2.1482
 Frc consts  --      0.9401                 0.6743                 0.6901
 IR Inten    --     54.3181                39.4416                26.9559

                     31                     32                     33
                      A                      A                      A
 Frequencies --    754.1156               795.7609               805.9122
 Red. masses --      1.5727                 2.6541                 1.4129
 Frc consts  --      0.5270                 0.9902                 0.5407
 IR Inten    --     39.1012                17.8441                 2.1289

                     34                     35                     36
                      A                      A                      A
 Frequencies --    816.2115               850.3479               861.8392
 Red. masses --      1.5775                 1.9768                 2.0059
 Frc consts  --      0.6192                 0.8422                 0.8778
 IR Inten    --     13.2665               110.2548                17.3966

                     37                     38                     39
                      A                      A                      A
 Frequencies --    874.9250               908.3237               920.4607
 Red. masses --      2.0588                 1.6106                 2.2472
 Frc consts  --      0.9285                 0.7829                 1.1218
 IR Inten    --     44.3435                 0.1605                21.4828

                     40                     41                     42
                      A                      A                      A
 Frequencies --    949.2277               958.7912               977.5644
 Red. masses --      1.3772                 1.7431                 1.4355
 Frc consts  --      0.7311                 0.9441                 0.8082
 IR Inten    --      2.2745                11.5621                 2.7001

                     43                     44                     45
                      A                      A                      A
 Frequencies --   1016.8133              1044.5339              1055.0038
 Red. masses --      1.3286                 3.7292                 2.9409
 Frc consts  --      0.8093                 2.3972                 1.9286
 IR Inten    --      7.2035                19.0716                25.5673

                     46                     47                     48
                      A                      A                      A
 Frequencies --   1059.1563              1075.5539              1078.8994
 Red. masses --      1.7970                 2.7202                 2.2348
 Frc consts  --      1.1877                 1.8540                 1.5327
 IR Inten    --      3.3047                27.3852                 6.6619

                     49                     50                     51
                      A                      A                      A
 Frequencies --   1085.4062              1092.1389              1104.0797
 Red. masses --      1.6110                 2.2940                 2.5587
 Frc consts  --      1.1182                 1.6122                 1.8377
 IR Inten    --     21.2820                23.6000                 7.6345

                     52                     53                     54
                      A                      A                      A
 Frequencies --   1113.1003              1126.4553              1161.3001
 Red. masses --      2.2848                 3.0782                 1.5647
 Frc consts  --      1.6679                 2.3013                 1.2433
 IR Inten    --     23.9113                73.7322                 1.2408

                     55                     56                     57
                      A                      A                      A
 Frequencies --   1198.4312              1212.8927              1234.4124
 Red. masses --      1.3053                 1.2877                 1.5791
 Frc consts  --      1.1045                 1.1161                 1.4177
 IR Inten    --      8.2894                13.2428                 3.8472

                     58                     59                     60
                      A                      A                      A
 Frequencies --   1235.7288              1259.5137              1285.6115
 Red. masses --      1.4602                 1.6784                 1.5873
 Frc consts  --      1.3137                 1.5687                 1.5457
 IR Inten    --     18.3530                 3.5902                26.3940

                     61                     62                     63
                      A                      A                      A
 Frequencies --   1294.5240              1313.3341              1321.8012
 Red. masses --      1.3481                 3.5650                 3.2090
 Frc consts  --      1.3310                 3.6229                 3.3033
 IR Inten    --      9.2835                85.1605                21.1496

                     64                     65                     66
                      A                      A                      A
 Frequencies --   1350.4184              1355.9009              1357.0736
 Red. masses --      1.2806                 1.1861                 1.2297
 Frc consts  --      1.3760                 1.2848                 1.3343
 IR Inten    --      8.9952                 6.0730                10.0000

                     67                     68                     69
                      A                      A                      A
 Frequencies --   1384.2662              1392.1020              1399.0039
 Red. masses --      1.3407                 1.2503                 1.4017
 Frc consts  --      1.5136                 1.4276                 1.6163
 IR Inten    --      0.5529                 4.0911                 3.0525

                     70                     71                     72
                      A                      A                      A
 Frequencies --   1402.0674              1422.7698              1452.1131
 Red. masses --      1.3536                 1.3988                 1.2338
 Frc consts  --      1.5677                 1.6683                 1.5329
 IR Inten    --     11.6263                 1.9503                 4.7008

                     73                     74                     75
                      A                      A                      A
 Frequencies --   1467.3098              1477.9999              1479.9208
 Red. masses --      1.2813                 2.2789                 1.0950
 Frc consts  --      1.6253                 2.9330                 1.4130
 IR Inten    --     31.5046                25.9975                 5.5853

                     76                     77                     78
                      A                      A                      A
 Frequencies --   1514.4234              1515.6538              1516.1904
 Red. masses --      1.0777                 1.1051                 1.0707
 Frc consts  --      1.4563                 1.4958                 1.4502
 IR Inten    --      2.4839                 4.1845                 1.7498

                     79                     80                     81
                      A                      A                      A
 Frequencies --   1524.9855              1528.2662              1530.3181
 Red. masses --      1.1102                 1.4551                 1.4066
 Frc consts  --      1.5212                 2.0024                 1.9408
 IR Inten    --      6.3576                11.2048                 7.5622

                     82                     83                     84
                      A                      A                      A
 Frequencies --   1530.9542              1535.2952              1633.3286
 Red. masses --      1.0547                 1.0559                 4.9839
 Frc consts  --      1.4564                 1.4663                 7.8337
 IR Inten    --      7.8061                 9.6467                15.7898

                     85                     86                     87
                      A                      A                      A
 Frequencies --   1653.2423              3030.7103              3039.3591
 Red. masses --      5.4064                 1.0649                 1.0682
 Frc consts  --      8.7062                 5.7632                 5.8138
 IR Inten    --      4.6092                24.3219                40.1536

                     88                     89                     90
                      A                      A                      A
 Frequencies --   3052.5819              3055.2418              3058.0840
 Red. masses --      1.0607                 1.0647                 1.0391
 Frc consts  --      5.8236                 5.8558                 5.7253
 IR Inten    --     21.2299                25.6920                22.1811

                     91                     92                     93
                      A                      A                      A
 Frequencies --   3064.7616              3077.3689              3086.1609
 Red. masses --      1.0724                 1.1001                 1.0616
 Frc consts  --      5.9348                 6.1383                 5.9575
 IR Inten    --     31.2005                18.1527                 5.6363

                     94                     95                     96
                      A                      A                      A
 Frequencies --   3093.2335              3099.2171              3099.8766
 Red. masses --      1.1012                 1.0958                 1.0933
 Frc consts  --      6.2078                 6.2015                 6.1900
 IR Inten    --     41.4414                 4.1703                32.3547

                     97                     98                     99
                      A                      A                      A
 Frequencies --   3122.6890              3144.7779              3146.8249
 Red. masses --      1.1016                 1.0893                 1.1066
 Frc consts  --      6.3291                 6.3472                 6.4565
 IR Inten    --     31.9150                36.6349                 5.7333

                    100                    101                    102
                      A                      A                      A
 Frequencies --   3150.6256              3152.1501              3170.8584
 Red. masses --      1.1013                 1.0944                 1.0892
 Frc consts  --      6.4409                 6.4066                 6.4521
 IR Inten    --     19.6648                 7.6462                25.7215

                    103                    104                    105
                      A                      A                      A
 Frequencies --   3203.7847              3215.8138              3500.9994
 Red. masses --      1.0903                 1.0965                 1.0742
 Frc consts  --      6.5938                 6.6807                 7.7571
 IR Inten    --     18.2668                10.0364                14.1174

 - Thermochemistry -
 -------------------
 Temperature   298.150 Kelvin.  Pressure   1.00000 Atm.
 Atom     1 has atomic number  6 and mass  12.00000

 Molecular mass:   256.12455 amu.
 Principal axes and moments of inertia in atomic units:
                           1         2         3
     Eigenvalues --  2582.057107869.248019541.81259
           X            0.99969   0.02446   0.00359
           Y           -0.02447   0.99969   0.00463
           Z           -0.00347  -0.00472   0.99998
 This molecule is an asymmetric top.
 Rotational symmetry number  1.
 Warning -- assumption of classical behavior for rotation
           may cause significant error
 Rotational temperatures (Kelvin)      0.03354     0.01101     0.00908
 Rotational constants (GHZ):           0.69895     0.22934     0.18914
 Zero-point vibrational energy     834731.5 (Joules/Mol)
                                  199.50563 (Kcal/Mol)
 Warning -- explicit consideration of  26 degrees of freedom as
           vibrations may cause significant error
 Vibrational temperatures:     21.22    32.25    60.86    62.19    80.31
          (Kelvin)             89.36   169.33   176.29   208.86   251.93
                              324.61   352.86   374.01   396.17   434.46
                              449.65   497.97   536.15   553.21   592.63
                              604.73   666.40   731.14   738.15   790.64
                              855.62   926.83   933.69  1018.70  1062.38
                             1085.00  1144.92  1159.53  1174.35  1223.46
                             1239.99  1258.82  1306.88  1324.34  1365.73
                             1379.49  1406.50  1462.97  1502.85  1517.92
                             1523.89  1547.48  1552.30  1561.66  1571.34
                             1588.52  1601.50  1620.72  1670.85  1724.28
                             1745.08  1776.04  1777.94  1812.16  1849.71
                             1862.53  1889.59  1901.78  1942.95  1950.84
                             1952.53  1991.65  2002.92  2012.85  2017.26
                             2047.05  2089.27  2111.13  2126.51  2129.28
                             2178.92  2180.69  2181.46  2194.11  2198.83
                             2201.79  2202.70  2208.95  2350.00  2378.65
                             4360.52  4372.96  4391.98  4395.81  4399.90
                             4409.51  4427.65  4440.30  4450.47  4459.08
                             4460.03  4492.85  4524.63  4527.58  4533.05
                             4535.24  4562.16  4609.53  4626.84  5037.16

 Zero-point correction=                           0.317932 (Hartree/Particle)
 Thermal correction to Energy=                    0.335753
 Thermal correction to Enthalpy=                  0.336697
 Thermal correction to Gibbs Free Energy=         0.268862
 Sum of electronic and zero-point Energies=          -1127.161669
 Sum of electronic and thermal Energies=             -1127.143849
 Sum of electronic and thermal Enthalpies=           -1127.142905
 Sum of electronic and thermal Free Energies=        -1127.210740

                     E (Thermal)             CV                S
                      KCal/Mol        Cal/Mol-Kelvin    Cal/Mol-Kelvin
 Total                  210.688             66.219            142.771
 Electronic               0.000              0.000              0.000
 Translational            0.889              2.981             42.521
 Rotational               0.889              2.981             33.627
 Vibrational            208.911             60.257             66.623
 Vibration     1          0.593              1.986              7.239
 Vibration     2          0.593              1.985              6.408
 Vibration     3          0.595              1.980              5.148
 Vibration     4          0.595              1.980              5.106
 Vibration     5          0.596              1.975              4.600
 Vibration     6          0.597              1.972              4.389
 Vibration     7          0.608              1.935              3.138
 Vibration     8          0.610              1.930              3.060
 Vibration     9          0.617              1.908              2.735
 Vibration    10          0.627              1.873              2.380
 Vibration    11          0.650              1.802              1.914
 Vibration    12          0.660              1.771              1.764
 Vibration    13          0.668              1.746              1.662
 Vibration    14          0.677              1.719              1.562
 Vibration    15          0.694              1.670              1.406
 Vibration    16          0.701              1.650              1.349
 Vibration    17          0.724              1.583              1.184
 Vibration    18          0.744              1.528              1.069
 Vibration    19          0.753              1.503              1.021
 Vibration    20          0.776              1.444              0.920
 Vibration    21          0.783              1.426              0.891
 Vibration    22          0.821              1.332              0.757
 Vibration    23          0.863              1.232              0.638
 Vibration    24          0.868              1.221              0.626
 Vibration    25          0.905              1.141              0.545
 Vibration    26          0.952              1.043              0.459

 Optimization completed.
    -- Stationary point found.
 Normal termination of Gaussian 16 at Fri Dec 11 13:54:11 2020.

 ----------------------------------------------------------------------
 # B3LYP/6-311++G(d,p) empiricaldispersion=gd3bj scf=xqc pop=npa geom=c
 heck
 ----------------------------------------------------------------------

 ---------------------------------------
 CID_110661317_JID_7851_Energie_neutraal
 ---------------------------------------
 Structure from the checkpoint file:  "JID_7851.chk"
 Charge =  0 Multiplicity = 1

 SCF Done:  E(RB3LYP) =  -1127.71137020     A.U. after   15 cycles
 Normal termination of Gaussian 16 at Fri Dec 11 13:59:55 2020.

 ----------------------------------------------------------------------
 # B3LYP/6-311++G(d,p) empiricaldispersion=gd3bj scf=xqc pop=npa geom=c
 heck
 ----------------------------------------------------------------------

 -------------------------------------
 CID_110661317_JID_7851_Energie_kation
 -------------------------------------
 Structure from the checkpoint file:  "JID_7851.chk"
 Charge =  1 Multiplicity = 2

 SCF Done:  E(UB3LYP) =  -1127.39040159     A.U. after   33 cycles
 SCF Done:  E(UB3LYP) =  -1127.39056912     a.u. after    8 cycles
 Normal termination of Gaussian 16 at Fri Dec 11 16:02:35 2020.
 Gaussian 16:  ES64L-G16RevA.03 25-Dec-2016

 ----------------------------------------------------------------------
 # B3LYP/6-311++G(d,p) empiricaldispersion=gd3bj scf=xqc pop=npa geom=c
 heck
 ----------------------------------------------------------------------

 ------------------------------------
 CID_110661317_JID_7851_Energie_anion
 ------------------------------------
 Structure from the checkpoint file:  "JID_7851.chk"
 Charge = -1 Multiplicity = 2

                         Standard orientation:
 ---------------------------------------------------------------------
 Center     Atomic      Atomic             Coordinates (Angstroms)
 Number     Number       Type             X           Y           Z
 ---------------------------------------------------------------------
      1          6           0        4.012597    2.163279    0.948206
      2          6           0        4.453531    1.128363   -0.090567
      3          6           0        3.807074   -0.249282    0.076505
      4         16           0        2.033076   -0.224341   -0.288356
      5          8           0        1.310351    0.355808    0.854863
      6          8           0        1.860157    0.335274   -1.637047
      7          7           0        1.688692   -1.887911   -0.291639
      8          6           0        0.383442   -2.284817    0.271661
      9          6           0       -0.812241   -2.024444   -0.649718
     10          6           0       -2.154387   -2.364426    0.011380
     11          6           0       -2.594602   -1.364792    1.105315
     12          6           0       -2.905245    0.005713    0.553909
     13          6           0       -4.180375    0.296489    0.051688
     14          7           0       -4.535304    1.462342   -0.497191
     15          6           0       -3.594403    2.413325   -0.567722
     16          6           0       -2.293666    2.240779   -0.096865
     17          6           0       -1.943925    1.018809    0.475246
     18          1           0        2.942874    2.375366    0.876818
     19          1           0        4.559188    3.101138    0.805623
     20          1           0        4.210981    1.807328    1.965926
     21          1           0        4.245663    1.490366   -1.103503
     22          1           0        5.538241    0.976558   -0.026649
     23          1           0        4.233905   -0.978644   -0.618645
     24          1           0        3.896726   -0.639861    1.093954
     25          1           0        1.807851   -2.225163   -1.246878
     26          1           0        0.458859   -3.353157    0.506095
     27          1           0        0.279311   -1.753127    1.218814
     28          1           0       -0.808520   -0.976058   -0.968554
     29          1           0       -0.691370   -2.625786   -1.561259
     30          1           0       -2.934387   -2.399045   -0.758571
     31          1           0       -2.103013   -3.371591    0.448447
     32          1           0       -3.485727   -1.768554    1.600945
     33          1           0       -1.819426   -1.286105    1.876595
     34          1           0       -4.962625   -0.462075    0.102682
     35          1           0       -3.899411    3.355450   -1.020093
     36          1           0       -1.567410    3.043922   -0.177154
     37          1           0       -0.935497    0.854843    0.844170
 ---------------------------------------------------------------------

 SCF Done:  E(UB3LYP) =  -1127.70468248     A.U. after   33 cycles
 SCF Done:  E(UB3LYP) =  -1127.70468248     a.u. after    1 cycles

 The electronic state is 2-A.
 Alpha  occ. eigenvalues --  -88.96549 -19.02488 -19.02272 -14.24787 -14.21627
 Alpha  occ. eigenvalues --  -10.11485 -10.11417 -10.11274 -10.11157 -10.09353
 Alpha  occ. eigenvalues --  -10.09036 -10.08894 -10.08833 -10.08620 -10.08427
 Alpha  occ. eigenvalues --  -10.07752 -10.07158  -8.02805  -5.99091  -5.99059
 Alpha  occ. eigenvalues --   -5.98846  -1.02355  -0.91469  -0.85072  -0.83188
 Alpha  occ. eigenvalues --   -0.73562  -0.72143  -0.69893  -0.67673  -0.64349
 Alpha  occ. eigenvalues --   -0.61785  -0.57419  -0.54035  -0.53770  -0.52212
 Alpha  occ. eigenvalues --   -0.49639  -0.48732  -0.44698  -0.42664  -0.40850
 Alpha  occ. eigenvalues --   -0.39997  -0.39672  -0.38166  -0.37130  -0.36999
 Alpha  occ. eigenvalues --   -0.35480  -0.35153  -0.33679  -0.32956  -0.32435
 Alpha  occ. eigenvalues --   -0.31346  -0.31264  -0.30528  -0.29445  -0.27916
 Alpha  occ. eigenvalues --   -0.27673  -0.27381  -0.26851  -0.26044  -0.25361
 Alpha  occ. eigenvalues --   -0.25026  -0.24560  -0.22868  -0.21611  -0.20895
 Alpha  occ. eigenvalues --   -0.19365  -0.17616  -0.16802  -0.16680   0.03788
 Alpha virt. eigenvalues --    0.05324   0.05880   0.06664   0.07285   0.07613
 Alpha virt. eigenvalues --    0.07936   0.08125   0.08861   0.08974   0.10117
 Alpha virt. eigenvalues --    0.10436   0.10688   0.11238   0.11520   0.12002

  Beta  occ. eigenvalues --  -88.96546 -19.02472 -19.02263 -14.24765 -14.21562
  Beta  occ. eigenvalues --  -10.11453 -10.11393 -10.11280 -10.11117 -10.09331
  Beta  occ. eigenvalues --  -10.09012 -10.08909 -10.08830 -10.08552 -10.08406
  Beta  occ. eigenvalues --  -10.07740 -10.07142  -8.02801  -5.99085  -5.99057
  Beta  occ. eigenvalues --   -5.98843  -1.02317  -0.91434  -0.84974  -0.83142
  Beta  occ. eigenvalues --   -0.73496  -0.72093  -0.69824  -0.67625  -0.64302
  Beta  occ. eigenvalues --   -0.61732  -0.57371  -0.53994  -0.53686  -0.52133
  Beta  occ. eigenvalues --   -0.49572  -0.48684  -0.44635  -0.42620  -0.40812
  Beta  occ. eigenvalues --   -0.39955  -0.39641  -0.38134  -0.37083  -0.36949
  Beta  occ. eigenvalues --   -0.35441  -0.35124  -0.33646  -0.32919  -0.32398
  Beta  occ. eigenvalues --   -0.31306  -0.31162  -0.30458  -0.29337  -0.27881
  Beta  occ. eigenvalues --   -0.27635  -0.27340  -0.26816  -0.26013  -0.25326
  Beta  occ. eigenvalues --   -0.24983  -0.24527  -0.22849  -0.21592  -0.20862
  Beta  occ. eigenvalues --   -0.19062  -0.17587  -0.16728  -0.16511
  Beta virt. eigenvalues --    0.05984   0.06200   0.06444   0.07240   0.07394
  Beta virt. eigenvalues --    0.07899   0.08292   0.08575   0.09162   0.09375
  Beta virt. eigenvalues --    0.10319   0.10613   0.10875   0.11418   0.11963

 Mulliken charges and spin densities:
               1          2
     1  C    0.292515  -0.741924
     2  C   -0.016303  -0.189724
     3  C   -0.201379  -0.020217
     4  S    0.815271  -1.258587
     5  O   -0.153849   0.024915
     6  O   -0.052669   0.018546
     7  N   -0.158309   0.104419
     8  C   -0.113153  -0.888812
     9  C   -0.124834   0.252038
    10  C    0.205758  -0.614975
    11  C   -0.008190  -0.450775
    12  C    0.147345   0.494428
    13  C   -0.346064  -0.099317
    14  N   -0.075308   0.034695
    15  C   -0.402667  -0.019253
    16  C    0.035368  -0.188783
    17  C   -0.100200  -0.011758
    18  H    0.118229   0.050964
    19  H   -0.018162   0.147804
    20  H    0.017849   0.117971
    21  H    0.104824   0.060981
    22  H   -0.530463   0.721484
    23  H   -0.495187   0.717039
    24  H   -0.227143   0.457990
    25  H   -0.147759   0.446052
    26  H   -0.506249   0.712824
    27  H    0.166442   0.078387
    28  H    0.160324   0.061519
    29  H   -0.084028   0.237473
    30  H    0.060818   0.090959
    31  H   -0.195022   0.346343
    32  H    0.086292   0.110899
    33  H    0.057478   0.082494
    34  H    0.114706   0.048307
    35  H    0.149317   0.000423
    36  H    0.140931   0.020706
    37  H    0.283470   0.044465
 Sum of Mulliken charges =  -1.00000   1.00000

 Dipole moment (field-independent basis, Debye):
    X=             -4.5095    Y=              3.2250    Z=              1.1848  Tot=              5.6692
 Quadrupole moment (field-independent basis, Debye-Ang):
   XX=           -211.7900   YY=           -158.8829   ZZ=           -141.9809
   XY=              9.0766   XZ=             -0.6330   YZ=             -1.1055

 Summary of Natural Population Analysis:

                                       Natural Population
                Natural  -----------------------------------------------
    Atom  No    Charge         Core      Valence    Rydberg      Total
 -----------------------------------------------------------------------
      C    1   -0.28955      0.99966     2.28371    0.00617     3.28955
      C    2   -0.20296      0.99963     2.19366    0.00967     3.20296
      C    3   -0.27885      0.99958     2.26763    0.01165     3.27885
      S    4    1.08770      4.99929     1.81559    0.09741     6.91230
      O    5   -0.47250      0.99990     3.46679    0.00581     4.47250
      O    6   -0.46573      0.99991     3.46038    0.00544     4.46573
      N    7   -0.43097      0.99977     2.91737    0.01383     3.93097
      C    8   -0.09367      0.99960     2.08152    0.01255     3.09367
      C    9   -0.20397      0.99961     2.19465    0.00971     3.20397
      C   10   -0.18424      0.99962     2.17617    0.00845     3.18424
      C   11   -0.20076      0.99960     2.19095    0.01021     3.20076
      C   12   -0.03278      0.99950     2.02267    0.01061     3.03278
      C   13    0.02229      0.99953     1.96332    0.01486     2.97771
      N   14   -0.22713      0.99972     2.71662    0.01079     3.72713
      C   15    0.02402      0.99960     1.96281    0.01357     2.97598
      C   16   -0.12222      0.99956     2.11380    0.00885     3.12222
      C   17   -0.07612      0.99951     2.06800    0.00861     3.07612
      H   18    0.10599      0.00000     0.39293    0.00107     0.39401
      H   19    0.09748      0.00000     0.40178    0.00074     0.40252
      H   20    0.09755      0.00000     0.40153    0.00092     0.40245
      H   21    0.10539      0.00000     0.39342    0.00119     0.39461
      H   22    0.10499      0.00000     0.39270    0.00231     0.39501
      H   23    0.12047      0.00000     0.37644    0.00308     0.37953
      H   24    0.11517      0.00000     0.38328    0.00155     0.38483
      H   25    0.19514      0.00000     0.30140    0.00345     0.30486
      H   26    0.10050      0.00000     0.39738    0.00212     0.39950
      H   27    0.10582      0.00000     0.39248    0.00170     0.39418
      H   28    0.10471      0.00000     0.39355    0.00174     0.39529
      H   29    0.09852      0.00000     0.40023    0.00125     0.40148
      H   30    0.09835      0.00000     0.40064    0.00102     0.40165
      H   31    0.09866      0.00000     0.39990    0.00145     0.40134
      H   32    0.10214      0.00000     0.39693    0.00093     0.39786
      H   33    0.10269      0.00000     0.39614    0.00117     0.39731
      H   34    0.08601      0.00000     0.41196    0.00203     0.41399
      H   35    0.08584      0.00000     0.41305    0.00111     0.41416
      H   36    0.10391      0.00000     0.39515    0.00095     0.39609
      H   37    0.11809      0.00000     0.37970    0.00221     0.38191
 =======================================================================
   * Total *   -0.00000     20.99358    47.71625    0.29016    69.00000

 Normal termination of Gaussian 16 at Fri Dec 11 16:19:39 2020.
