 Gaussian 16, Revision A.03,

 -----------------------------------------------------------
 # opt freq B3LYP/6-31G(d) empiricaldispersion=gd3bj scf=xqc
 -----------------------------------------------------------

 -------------------------------
 CID_131366807_JID_3388_neutraal
 -------------------------------
 Symbolic Z-matrix:
 Charge =  0 Multiplicity = 1

 SCF Done:  E(RB3LYP) =  -589.061837066     A.U. after   15 cycles
 SCF Done:  E(RB3LYP) =  -589.064907829     A.U. after   13 cycles
 SCF Done:  E(RB3LYP) =  -589.065246490     A.U. after   12 cycles
 SCF Done:  E(RB3LYP) =  -589.065349384     A.U. after   12 cycles
 SCF Done:  E(RB3LYP) =  -589.065414921     A.U. after   10 cycles
 SCF Done:  E(RB3LYP) =  -589.065601910     A.U. after   12 cycles
 SCF Done:  E(RB3LYP) =  -589.065395977     A.U. after   15 cycles
 SCF Done:  E(RB3LYP) =  -589.065858965     A.U. after   12 cycles
 SCF Done:  E(RB3LYP) =  -589.066126043     A.U. after   13 cycles
 SCF Done:  E(RB3LYP) =  -589.066395428     A.U. after   13 cycles
 SCF Done:  E(RB3LYP) =  -589.066400350     A.U. after   10 cycles
 SCF Done:  E(RB3LYP) =  -589.066409753     A.U. after   10 cycles
 SCF Done:  E(RB3LYP) =  -589.066410281     A.U. after   10 cycles
 SCF Done:  E(RB3LYP) =  -589.066410505     A.U. after    9 cycles
 SCF Done:  E(RB3LYP) =  -589.066410540     A.U. after    8 cycles
 Optimization completed.
    -- Stationary point found.
 Normal termination of Gaussian 16 at Wed Dec  9 23:07:21 2020.

 --------------------------------------------------------------------
 #N Geom=AllCheck Guess=TCheck SCRF=Check GenChk RB3LYP/6-31G(d) Freq
 --------------------------------------------------------------------

 Structure from the checkpoint file:  "JID_3388.chk"
 -------------------------------
 CID_131366807_JID_3388_neutraal
 -------------------------------
 Charge =  0 Multiplicity = 1

 SCF Done:  E(RB3LYP) =  -589.066410540     A.U. after    1 cycles

  Exact polarizability: 157.875  11.606 105.635  -2.448   3.367  71.100
 Approx polarizability: 209.504  33.290 175.450  -3.864   9.894 113.056

                      1                      2                      3
                      A                      A                      A
 Frequencies --     29.0404                75.8909                88.3553
 Red. masses --      4.4278                 4.5473                 6.1108
 Frc consts  --      0.0022                 0.0154                 0.0281
 IR Inten    --      0.7335                 0.1477                 1.8437

                      4                      5                      6
                      A                      A                      A
 Frequencies --    147.3973               183.1597               234.7336
 Red. masses --      6.1616                 6.4877                 3.9452
 Frc consts  --      0.0789                 0.1282                 0.1281
 IR Inten    --      2.4648                 4.4708                 3.9124

                      7                      8                      9
                      A                      A                      A
 Frequencies --    245.1384               295.7940               355.9054
 Red. masses --      1.9587                 5.6143                 1.9845
 Frc consts  --      0.0694                 0.2894                 0.1481
 IR Inten    --      1.9147                 1.8905                 0.4275

                     10                     11                     12
                      A                      A                      A
 Frequencies --    405.4732               452.8310               472.7554
 Red. masses --      5.7080                 3.3272                 3.4995
 Frc consts  --      0.5529                 0.4020                 0.4608
 IR Inten    --      4.4187                 5.6270                 3.1539

                     13                     14                     15
                      A                      A                      A
 Frequencies --    499.9231               539.4111               570.9232
 Red. masses --      6.3874                 1.6981                 6.6492
 Frc consts  --      0.9405                 0.2911                 1.2770
 IR Inten    --      1.2914                12.7698                 0.4887

                     16                     17                     18
                      A                      A                      A
 Frequencies --    604.2749               653.3588               699.2167
 Red. masses --      9.0738                 4.7503                 5.1612
 Frc consts  --      1.9521                 1.1947                 1.4867
 IR Inten    --      2.0539                 4.3584                18.9293

                     19                     20                     21
                      A                      A                      A
 Frequencies --    796.2076               809.0982               844.3116
 Red. masses --      1.5112                 2.6314                 3.2844
 Frc consts  --      0.5645                 1.0150                 1.3795
 IR Inten    --     63.0126                 0.6974                 2.9503

                     22                     23                     24
                      A                      A                      A
 Frequencies --    870.0438               873.8108               896.6511
 Red. masses --      1.5834                 1.4061                 2.2981
 Frc consts  --      0.7062                 0.6326                 1.0886
 IR Inten    --     18.5624                 5.0632                 1.8691

                     25                     26                     27
                      A                      A                      A
 Frequencies --    938.1582               955.7432               988.8143
 Red. masses --      2.3928                 1.5783                 4.8499
 Frc consts  --      1.2408                 0.8494                 2.7939
 IR Inten    --      5.0519                 1.9616                 2.3027

                     28                     29                     30
                      A                      A                      A
 Frequencies --   1008.7245              1060.1899              1075.3656
 Red. masses --      7.0126                 2.3975                 1.7909
 Frc consts  --      4.2041                 1.5877                 1.2202
 IR Inten    --     33.9536                 8.8850                 2.4542

                     31                     32                     33
                      A                      A                      A
 Frequencies --   1094.1631              1146.7430              1150.2733
 Red. masses --      1.6557                 3.4653                 2.0596
 Frc consts  --      1.1679                 2.6849                 1.6056
 IR Inten    --      2.1665                24.7503                 6.8599

                     34                     35                     36
                      A                      A                      A
 Frequencies --   1175.9872              1182.2580              1216.8034
 Red. masses --      1.9521                 1.4306                 3.5365
 Frc consts  --      1.5906                 1.1781                 3.0851
 IR Inten    --     54.0369                 8.0415                 4.5114

                     37                     38                     39
                      A                      A                      A
 Frequencies --   1246.3642              1267.0520              1296.0104
 Red. masses --      1.7737                 2.7667                 1.3580
 Frc consts  --      1.6234                 2.6170                 1.3439
 IR Inten    --      6.2630                 3.4919                15.5517

                     40                     41                     42
                      A                      A                      A
 Frequencies --   1308.7130              1327.6370              1351.8782
 Red. masses --      1.2126                 1.8162                 1.4263
 Frc consts  --      1.2237                 1.8861                 1.5358
 IR Inten    --      4.9991                12.6074                48.2129

                     43                     44                     45
                      A                      A                      A
 Frequencies --   1375.0897              1386.2669              1402.6855
 Red. masses --      1.4812                 1.4972                 1.4270
 Frc consts  --      1.6501                 1.6952                 1.6542
 IR Inten    --     31.4034                 0.9820                 2.3543

                     46                     47                     48
                      A                      A                      A
 Frequencies --   1406.0964              1435.8966              1501.9637
 Red. masses --      1.4470                 1.6870                 1.1127
 Frc consts  --      1.6855                 2.0493                 1.4789
 IR Inten    --      1.9774                21.8728                10.2357

                     49                     50                     51
                      A                      A                      A
 Frequencies --   1512.6554              1515.2692              1522.5705
 Red. masses --      1.0916                 1.2665                 1.1153
 Frc consts  --      1.4716                 1.7133                 1.5234
 IR Inten    --      5.9915                10.6048                 5.1590

                     52                     53                     54
                      A                      A                      A
 Frequencies --   1534.3604              1580.8955              1622.2207
 Red. masses --      1.1074                 9.5422                 8.0387
 Frc consts  --      1.5361                14.0509                12.4640
 IR Inten    --      2.2595                51.6707                29.3054

                     55                     56                     57
                      A                      A                      A
 Frequencies --   2353.8704              2888.3997              2927.5899
 Red. masses --     12.6516                 1.0788                 1.0734
 Frc consts  --     41.3009                 5.3029                 5.4205
 IR Inten    --     43.7169                47.0626                84.5941

                     58                     59                     60
                      A                      A                      A
 Frequencies --   3028.4864              3052.0285              3072.4940
 Red. masses --      1.0683                 1.0608                 1.0648
 Frc consts  --      5.7728                 5.8220                 5.9226
 IR Inten    --     30.8531                22.6795                12.5783

                     61                     62                     63
                      A                      A                      A
 Frequencies --   3088.3954              3092.6291              3098.1557
 Red. masses --      1.0908                 1.0889                 1.1041
 Frc consts  --      6.1298                 6.1361                 6.2441
 IR Inten    --     47.0691                48.1263                41.4436

                     64                     65                     66
                      A                      A                      A
 Frequencies --   3121.1008              3290.0731              3509.0274
 Red. masses --      1.1049                 1.0988                 1.0745
 Frc consts  --      6.3415                 7.0077                 7.7953
 IR Inten    --     24.6203                 1.8776                 0.4518

 - Thermochemistry -
 -------------------
 Temperature   298.150 Kelvin.  Pressure   1.00000 Atm.
 Atom     1 has atomic number  6 and mass  12.00000

 Molecular mass:   177.09021 amu.
 Principal axes and moments of inertia in atomic units:
                           1         2         3
     Eigenvalues --   788.485864491.916265139.54955
           X            0.99995  -0.01014  -0.00190
           Y            0.01014   0.99995   0.00123
           Z            0.00189  -0.00125   1.00000
 This molecule is an asymmetric top.
 Rotational symmetry number  1.
 Warning -- assumption of classical behavior for rotation
           may cause significant error
 Rotational temperatures (Kelvin)      0.10985     0.01928     0.01685
 Rotational constants (GHZ):           2.28887     0.40178     0.35115
 Zero-point vibrational energy     518897.0 (Joules/Mol)
                                  124.01936 (Kcal/Mol)
 Warning -- explicit consideration of  16 degrees of freedom as
           vibrations may cause significant error
 Vibrational temperatures:     41.78   109.19   127.12   212.07   263.53
          (Kelvin)            337.73   352.70   425.58   512.07   583.39
                              651.52   680.19   719.28   776.09   821.43
                              869.42   940.04  1006.02  1145.57  1164.11
                             1214.78  1251.80  1257.22  1290.08  1349.80
                             1375.10  1422.68  1451.33  1525.38  1547.21
                             1574.26  1649.91  1654.99  1691.98  1701.01
                             1750.71  1793.24  1823.01  1864.67  1882.95
                             1910.17  1945.05  1978.45  1994.53  2018.15
                             2023.06  2065.93  2160.99  2176.37  2180.13
                             2190.64  2207.60  2274.56  2334.01  3386.69
                             4155.76  4212.15  4357.32  4391.19  4420.63
                             4443.51  4449.60  4457.56  4490.57  4733.68
                             5048.71

 Zero-point correction=                           0.197637 (Hartree/Particle)
 Thermal correction to Energy=                    0.208588
 Thermal correction to Enthalpy=                  0.209532
 Thermal correction to Gibbs Free Energy=         0.159645
 Sum of electronic and zero-point Energies=           -588.868773
 Sum of electronic and thermal Energies=              -588.857822
 Sum of electronic and thermal Enthalpies=            -588.856878
 Sum of electronic and thermal Free Energies=         -588.906765

                     E (Thermal)             CV                S
                      KCal/Mol        Cal/Mol-Kelvin    Cal/Mol-Kelvin
 Total                  130.891             41.839            104.997
 Electronic               0.000              0.000              0.000
 Translational            0.889              2.981             41.422
 Rotational               0.889              2.981             31.277
 Vibrational            129.114             35.878             32.298
 Vibration     1          0.593              1.984              5.894
 Vibration     2          0.599              1.965              3.994
 Vibration     3          0.601              1.957              3.696
 Vibration     4          0.617              1.905              2.706
 Vibration     5          0.631              1.863              2.296
 Vibration     6          0.655              1.788              1.842
 Vibration     7          0.660              1.771              1.765
 Vibration     8          0.690              1.682              1.441
 Vibration     9          0.731              1.563              1.140
 Vibration    10          0.770              1.458              0.943
 Vibration    11          0.811              1.355              0.787
 Vibration    12          0.830              1.310              0.730
 Vibration    13          0.855              1.250              0.658
 Vibration    14          0.894              1.163              0.567
 Vibration    15          0.927              1.094              0.502
 Vibration    16          0.963              1.023              0.442

 Optimization completed.
    -- Stationary point found.
 Normal termination of Gaussian 16 at Wed Dec  9 23:12:44 2020.

 ----------------------------------------------------------------------
 # B3LYP/6-311++G(d,p) empiricaldispersion=gd3bj scf=xqc pop=npa geom=c
 heck
 ----------------------------------------------------------------------

 ---------------------------------------
 CID_131366807_JID_3388_Energie_neutraal
 ---------------------------------------
 Structure from the checkpoint file:  "JID_3388.chk"
 Charge =  0 Multiplicity = 1

 SCF Done:  E(RB3LYP) =  -589.227794185     A.U. after   14 cycles
 Normal termination of Gaussian 16 at Wed Dec  9 23:15:01 2020.

 ----------------------------------------------------------------------
 # B3LYP/6-311++G(d,p) empiricaldispersion=gd3bj scf=xqc pop=npa geom=c
 heck
 ----------------------------------------------------------------------

 -------------------------------------
 CID_131366807_JID_3388_Energie_kation
 -------------------------------------
 Structure from the checkpoint file:  "JID_3388.chk"
 Charge =  1 Multiplicity = 2

 SCF Done:  E(UB3LYP) =  -588.902790945     A.U. after   25 cycles
 Normal termination of Gaussian 16 at Wed Dec  9 23:20:40 2020.
 Gaussian 16:  ES64L-G16RevA.03 25-Dec-2016

 ----------------------------------------------------------------------
 # B3LYP/6-311++G(d,p) empiricaldispersion=gd3bj scf=xqc pop=npa geom=c
 heck
 ----------------------------------------------------------------------

 ------------------------------------
 CID_131366807_JID_3388_Energie_anion
 ------------------------------------
 Structure from the checkpoint file:  "JID_3388.chk"
 Charge = -1 Multiplicity = 2

                         Standard orientation:
 ---------------------------------------------------------------------
 Center     Atomic      Atomic             Coordinates (Angstroms)
 Number     Number       Type             X           Y           Z
 ---------------------------------------------------------------------
      1          6           0        3.353516    0.788798   -0.297070
      2          6           0        3.652326   -0.537957    0.412865
      3          6           0        2.618585   -1.595065    0.021660
      4          7           0        1.272152   -1.110320    0.338707
      5          6           0        0.939824    0.100976   -0.419714
      6          6           0        1.907192    1.229996   -0.043049
      7          6           0       -0.478925    0.483517   -0.139360
      8          7           0       -0.973187    1.640435    0.198514
      9          6           0       -2.333112    1.433219    0.308929
     10          6           0       -2.612940    0.126274    0.027584
     11          8           0       -1.417478   -0.495223   -0.268782
     12          6           0       -3.801590   -0.631895   -0.009197
     13          7           0       -4.797067   -1.234709   -0.033814
     14          1           0        4.046742    1.570207    0.034337
     15          1           0        3.511238    0.664676   -1.378334
     16          1           0        4.659097   -0.892575    0.162645
     17          1           0        3.611176   -0.393012    1.499448
     18          1           0        2.734795   -1.831158   -1.054798
     19          1           0        2.783223   -2.522359    0.580200
     20          1           0        0.587174   -1.834699    0.134983
     21          1           0        1.022322   -0.069712   -1.514513
     22          1           0        1.761583    1.463449    1.017230
     23          1           0        1.658972    2.130380   -0.613302
     24          1           0       -3.019043    2.221573    0.582622
 ---------------------------------------------------------------------

 SCF Done:  E(UB3LYP) =  -589.232839178     A.U. after   32 cycles

 The electronic state is 2-A.
 Alpha  occ. eigenvalues --  -19.05285 -14.19258 -14.17946 -14.16479 -10.11383
 Alpha  occ. eigenvalues --  -10.10106 -10.09792 -10.09073 -10.06711 -10.06698
 Alpha  occ. eigenvalues --  -10.06625 -10.06259 -10.05829  -0.99660  -0.81252
 Alpha  occ. eigenvalues --   -0.78878  -0.76543  -0.68648  -0.67607  -0.63195
 Alpha  occ. eigenvalues --   -0.54887  -0.52945  -0.50828  -0.47083  -0.44820
 Alpha  occ. eigenvalues --   -0.42723  -0.40141  -0.36871  -0.36172  -0.33971
 Alpha  occ. eigenvalues --   -0.33637  -0.31921  -0.30874  -0.29082  -0.28432
 Alpha  occ. eigenvalues --   -0.27270  -0.24927  -0.23266  -0.23138  -0.22580
 Alpha  occ. eigenvalues --   -0.22140  -0.21543  -0.20587  -0.19613  -0.16198
 Alpha  occ. eigenvalues --   -0.12867  -0.11696   0.04673
 Alpha virt. eigenvalues --    0.06316   0.08069   0.08361   0.09303   0.10192
 Alpha virt. eigenvalues --    0.11276   0.11365   0.12003   0.12409   0.13142
 Alpha virt. eigenvalues --    0.14007   0.14293   0.14650   0.14727   0.16822

  Beta  occ. eigenvalues --  -19.04969 -14.19218 -14.18084 -14.16159 -10.11016
  Beta  occ. eigenvalues --  -10.09902 -10.09814 -10.09052 -10.06703 -10.06666
  Beta  occ. eigenvalues --  -10.06609 -10.06029 -10.05826  -0.99152  -0.81177
  Beta  occ. eigenvalues --   -0.78718  -0.76058  -0.68615  -0.67293  -0.62817
  Beta  occ. eigenvalues --   -0.54625  -0.52852  -0.50384  -0.46835  -0.44704
  Beta  occ. eigenvalues --   -0.42462  -0.39987  -0.36329  -0.36006  -0.33850
  Beta  occ. eigenvalues --   -0.33014  -0.31565  -0.30791  -0.29034  -0.28328
  Beta  occ. eigenvalues --   -0.26967  -0.24812  -0.23100  -0.22731  -0.22051
  Beta  occ. eigenvalues --   -0.21516  -0.21196  -0.20407  -0.18642  -0.16236
  Beta  occ. eigenvalues --   -0.12712  -0.09884
  Beta virt. eigenvalues --    0.06698   0.08286   0.08524   0.09350   0.10217
  Beta virt. eigenvalues --    0.10514   0.11335   0.11466   0.11994   0.12440
  Beta virt. eigenvalues --    0.13222   0.14030   0.14516   0.14651   0.15223

 Mulliken charges and spin densities:
               1          2
     1  C   -0.149604  -0.198121
     2  C   -0.328053  -0.035445
     3  C    0.419573  -0.617054
     4  N   -0.135788   0.072056
     5  C    0.015685  -0.230931
     6  C   -0.317598  -0.010616
     7  C   -0.418172   0.130711
     8  N   -0.009884  -0.064851
     9  C   -0.144999   0.240983
    10  C    1.295218   0.119410
    11  O   -0.063785   0.061712
    12  C   -1.102270  -0.057382
    13  N   -0.357898   0.163690
    14  H   -0.117688   0.276700
    15  H   -0.000868   0.117887
    16  H   -0.168782   0.315543
    17  H    0.165028  -0.046101
    18  H   -0.130579   0.242314
    19  H   -0.018280   0.164483
    20  H    0.259229   0.002374
    21  H   -0.168470   0.350938
    22  H    0.146154   0.034151
    23  H    0.202591  -0.027882
    24  H    0.129239  -0.004569
 Sum of Mulliken charges =  -1.00000   1.00000

 Dipole moment (field-independent basis, Debye):
    X=              5.7080    Y=              1.3491    Z=              0.6473  Tot=              5.9009
 Quadrupole moment (field-independent basis, Debye-Ang):
   XX=           -156.6488   YY=            -97.4206   ZZ=            -91.5673
   XY=            -10.3954   XZ=              2.7310   YZ=             -0.8578

 Summary of Natural Population Analysis:

                                       Natural Population
                Natural  -----------------------------------------------
    Atom  No    Charge         Core      Valence    Rydberg      Total
 -----------------------------------------------------------------------
      C    1   -0.19164      0.99963     2.18301    0.00900     3.19164
      C    2   -0.19563      0.99963     2.18682    0.00918     3.19563
      C    3   -0.08688      0.99963     2.07565    0.01160     3.08688
      N    4   -0.33513      0.99972     2.82519    0.01022     3.83513
      C    5   -0.03851      0.99955     2.02588    0.01308     3.03851
      C    6   -0.19047      0.99962     2.17995    0.01090     3.19047
      C    7    0.33497      0.99959     1.64658    0.01885     2.66503
      N    8   -0.28731      0.99969     2.77864    0.00898     3.78731
      C    9    0.02229      0.99954     1.96610    0.01206     2.97771
      C   10    0.08154      0.99936     1.90545    0.01366     2.91846
      O   11   -0.21135      0.99985     3.20455    0.00695     4.21135
      C   12    0.12738      0.99964     1.85651    0.01647     2.87262
      N   13   -0.15118      0.99979     2.64239    0.00899     3.65118
      H   14    0.09641      0.00000     0.40275    0.00084     0.40359
      H   15    0.09358      0.00000     0.40501    0.00142     0.40642
      H   16    0.09648      0.00000     0.40253    0.00098     0.40352
      H   17    0.09542      0.00000     0.40334    0.00125     0.40458
      H   18    0.07727      0.00000     0.42110    0.00163     0.42273
      H   19    0.09260      0.00000     0.40653    0.00087     0.40740
      H   20    0.18057      0.00000     0.31668    0.00274     0.31943
      H   21    0.08937      0.00000     0.40863    0.00200     0.41063
      H   22    0.10252      0.00000     0.39601    0.00146     0.39748
      H   23    0.10560      0.00000     0.39315    0.00125     0.39440
      H   24    0.09210      0.00000     0.40707    0.00084     0.40790
 =======================================================================
   * Total *   -0.00000     12.99524    33.83953    0.16523    47.00000

 Normal termination of Gaussian 16 at Wed Dec  9 23:27:56 2020.
