 Gaussian 16, Revision A.03,

 -----------------------------------------------------------
 # opt freq B3LYP/6-31G(d) empiricaldispersion=gd3bj scf=xqc
 -----------------------------------------------------------

 -------------------------------
 CID_144349779_JID_1762_neutraal
 -------------------------------
 Symbolic Z-matrix:
 Charge =  0 Multiplicity = 1

 SCF Done:  E(RB3LYP) =  -500.569442598     A.U. after   14 cycles
 SCF Done:  E(RB3LYP) =  -500.572218006     A.U. after   13 cycles
 SCF Done:  E(RB3LYP) =  -500.573599968     A.U. after   13 cycles
 SCF Done:  E(RB3LYP) =  -500.574897754     A.U. after   12 cycles
 SCF Done:  E(RB3LYP) =  -500.575565702     A.U. after   12 cycles
 SCF Done:  E(RB3LYP) =  -500.575741634     A.U. after   11 cycles
 SCF Done:  E(RB3LYP) =  -500.575773664     A.U. after   10 cycles
 SCF Done:  E(RB3LYP) =  -500.575785280     A.U. after   10 cycles
 SCF Done:  E(RB3LYP) =  -500.575789546     A.U. after    9 cycles
 SCF Done:  E(RB3LYP) =  -500.575790985     A.U. after    9 cycles
 SCF Done:  E(RB3LYP) =  -500.575791238     A.U. after    8 cycles
 Optimization completed.
    -- Stationary point found.

 1\1\GINC-NODE316\FOpt\RB3LYP\6-31G(d)\C9H12O2\VSC10255\08-Dec-2020\0\\
 # opt freq B3LYP/6-31G(d) empiricaldispersion=gd3bj scf=xqc\\CID_14434
 9779_JID_1762_neutraal\\0,1\C,1.2111425406,0.0081653379,0.0536447495\C
 ,1.0247433388,1.4838242909,0.2417477981\C,0.1701625306,2.0358612805,1.
 1115214604\C,-0.0726713927,3.485903829,1.2743254098\C,-0.0246201345,4.
 3154512918,0.2089995861\C,-0.500639799,4.0174964682,2.5720736433\C,-0.
 2916507484,3.5454783476,3.8210878183\C,0.6257939117,2.4713275535,4.248
 3676357\C,1.811329291,2.1841480335,3.6997042741\O,0.135495651,1.850775

 Normal termination of Gaussian 16 at Tue Dec  8 21:02:04 2020.

 --------------------------------------------------------------------
 #N Geom=AllCheck Guess=TCheck SCRF=Check GenChk RB3LYP/6-31G(d) Freq
 --------------------------------------------------------------------

 Structure from the checkpoint file:  "JID_1762.chk"
 -------------------------------
 CID_144349779_JID_1762_neutraal
 -------------------------------
 Charge =  0 Multiplicity = 1

 SCF Done:  E(RB3LYP) =  -500.575791238     A.U. after    1 cycles

  Exact polarizability: 136.325   8.612 127.167  13.161  -0.735  62.449
 Approx polarizability: 207.895  25.630 197.109  35.200  -2.796 100.762

                      1                      2                      3
                      A                      A                      A
 Frequencies --     39.9384                62.5799                98.6666
 Red. masses --      4.1683                 4.7446                 2.6814
 Frc consts  --      0.0039                 0.0109                 0.0154
 IR Inten    --      0.7873                 0.1801                 0.4970

                      4                      5                      6
                      A                      A                      A
 Frequencies --    130.8315               162.6598               192.9583
 Red. masses --      2.2889                 1.9929                 3.0292
 Frc consts  --      0.0231                 0.0311                 0.0665
 IR Inten    --      0.2690                 0.5606                 0.7557

                      7                      8                      9
                      A                      A                      A
 Frequencies --    221.9680               235.2651               286.4253
 Red. masses --      1.8514                 3.1407                 3.1582
 Frc consts  --      0.0537                 0.1024                 0.1527
 IR Inten    --      0.0838                 2.3146                 1.4358

                     10                     11                     12
                      A                      A                      A
 Frequencies --    323.0358               359.4899               379.7889
 Red. masses --      3.1021                 3.6175                 2.2523
 Frc consts  --      0.1907                 0.2754                 0.1914
 IR Inten    --      7.8341                 1.3997                 6.9405

                     13                     14                     15
                      A                      A                      A
 Frequencies --    408.1144               441.7063               453.4949
 Red. masses --      1.4625                 2.6581                 1.3506
 Frc consts  --      0.1435                 0.3056                 0.1637
 IR Inten    --     12.6947                40.2516               141.4011

                     16                     17                     18
                      A                      A                      A
 Frequencies --    479.5814               576.6089               612.6655
 Red. masses --      2.3519                 2.7771                 3.2111
 Frc consts  --      0.3187                 0.5440                 0.7102
 IR Inten    --     23.4396                22.5560                11.9725

                     19                     20                     21
                      A                      A                      A
 Frequencies --    653.2397               700.6405               717.9762
 Red. masses --      4.3222                 1.1975                 1.6194
 Frc consts  --      1.0867                 0.3464                 0.4918
 IR Inten    --      0.5714                 8.2203                 2.7934

                     22                     23                     24
                      A                      A                      A
 Frequencies --    721.6508               777.0326               831.5407
 Red. masses --      2.1206                 3.0002                 1.4182
 Frc consts  --      0.6507                 1.0673                 0.5778
 IR Inten    --      2.7977                 8.4064                62.9096

                     25                     26                     27
                      A                      A                      A
 Frequencies --    840.9943               878.5776               893.0449
 Red. masses --      1.6364                 1.4374                 1.5069
 Frc consts  --      0.6819                 0.6537                 0.7081
 IR Inten    --      4.6000                 8.8185                52.6973

                     28                     29                     30
                      A                      A                      A
 Frequencies --    916.2747               972.3393               992.4764
 Red. masses --      1.8783                 2.0072                 2.0456
 Frc consts  --      0.9291                 1.1181                 1.1872
 IR Inten    --     24.5217                23.8120                 0.1909

                     31                     32                     33
                      A                      A                      A
 Frequencies --   1017.6379              1027.3188              1077.6786
 Red. masses --      1.1374                 1.6673                 1.5232
 Frc consts  --      0.6940                 1.0368                 1.0423
 IR Inten    --     25.1663                11.6524                 0.8221

                     34                     35                     36
                      A                      A                      A
 Frequencies --   1136.1130              1170.4753              1220.5556
 Red. masses --      2.1343                 1.9859                 3.1704
 Frc consts  --      1.6231                 1.6030                 2.7828
 IR Inten    --      1.9879               132.2927               282.5802

                     37                     38                     39
                      A                      A                      A
 Frequencies --   1265.3069              1294.7276              1342.1604
 Red. masses --      1.4623                 1.3371                 1.2970
 Frc consts  --      1.3794                 1.3206                 1.3766
 IR Inten    --     65.1721                24.8004                 0.8893

                     40                     41                     42
                      A                      A                      A
 Frequencies --   1375.8310              1387.4205              1422.5973
 Red. masses --      1.7537                 1.9486                 1.6523
 Frc consts  --      1.9558                 2.2100                 1.9702
 IR Inten    --     14.2469                17.4679               194.6842

                     43                     44                     45
                      A                      A                      A
 Frequencies --   1441.5456              1461.8590              1488.6308
 Red. masses --      1.2663                 1.2375                 1.4194
 Frc consts  --      1.5504                 1.5582                 1.8533
 IR Inten    --      3.2690                 2.9063                67.6154

                     46                     47                     48
                      A                      A                      A
 Frequencies --   1509.0518              1521.4417              1659.1956
 Red. masses --      1.0456                 1.0596                 4.0368
 Frc consts  --      1.4029                 1.4451                 6.5475
 IR Inten    --      4.9911                 9.7708                11.5932

                     49                     50                     51
                      A                      A                      A
 Frequencies --   1718.1339              1726.3705              1739.4781
 Red. masses --      6.3565                 5.9179                 5.5816
 Frc consts  --     11.0556                10.3917                 9.9506
 IR Inten    --     53.1331                28.5901                 8.6688

                     52                     53                     54
                      A                      A                      A
 Frequencies --   3027.6156              3071.5235              3115.4880
 Red. masses --      1.0378                 1.0998                 1.0990
 Frc consts  --      5.6047                 6.1134                 6.2846
 IR Inten    --     42.3470                24.3239                14.8813

                     55                     56                     57
                      A                      A                      A
 Frequencies --   3153.6106              3163.0423              3171.0475
 Red. masses --      1.0904                 1.0864                 1.0614
 Frc consts  --      6.3890                 6.4040                 6.2882
 IR Inten    --      7.8620                27.7436                 5.0121

                     58                     59                     60
                      A                      A                      A
 Frequencies --   3177.0402              3179.6649              3256.0505
 Red. masses --      1.0684                 1.0848                 1.1160
 Frc consts  --      6.3540                 6.4618                 6.9713
 IR Inten    --      8.9535                 9.3956                11.3330

                     61                     62                     63
                      A                      A                      A
 Frequencies --   3301.2893              3716.7110              3755.0437
 Red. masses --      1.1083                 1.0651                 1.0658
 Frc consts  --      7.1166                 8.6687                 8.8546
 IR Inten    --      2.2489               146.8865                32.3770

 - Thermochemistry -
 -------------------
 Temperature   298.150 Kelvin.  Pressure   1.00000 Atm.
 Atom     1 has atomic number  6 and mass  12.00000

 Molecular mass:   152.08373 amu.
 Principal axes and moments of inertia in atomic units:
                           1         2         3
     Eigenvalues --  1189.236122458.688453365.67879
           X            0.99988  -0.01500  -0.00264
           Y            0.01501   0.99988   0.00461
           Z            0.00257  -0.00464   0.99999
 This molecule is an asymmetric top.
 Rotational symmetry number  1.
 Warning -- assumption of classical behavior for rotation
           may cause significant error
 Rotational temperatures (Kelvin)      0.07283     0.03523     0.02573
 Rotational constants (GHZ):           1.51756     0.73403     0.53622
 Zero-point vibrational energy     499161.1 (Joules/Mol)
                                  119.30237 (Kcal/Mol)
 Warning -- explicit consideration of  18 degrees of freedom as
           vibrations may cause significant error
 Vibrational temperatures:     57.46    90.04   141.96   188.24   234.03
          (Kelvin)            277.62   319.36   338.49   412.10   464.78
                              517.23   546.43   587.19   635.52   652.48
                              690.01   829.61   881.49   939.87  1008.07
                             1033.01  1038.29  1117.98  1196.40  1210.00
                             1264.08  1284.89  1318.31  1398.98  1427.95
                             1464.15  1478.08  1550.54  1634.61  1684.05
                             1756.11  1820.49  1862.82  1931.07  1979.51
                             1996.19  2046.80  2074.06  2103.29  2141.81
                             2171.19  2189.02  2387.21  2472.01  2483.86
                             2502.72  4356.06  4419.24  4482.49  4537.34
                             4550.91  4562.43  4571.05  4574.83  4684.73
                             4749.82  5347.52  5402.67

 Zero-point correction=                           0.190120 (Hartree/Particle)
 Thermal correction to Energy=                    0.202333
 Thermal correction to Enthalpy=                  0.203277
 Thermal correction to Gibbs Free Energy=         0.151792
 Sum of electronic and zero-point Energies=           -500.385671
 Sum of electronic and thermal Energies=              -500.373458
 Sum of electronic and thermal Enthalpies=            -500.372514
 Sum of electronic and thermal Free Energies=         -500.423999

                     E (Thermal)             CV                S
                      KCal/Mol        Cal/Mol-Kelvin    Cal/Mol-Kelvin
 Total                  126.966             45.586            108.359
 Electronic               0.000              0.000              0.000
 Translational            0.889              2.981             40.968
 Rotational               0.889              2.981             30.666
 Vibrational            125.188             39.624             36.725
 Vibration     1          0.594              1.981              5.262
 Vibration     2          0.597              1.972              4.374
 Vibration     3          0.604              1.950              3.480
 Vibration     4          0.612              1.922              2.934
 Vibration     5          0.623              1.888              2.519
 Vibration     6          0.635              1.850              2.199
 Vibration     7          0.648              1.808              1.943
 Vibration     8          0.655              1.787              1.838
 Vibration     9          0.684              1.699              1.495
 Vibration    10          0.708              1.629              1.295
 Vibration    11          0.734              1.556              1.124
 Vibration    12          0.750              1.513              1.040
 Vibration    13          0.773              1.453              0.933
 Vibration    14          0.801              1.379              0.821
 Vibration    15          0.812              1.353              0.785
 Vibration    16          0.836              1.295              0.711
 Vibration    17          0.933              1.082              0.492
 Vibration    18          0.972              1.005              0.428

 Optimization completed.
    -- Stationary point found.

 1\1\GINC-NODE316\Freq\RB3LYP\6-31G(d)\C9H12O2\VSC10255\08-Dec-2020\0\\
 #N Geom=AllCheck Guess=TCheck SCRF=Check GenChk RB3LYP/6-31G(d) Freq\\
 CID_144349779_JID_1762_neutraal\\0,1\C,1.2111425406,0.0081653379,0.053
 6447495\C,1.0247433388,1.4838242909,0.2417477981\C,0.1701625306,2.0358
 612805,1.1115214604\C,-0.0726713927,3.485903829,1.2743254098\C,-0.0246
 201345,4.3154512918,0.2089995861\C,-0.500639799,4.0174964682,2.5720736
 433\C,-0.2916507484,3.5454783476,3.8210878183\C,0.6257939117,2.4713275
 535,4.2483676357\C,1.811329291,2.1841480335,3.6997042741\O,0.135495651

 Normal termination of Gaussian 16 at Tue Dec  8 21:08:38 2020.

 ----------------------------------------------------------------------
 # B3LYP/6-311++G(d,p) empiricaldispersion=gd3bj scf=xqc pop=npa geom=c
 heck
 ----------------------------------------------------------------------

 ---------------------------------------
 CID_144349779_JID_1762_Energie_neutraal
 ---------------------------------------
 Structure from the checkpoint file:  "JID_1762.chk"
 Charge =  0 Multiplicity = 1

 SCF Done:  E(RB3LYP) =  -500.736673182     A.U. after   15 cycles
 Normal termination of Gaussian 16 at Tue Dec  8 21:11:10 2020.

 ----------------------------------------------------------------------
 # B3LYP/6-311++G(d,p) empiricaldispersion=gd3bj scf=xqc pop=npa geom=c
 heck
 ----------------------------------------------------------------------

 -------------------------------------
 CID_144349779_JID_1762_Energie_kation
 -------------------------------------
 Structure from the checkpoint file:  "JID_1762.chk"
 Charge =  1 Multiplicity = 2

 SCF Done:  E(UB3LYP) =  -500.461703059     A.U. after   23 cycles
 Normal termination of Gaussian 16 at Tue Dec  8 21:15:24 2020.
 Gaussian 16:  ES64L-G16RevA.03 25-Dec-2016

 ------------------------------------
 CID_144349779_JID_1762_Energie_anion
 ------------------------------------
 Structure from the checkpoint file:  "JID_1762.chk"
 Charge = -1 Multiplicity = 2

                         Standard orientation:
 ---------------------------------------------------------------------
 Center     Atomic      Atomic             Coordinates (Angstroms)
 Number     Number       Type             X           Y           Z
 ---------------------------------------------------------------------
      1          6           0        3.308002   -1.615882   -0.441906
      2          6           0        2.621542   -0.376957    0.049553
      3          6           0        1.470073    0.097683   -0.440749
      4          6           0        0.804189    1.347074   -0.012126
      5          6           0        1.532728    2.422984    0.358043
      6          6           0       -0.653023    1.474374   -0.113255
      7          6           0       -1.616298    0.526748   -0.088352
      8          6           0       -1.485197   -0.897504    0.275503
      9          6           0       -0.651296   -1.402450    1.191274
     10          8           0       -2.433664   -1.649434   -0.396227
     11          8           0       -2.903219    0.913220   -0.363656
     12          1           0        2.747327   -2.087793   -1.255698
     13          1           0        3.426590   -2.353275    0.363959
     14          1           0        4.318339   -1.392870   -0.811498
     15          1           0        3.100838    0.149223    0.875305
     16          1           0        0.964128   -0.462078   -1.226053
     17          1           0        1.056099    3.347560    0.671015
     18          1           0        2.617193    2.407122    0.338386
     19          1           0       -1.027078    2.484307   -0.264527
     20          1           0       -0.612854   -2.468615    1.400009
     21          1           0        0.026313   -0.759612    1.733084
     22          1           0       -2.462609   -2.536946   -0.006173
     23          1           0       -3.443537    0.106272   -0.406654
 ---------------------------------------------------------------------

 SCF Done:  E(UB3LYP) =  -500.735885959     A.U. after   29 cycles

 The electronic state is 2-A.
 Alpha  occ. eigenvalues --  -19.02472 -19.00859 -10.09657 -10.08478 -10.05904
 Alpha  occ. eigenvalues --  -10.04066 -10.03905 -10.03766 -10.01742 -10.01655
 Alpha  occ. eigenvalues --  -10.00771  -0.94178  -0.90999  -0.69124  -0.65513
 Alpha  occ. eigenvalues --   -0.62958  -0.58421  -0.55359  -0.51067  -0.47165
 Alpha  occ. eigenvalues --   -0.43125  -0.39748  -0.38661  -0.36154  -0.34488
 Alpha  occ. eigenvalues --   -0.31779  -0.30539  -0.29645  -0.29529  -0.27695
 Alpha  occ. eigenvalues --   -0.27318  -0.26468  -0.24440  -0.24165  -0.23020
 Alpha  occ. eigenvalues --   -0.22168  -0.20843  -0.17624  -0.13222  -0.09962
 Alpha  occ. eigenvalues --   -0.07001   0.04885
 Alpha virt. eigenvalues --    0.07590   0.08362   0.09960   0.10633   0.10993
 Alpha virt. eigenvalues --    0.11250   0.11560   0.12624   0.12861   0.13522
 Alpha virt. eigenvalues --    0.14393   0.14927   0.15609   0.16675   0.17595

  Beta  occ. eigenvalues --  -19.02403 -19.00808 -10.09621 -10.08316 -10.05907
  Beta  occ. eigenvalues --  -10.04032 -10.03883 -10.03735 -10.01684 -10.01488
  Beta  occ. eigenvalues --  -10.00472  -0.94021  -0.90860  -0.68925  -0.65331
  Beta  occ. eigenvalues --   -0.62665  -0.58232  -0.55101  -0.50679  -0.46825
  Beta  occ. eigenvalues --   -0.42976  -0.39553  -0.38487  -0.35949  -0.34324
  Beta  occ. eigenvalues --   -0.31684  -0.30489  -0.29498  -0.29384  -0.27511
  Beta  occ. eigenvalues --   -0.27094  -0.26331  -0.24296  -0.23901  -0.22901
  Beta  occ. eigenvalues --   -0.22003  -0.20734  -0.17017  -0.12653  -0.09345
  Beta  occ. eigenvalues --   -0.05752
  Beta virt. eigenvalues --    0.07993   0.08871   0.09562   0.09968   0.10691
  Beta virt. eigenvalues --    0.11235   0.11574   0.11633   0.12708   0.13027
  Beta virt. eigenvalues --    0.13652   0.14439   0.14952   0.15703   0.16819

 Mulliken charges and spin densities:
               1          2
     1  C   -0.656247  -0.013106
     2  C   -0.434388   0.075853
     3  C    0.031602   0.052977
     4  C    1.201552  -0.313337
     5  C   -0.588995   0.329641
     6  C   -1.056232   0.585861
     7  C    0.494005  -0.835815
     8  C   -0.001797   0.127761
     9  C   -0.239622  -0.056493
    10  O   -0.266712  -0.002484
    11  O   -0.242407   0.022081
    12  H    0.122234   0.010685
    13  H    0.127726   0.003897
    14  H    0.115354  -0.000652
    15  H    0.140645  -0.001440
    16  H    0.176812  -0.010844
    17  H    0.109297  -0.016038
    18  H    0.083095   0.002834
    19  H    0.138282   0.021245
    20  H   -0.087119   0.157388
    21  H    0.089794   0.044285
    22  H   -0.498224   0.787201
    23  H    0.241346   0.028500
 Sum of Mulliken charges =  -1.00000   1.00000

 Dipole moment (field-independent basis, Debye):
    X=              3.8669    Y=              0.6091    Z=             -0.6144  Tot=              3.9625
 Quadrupole moment (field-independent basis, Debye-Ang):
   XX=           -100.6447   YY=           -101.1393   ZZ=            -82.6727
   XY=            -12.9854   XZ=              1.7440   YZ=              2.7735

 Summary of Natural Population Analysis:

                                       Natural Population
                Natural  -----------------------------------------------
    Atom  No    Charge         Core      Valence    Rydberg      Total
 -----------------------------------------------------------------------
      C    1   -0.29538      0.99966     2.29125    0.00447     3.29538
      C    2   -0.09718      0.99953     2.09006    0.00759     3.09718
      C    3   -0.08310      0.99949     2.07343    0.01018     3.08310
      C    4   -0.04728      0.99950     2.03837    0.00941     3.04728
      C    5   -0.13079      0.99955     2.12409    0.00714     3.13079
      C    6   -0.12921      0.99948     2.12017    0.00956     3.12921
      C    7    0.16493      0.99936     1.81980    0.01590     2.83507
      C    8    0.13059      0.99939     1.85611    0.01391     2.86941
      C    9   -0.20505      0.99953     2.19724    0.00828     3.20505
      O   10   -0.36637      0.99988     3.35772    0.00877     4.36637
      O   11   -0.34898      0.99988     3.34251    0.00659     4.34898
      H   12    0.09810      0.00000     0.40086    0.00104     0.40190
      H   13    0.09513      0.00000     0.40385    0.00102     0.40487
      H   14    0.09306      0.00000     0.40580    0.00114     0.40694
      H   15    0.08740      0.00000     0.41098    0.00163     0.41260
      H   16    0.09510      0.00000     0.40307    0.00184     0.40490
      H   17    0.08276      0.00000     0.41622    0.00102     0.41724
      H   18    0.08309      0.00000     0.41585    0.00107     0.41691
      H   19    0.09600      0.00000     0.40248    0.00151     0.40400
      H   20    0.08976      0.00000     0.40919    0.00104     0.41024
      H   21    0.10532      0.00000     0.39366    0.00102     0.39468
      H   22    0.24236      0.00000     0.23507    0.02257     0.25764
      H   23    0.23975      0.00000     0.25704    0.00320     0.26025
 =======================================================================
   * Total *   -0.00000     10.99526    29.86481    0.13993    41.00000

 Normal termination of Gaussian 16 at Tue Dec  8 21:20:23 2020.
