 Gaussian 16, Revision A.03,

 -----------------------------------------------------------
 # opt freq B3LYP/6-31G(d) empiricaldispersion=gd3bj scf=xqc
 -----------------------------------------------------------

 ------------------------------
 CID_43830245_JID_7888_neutraal
 ------------------------------
 Symbolic Z-matrix:
 Charge =  0 Multiplicity = 1

 SCF Done:  E(RB3LYP) =  -787.325391256     A.U. after   15 cycles
 SCF Done:  E(RB3LYP) =  -787.329594277     A.U. after   13 cycles
 SCF Done:  E(RB3LYP) =  -787.328736336     A.U. after   13 cycles
 SCF Done:  E(RB3LYP) =  -787.330919255     A.U. after   12 cycles
 SCF Done:  E(RB3LYP) =  -787.331107872     A.U. after   12 cycles
 SCF Done:  E(RB3LYP) =  -787.331193766     A.U. after   11 cycles
 SCF Done:  E(RB3LYP) =  -787.331207090     A.U. after   10 cycles
 SCF Done:  E(RB3LYP) =  -787.331222492     A.U. after   10 cycles
 SCF Done:  E(RB3LYP) =  -787.331227065     A.U. after    9 cycles
 SCF Done:  E(RB3LYP) =  -787.331228232     A.U. after    8 cycles
 SCF Done:  E(RB3LYP) =  -787.331228937     A.U. after    8 cycles
 SCF Done:  E(RB3LYP) =  -787.331229284     A.U. after    8 cycles
 SCF Done:  E(RB3LYP) =  -787.331229340     A.U. after    7 cycles
 SCF Done:  E(RB3LYP) =  -787.331229346     A.U. after    6 cycles
 Optimization completed.
    -- Stationary point found.
 Normal termination of Gaussian 16 at Fri Dec 11 13:24:46 2020.

 --------------------------------------------------------------------
 #N Geom=AllCheck Guess=TCheck SCRF=Check GenChk RB3LYP/6-31G(d) Freq
 --------------------------------------------------------------------

 Structure from the checkpoint file:  "JID_7888.chk"
 ------------------------------
 CID_43830245_JID_7888_neutraal
 ------------------------------
 Charge =  0 Multiplicity = 1

 SCF Done:  E(RB3LYP) =  -787.331229346     A.U. after    1 cycles

  Exact polarizability: 228.247   3.021 149.415  -3.011   3.108  96.042
 Approx polarizability: 279.054  13.064 260.578 -11.308   9.557 138.744

                      1                      2                      3
                      A                      A                      A
 Frequencies --     29.0987                31.3179                45.5771
 Red. masses --      4.0846                 3.4849                 3.3119
 Frc consts  --      0.0020                 0.0020                 0.0041
 IR Inten    --      0.4842                 0.3142                 0.5702

                      4                      5                      6
                      A                      A                      A
 Frequencies --     67.4935                70.5274                75.6133
 Red. masses --      1.8731                 2.4499                 3.4152
 Frc consts  --      0.0050                 0.0072                 0.0115
 IR Inten    --      1.5652                 0.2510                 0.7920

                      7                      8                      9
                      A                      A                      A
 Frequencies --    103.8236               129.1188               173.2417
 Red. masses --      3.8891                 4.5248                 5.0829
 Frc consts  --      0.0247                 0.0444                 0.0899
 IR Inten    --      0.6519                 0.5147                 1.6829

                     10                     11                     12
                      A                      A                      A
 Frequencies --    190.5677               214.9492               219.2873
 Red. masses --      3.4548                 1.2623                 2.4788
 Frc consts  --      0.0739                 0.0344                 0.0702
 IR Inten    --      2.2191                 0.4061                 3.7992

                     13                     14                     15
                      A                      A                      A
 Frequencies --    249.7810               250.5625               268.2298
 Red. masses --      1.2760                 1.3678                 2.2327
 Frc consts  --      0.0469                 0.0506                 0.0946
 IR Inten    --      0.0393                 0.1335                 1.2079

                     16                     17                     18
                      A                      A                      A
 Frequencies --    279.0135               318.6365               345.9007
 Red. masses --      3.3496                 3.6990                 2.9816
 Frc consts  --      0.1536                 0.2213                 0.2102
 IR Inten    --      3.3210                18.4093                 2.0725

                     19                     20                     21
                      A                      A                      A
 Frequencies --    365.0946               380.6973               409.6509
 Red. masses --      2.5713                 1.4543                 6.0917
 Frc consts  --      0.2019                 0.1242                 0.6023
 IR Inten    --      8.6683                18.4786                 4.5983

                     22                     23                     24
                      A                      A                      A
 Frequencies --    413.9354               436.7983               469.2688
 Red. masses --      3.3619                 3.0637                 3.1856
 Frc consts  --      0.3394                 0.3444                 0.4133
 IR Inten    --      3.3408                 3.3001                 8.3161

                     25                     26                     27
                      A                      A                      A
 Frequencies --    516.1599               556.3533               582.7007
 Red. masses --      3.7347                 3.9491                 5.1338
 Frc consts  --      0.5862                 0.7202                 1.0270
 IR Inten    --     16.7721                 5.2818                 1.6452

                     28                     29                     30
                      A                      A                      A
 Frequencies --    587.4240               674.1058               697.0848
 Red. masses --      4.9925                 5.3697                 1.6174
 Frc consts  --      1.0150                 1.4377                 0.4631
 IR Inten    --     10.8916                 8.4312               194.9193

                     31                     32                     33
                      A                      A                      A
 Frequencies --    748.0800               764.3332               787.0022
 Red. masses --      3.1877                 4.1171                 1.8720
 Frc consts  --      1.0510                 1.4171                 0.6831
 IR Inten    --    104.8572                20.3026                 6.8125

                     34                     35                     36
                      A                      A                      A
 Frequencies --    798.5949               813.8552               830.6752
 Red. masses --      3.9904                 2.0922                 1.0861
 Frc consts  --      1.4994                 0.8165                 0.4416
 IR Inten    --     10.9029                 1.0047                 1.1031

                     37                     38                     39
                      A                      A                      A
 Frequencies --    843.3761               856.3576               889.6695
 Red. masses --      2.1510                 1.7307                 1.5347
 Frc consts  --      0.9014                 0.7478                 0.7157
 IR Inten    --      3.7528                 4.0409                15.9755

                     40                     41                     42
                      A                      A                      A
 Frequencies --    911.8912               922.1065               957.7272
 Red. masses --      2.6141                 2.4014                 1.2908
 Frc consts  --      1.2808                 1.2030                 0.6976
 IR Inten    --      2.1776                47.9163                 0.2355

                     43                     44                     45
                      A                      A                      A
 Frequencies --    968.1430               987.9996              1003.2281
 Red. masses --      2.6220                 1.5059                 1.5671
 Frc consts  --      1.4480                 0.8661                 0.9293
 IR Inten    --      0.5692                 9.2708                 8.0820

                     46                     47                     48
                      A                      A                      A
 Frequencies --   1049.9923              1064.2281              1104.7031
 Red. masses --      2.7863                 3.5872                 1.9225
 Frc consts  --      1.8099                 2.3937                 1.3823
 IR Inten    --      4.3318               107.3404                15.3412

                     49                     50                     51
                      A                      A                      A
 Frequencies --   1120.6891              1146.7897              1154.4035
 Red. masses --      1.8400                 2.1400                 2.2997
 Frc consts  --      1.3616                 1.6582                 1.8057
 IR Inten    --     54.0186                77.7993               244.1936

                     52                     53                     54
                      A                      A                      A
 Frequencies --   1167.7348              1177.6092              1195.5434
 Red. masses --      1.2621                 2.0863                 1.5023
 Frc consts  --      1.0140                 1.7046                 1.2652
 IR Inten    --      1.5584                 8.0810                 5.2252

                     55                     56                     57
                      A                      A                      A
 Frequencies --   1216.0501              1241.5138              1283.9136
 Red. masses --      1.9598                 3.7740                 2.8245
 Frc consts  --      1.7075                 3.4273                 2.7433
 IR Inten    --      2.8164               485.9232               107.4837

                     58                     59                     60
                      A                      A                      A
 Frequencies --   1306.3792              1307.9722              1311.8170
 Red. masses --      1.4088                 1.2336                 1.1574
 Frc consts  --      1.4166                 1.2434                 1.1735
 IR Inten    --     30.4104                 6.1259                 2.7968

                     61                     62                     63
                      A                      A                      A
 Frequencies --   1344.7490              1362.2608              1384.4523
 Red. masses --      3.4228                 1.3841                 6.4615
 Frc consts  --      3.6468                 1.5133                 7.2969
 IR Inten    --    369.6406                52.6241                 3.0047

                     64                     65                     66
                      A                      A                      A
 Frequencies --   1408.0850              1420.1083              1425.4047
 Red. masses --      1.3595                 1.2439                 1.3541
 Frc consts  --      1.5881                 1.4780                 1.6210
 IR Inten    --     30.2038                 5.1477                30.6814

                     67                     68                     69
                      A                      A                      A
 Frequencies --   1438.5116              1442.9389              1450.8257
 Red. masses --      1.3187                 1.2299                 1.3646
 Frc consts  --      1.6078                 1.5087                 1.6923
 IR Inten    --     11.5886                 3.7794                23.1756

                     70                     71                     72
                      A                      A                      A
 Frequencies --   1479.8618              1513.7259              1517.1366
 Red. masses --      4.1268                 1.0409                 1.0486
 Frc consts  --      5.3249                 1.4053                 1.4220
 IR Inten    --     30.2069                 5.6196                15.4680

                     73                     74                     75
                      A                      A                      A
 Frequencies --   1524.3641              1530.0715              1532.9236
 Red. masses --      1.0569                 1.0500                 1.0455
 Frc consts  --      1.4469                 1.4483                 1.4475
 IR Inten    --      3.0563                 2.1232                 4.0395

                     76                     77                     78
                      A                      A                      A
 Frequencies --   1540.0734              1544.4142              1553.1349
 Red. masses --      1.0484                 1.0795                 1.1984
 Frc consts  --      1.4651                 1.5170                 1.7032
 IR Inten    --      7.3454                 4.1201                18.7913

                     79                     80                     81
                      A                      A                      A
 Frequencies --   1559.8642              1637.7958              1653.2669
 Red. masses --      2.4996                 4.6418                 2.5477
 Frc consts  --      3.5834                 7.3359                 4.1028
 IR Inten    --     52.6161                35.3669                38.9743

                     82                     83                     84
                      A                      A                      A
 Frequencies --   1684.4371              1785.8411              3030.9469
 Red. masses --      1.7784                11.7611                 1.0573
 Frc consts  --      2.9730                22.0996                 5.7226
 IR Inten    --     99.9293               208.4162                32.3826

                     85                     86                     87
                      A                      A                      A
 Frequencies --   3046.2017              3057.3200              3060.1944
 Red. masses --      1.0383                 1.0704                 1.0353
 Frc consts  --      5.6769                 5.8952                 5.7122
 IR Inten    --     27.1151                26.1300                20.5653

                     88                     89                     90
                      A                      A                      A
 Frequencies --   3063.5367              3069.7014              3070.9974
 Red. masses --      1.0702                 1.0508                 1.1079
 Frc consts  --      5.9179                 5.8339                 6.1559
 IR Inten    --     19.5299                27.2130                18.9604

                     91                     92                     93
                      A                      A                      A
 Frequencies --   3105.0858              3122.5387              3130.1347
 Red. masses --      1.0974                 1.1015                 1.1012
 Frc consts  --      6.2341                 6.3277                 6.3567
 IR Inten    --     17.2599                43.5417                24.1418

                     94                     95                     96
                      A                      A                      A
 Frequencies --   3131.1837              3137.4361              3137.5391
 Red. masses --      1.1027                 1.0978                 1.1035
 Frc consts  --      6.3699                 6.3669                 6.4003
 IR Inten    --     29.8802                22.4068                28.9740

                     97                     98                     99
                      A                      A                      A
 Frequencies --   3170.6093              3206.0203              3219.5737
 Red. masses --      1.1009                 1.0898                 1.0900
 Frc consts  --      6.5204                 6.6000                 6.6571
 IR Inten    --     10.9037                 9.7697                 3.7952

                    100                    101                    102
                      A                      A                      A
 Frequencies --   3237.7587              3539.0634              3643.0848
 Red. masses --      1.0927                 1.0475                 1.0978
 Frc consts  --      6.7489                 7.7301                 8.5844
 IR Inten    --      1.7193                13.7759                15.1258

 - Thermochemistry -
 -------------------
 Temperature   298.150 Kelvin.  Pressure   1.00000 Atm.
 Atom     1 has atomic number  6 and mass  12.00000

 Molecular mass:   237.13649 amu.
 Principal axes and moments of inertia in atomic units:
                           1         2         3
     Eigenvalues --  1238.51867********************
           X            0.99999  -0.00283   0.00373
           Y            0.00288   0.99991  -0.01341
           Z           -0.00369   0.01342   0.99990
 This molecule is an asymmetric top.
 Rotational symmetry number  1.
 Warning -- assumption of classical behavior for rotation
           may cause significant error
 Rotational temperatures (Kelvin)      0.06993     0.00818     0.00778
 Rotational constants (GHZ):           1.45718     0.17035     0.16218
 Zero-point vibrational energy     807464.8 (Joules/Mol)
                                  192.98871 (Kcal/Mol)
 Warning -- explicit consideration of  28 degrees of freedom as
           vibrations may cause significant error
 Vibrational temperatures:     41.87    45.06    65.58    97.11   101.47
          (Kelvin)            108.79   149.38   185.77   249.26   274.18
                              309.26   315.51   359.38   360.50   385.92
                              401.44   458.45   497.67   525.29   547.74
                              589.40   595.56   628.46   675.17   742.64
                              800.47   838.38   845.17   969.89  1002.95
                             1076.32  1099.71  1132.32  1149.00  1170.96
                             1195.16  1213.43  1232.11  1280.04  1312.01
                             1326.71  1377.96  1392.94  1421.51  1443.42
                             1510.70  1531.19  1589.42  1612.42  1649.97
                             1660.93  1680.11  1694.32  1720.12  1749.62
                             1786.26  1847.27  1879.59  1881.88  1887.41
                             1934.79  1959.99  1991.92  2025.92  2043.22
                             2050.84  2069.70  2076.07  2087.41  2129.19
                             2177.91  2182.82  2193.22  2201.43  2205.54
                             2215.82  2222.07  2234.61  2244.30  2356.42
                             2378.68  2423.53  2569.43  4360.86  4382.80
                             4398.80  4402.94  4407.75  4416.62  4418.48
                             4467.53  4492.64  4503.57  4505.07  4514.07
                             4514.22  4561.80  4612.75  4632.25  4658.41
                             5091.92  5241.59

 Zero-point correction=                           0.307547 (Hartree/Particle)
 Thermal correction to Energy=                    0.325748
 Thermal correction to Enthalpy=                  0.326692
 Thermal correction to Gibbs Free Energy=         0.259984
 Sum of electronic and zero-point Energies=           -787.023682
 Sum of electronic and thermal Energies=              -787.005481
 Sum of electronic and thermal Enthalpies=            -787.004537
 Sum of electronic and thermal Free Energies=         -787.071246

                     E (Thermal)             CV                S
                      KCal/Mol        Cal/Mol-Kelvin    Cal/Mol-Kelvin
 Total                  204.410             67.325            140.400
 Electronic               0.000              0.000              0.000
 Translational            0.889              2.981             42.292
 Rotational               0.889              2.981             33.345
 Vibrational            202.633             61.363             64.763
 Vibration     1          0.593              1.984              5.890
 Vibration     2          0.594              1.983              5.744
 Vibration     3          0.595              1.979              5.001
 Vibration     4          0.598              1.970              4.225
 Vibration     5          0.598              1.968              4.139
 Vibration     6          0.599              1.965              4.002
 Vibration     7          0.605              1.946              3.381
 Vibration     8          0.612              1.924              2.959
 Vibration     9          0.627              1.875              2.400
 Vibration    10          0.634              1.853              2.222
 Vibration    11          0.645              1.818              2.001
 Vibration    12          0.647              1.812              1.965
 Vibration    13          0.663              1.763              1.732
 Vibration    14          0.663              1.762              1.727
 Vibration    15          0.673              1.732              1.608
 Vibration    16          0.679              1.712              1.540
 Vibration    17          0.705              1.638              1.317
 Vibration    18          0.724              1.584              1.185
 Vibration    19          0.738              1.544              1.100
 Vibration    20          0.750              1.511              1.036
 Vibration    21          0.774              1.449              0.928
 Vibration    22          0.778              1.440              0.913
 Vibration    23          0.797              1.390              0.837
 Vibration    24          0.826              1.318              0.740
 Vibration    25          0.871              1.214              0.619
 Vibration    26          0.912              1.126              0.531
 Vibration    27          0.940              1.069              0.480
 Vibration    28          0.945              1.059              0.472

 Optimization completed.
    -- Stationary point found.
 Normal termination of Gaussian 16 at Fri Dec 11 13:35:07 2020.

 ----------------------------------------------------------------------
 # B3LYP/6-311++G(d,p) empiricaldispersion=gd3bj scf=xqc pop=npa geom=c
 heck
 ----------------------------------------------------------------------

 --------------------------------------
 CID_43830245_JID_7888_Energie_neutraal
 --------------------------------------
 Structure from the checkpoint file:  "JID_7888.chk"
 Charge =  0 Multiplicity = 1

 SCF Done:  E(RB3LYP) =  -787.558022068     A.U. after   16 cycles
 Normal termination of Gaussian 16 at Fri Dec 11 13:41:03 2020.

 ----------------------------------------------------------------------
 # B3LYP/6-311++G(d,p) empiricaldispersion=gd3bj scf=xqc pop=npa geom=c
 heck
 ----------------------------------------------------------------------

 ------------------------------------
 CID_43830245_JID_7888_Energie_kation
 ------------------------------------
 Structure from the checkpoint file:  "JID_7888.chk"
 Charge =  1 Multiplicity = 2

 SCF Done:  E(UB3LYP) =  -787.271825333     A.U. after   24 cycles
 Normal termination of Gaussian 16 at Fri Dec 11 13:53:28 2020.
 Gaussian 16:  ES64L-G16RevA.03 25-Dec-2016

 ----------------------------------------------------------------------
 # B3LYP/6-311++G(d,p) empiricaldispersion=gd3bj scf=xqc pop=npa geom=c
 heck
 ----------------------------------------------------------------------

 -----------------------------------
 CID_43830245_JID_7888_Energie_anion
 -----------------------------------
 Structure from the checkpoint file:  "JID_7888.chk"
 Charge = -1 Multiplicity = 2

                         Standard orientation:
 ---------------------------------------------------------------------
 Center     Atomic      Atomic             Coordinates (Angstroms)
 Number     Number       Type             X           Y           Z
 ---------------------------------------------------------------------
      1          6           0       -5.892555    0.517255   -0.821474
      2          6           0       -4.403106    0.160407   -0.841658
      3          6           0       -3.672531    0.624492    0.421790
      4          6           0       -4.093176   -0.081525    1.707443
      5          8           0       -2.226359    0.577793    0.240244
      6          6           0       -1.606191   -0.609741    0.067303
      7          8           0       -2.174495   -1.686559    0.041285
      8          6           0       -0.133735   -0.449510   -0.089115
      9          6           0        0.481374    0.807981   -0.050704
     10          6           0        1.865756    0.925403   -0.199705
     11          6           0        2.621670   -0.249450   -0.392910
     12          6           0        2.009019   -1.497421   -0.437359
     13          6           0        0.629314   -1.606267   -0.286079
     14          8           0        3.984829   -0.121502   -0.572625
     15          6           0        4.735993   -0.171414    0.655990
     16          6           0        6.194527    0.066128    0.317386
     17          7           0        2.533205    2.149442   -0.120729
     18          1           0       -6.427240   -0.016275   -0.028344
     19          1           0       -6.364744    0.250568   -1.772666
     20          1           0       -6.045638    1.592413   -0.664057
     21          1           0       -4.269346   -0.917635   -0.960708
     22          1           0       -3.920935    0.643561   -1.700715
     23          1           0       -3.839709    1.700880    0.540484
     24          1           0       -3.996707   -1.164227    1.611642
     25          1           0       -3.470804    0.256846    2.542163
     26          1           0       -5.133797    0.165252    1.941794
     27          1           0       -0.124085    1.695192    0.098895
     28          1           0        2.629683   -2.372768   -0.602886
     29          1           0        0.129156   -2.566916   -0.318544
     30          1           0        4.355790    0.592499    1.346576
     31          1           0        4.591010   -1.154517    1.123975
     32          1           0        6.330547    1.053167   -0.136878
     33          1           0        6.806908    0.015155    1.223959
     34          1           0        6.552516   -0.689279   -0.389087
     35          1           0        3.411458    2.142316   -0.627528
     36          1           0        1.963537    2.951797   -0.359640
 ---------------------------------------------------------------------

 SCF Done:  E(UB3LYP) =  -787.551701125     A.U. after   33 cycles
 SCF Done:  E(UB3LYP) =  -787.551701125     a.u. after    1 cycles

 The electronic state is 2-A.
 Alpha  occ. eigenvalues --  -19.03332 -19.02918 -18.96169 -14.20917 -10.15019
 Alpha  occ. eigenvalues --  -10.12868 -10.12012 -10.09172 -10.09111 -10.07244
 Alpha  occ. eigenvalues --  -10.07075 -10.06801 -10.05990 -10.05006 -10.04460
 Alpha  occ. eigenvalues --  -10.04188 -10.04107  -0.96987  -0.94370  -0.88083
 Alpha  occ. eigenvalues --   -0.80679  -0.72266  -0.70263  -0.66998  -0.63728
 Alpha  occ. eigenvalues --   -0.61892  -0.60715  -0.56290  -0.53252  -0.51456
 Alpha  occ. eigenvalues --   -0.49977  -0.47759  -0.43472  -0.41836  -0.40568
 Alpha  occ. eigenvalues --   -0.39377  -0.37628  -0.36834  -0.35307  -0.34922
 Alpha  occ. eigenvalues --   -0.34403  -0.33475  -0.32549  -0.32087  -0.31209
 Alpha  occ. eigenvalues --   -0.30926  -0.29982  -0.29247  -0.28093  -0.27731
 Alpha  occ. eigenvalues --   -0.27391  -0.27101  -0.25652  -0.24777  -0.24227
 Alpha  occ. eigenvalues --   -0.23987  -0.23294  -0.21994  -0.19770  -0.17957
 Alpha  occ. eigenvalues --   -0.17013  -0.14056  -0.13076  -0.09650   0.04488
 Alpha virt. eigenvalues --    0.05726   0.06160   0.07422   0.08008   0.08705
 Alpha virt. eigenvalues --    0.08991   0.09099   0.09854   0.10415   0.11101
 Alpha virt. eigenvalues --    0.11454   0.11897   0.12144   0.12323   0.12493

  Beta  occ. eigenvalues --  -19.03290 -19.02931 -18.95957 -14.20912 -10.14805
  Beta  occ. eigenvalues --  -10.12868 -10.11967 -10.09188 -10.08913 -10.07223
  Beta  occ. eigenvalues --  -10.07046 -10.06797 -10.05972 -10.05025 -10.04348
  Beta  occ. eigenvalues --  -10.04132 -10.03940  -0.96775  -0.94289  -0.87763
  Beta  occ. eigenvalues --   -0.80659  -0.72053  -0.70214  -0.66875  -0.63639
  Beta  occ. eigenvalues --   -0.61678  -0.60492  -0.56185  -0.53060  -0.51349
  Beta  occ. eigenvalues --   -0.49809  -0.47593  -0.43344  -0.41773  -0.40470
  Beta  occ. eigenvalues --   -0.39295  -0.37584  -0.36765  -0.35161  -0.34771
  Beta  occ. eigenvalues --   -0.34193  -0.33250  -0.32379  -0.31925  -0.31073
  Beta  occ. eigenvalues --   -0.30741  -0.29928  -0.29112  -0.27886  -0.27531
  Beta  occ. eigenvalues --   -0.27321  -0.26976  -0.25435  -0.24696  -0.24131
  Beta  occ. eigenvalues --   -0.23845  -0.23184  -0.21885  -0.19501  -0.17285
  Beta  occ. eigenvalues --   -0.17000  -0.13856  -0.12101  -0.09000
  Beta virt. eigenvalues --    0.06222   0.06377   0.07582   0.08110   0.08762
  Beta virt. eigenvalues --    0.08996   0.09159   0.09250   0.09853   0.10619
  Beta virt. eigenvalues --    0.11142   0.11429   0.11896   0.12223   0.12393

 Mulliken charges and spin densities:
               1          2
     1  C    0.168657  -0.781767
     2  C   -0.361741   0.422371
     3  C   -0.213956   0.152652
     4  C    0.029723  -0.456736
     5  O    0.104911   0.005820
     6  C   -0.672125  -0.002956
     7  O   -0.269895   0.078485
     8  C    1.051642  -0.071182
     9  C   -0.592288   0.046692
    10  C    0.142686  -0.160408
    11  C   -0.499851   0.476067
    12  C    0.004525  -0.096145
    13  C   -0.383728   0.105598
    14  O   -0.174875   0.008174
    15  C   -0.450471   0.193152
    16  C    0.517700  -0.977658
    17  N   -0.328292  -0.011352
    18  H   -0.039159   0.179109
    19  H   -0.027967   0.163911
    20  H   -0.090580   0.217987
    21  H    0.196385  -0.012809
    22  H    0.137948  -0.002983
    23  H    0.108918   0.040049
    24  H    0.116057   0.080468
    25  H    0.120897   0.005800
    26  H   -0.099740   0.245166
    27  H    0.158325  -0.009029
    28  H    0.115057   0.037278
    29  H    0.164433  -0.001992
    30  H    0.052483   0.122470
    31  H    0.087270   0.041781
    32  H   -0.178122   0.309763
    33  H   -0.162270   0.288228
    34  H   -0.024084   0.170286
    35  H    0.172726   0.088112
    36  H    0.118802   0.105597
 Sum of Mulliken charges =  -1.00000   1.00000

 Dipole moment (field-independent basis, Debye):
    X=             -0.3691    Y=              1.3489    Z=             -0.2786  Tot=              1.4260
 Quadrupole moment (field-independent basis, Debye-Ang):
   XX=           -212.2873   YY=           -123.3545   ZZ=           -122.5620
   XY=             -5.9032   XZ=              0.7306   YZ=             -1.8619

 Summary of Natural Population Analysis:

                                       Natural Population
                Natural  -----------------------------------------------
    Atom  No    Charge         Core      Valence    Rydberg      Total
 -----------------------------------------------------------------------
      C    1   -0.28750      0.99967     2.28296    0.00487     3.28750
      C    2   -0.20726      0.99961     2.19888    0.00877     3.20726
      C    3    0.06741      0.99954     1.91842    0.01463     2.93259
      C    4   -0.30363      0.99964     2.29837    0.00562     3.30363
      O    5   -0.28814      0.99986     3.28031    0.00797     4.28814
      C    6    0.42692      0.99963     1.54976    0.02369     2.57308
      O    7   -0.30776      0.99987     3.30319    0.00469     4.30776
      C    8   -0.05833      0.99947     2.04784    0.01103     3.05833
      C    9   -0.07465      0.99951     2.06636    0.00878     3.07465
      C   10    0.04842      0.99945     1.94067    0.01146     2.95158
      C   11    0.17209      0.99933     1.81508    0.01351     2.82791
      C   12   -0.12745      0.99952     2.11931    0.00862     3.12745
      C   13   -0.08213      0.99955     2.07474    0.00784     3.08213
      O   14   -0.30573      0.99986     3.29511    0.01075     4.30573
      C   15   -0.00756      0.99958     1.99585    0.01213     3.00756
      C   16   -0.29191      0.99966     2.28751    0.00473     3.29191
      N   17   -0.40682      0.99972     2.89677    0.01033     3.90682
      H   18    0.09735      0.00000     0.40171    0.00094     0.40265
      H   19    0.09858      0.00000     0.40071    0.00071     0.40142
      H   20    0.09376      0.00000     0.40519    0.00105     0.40624
      H   21    0.11134      0.00000     0.38747    0.00119     0.38866
      H   22    0.09810      0.00000     0.40083    0.00107     0.40190
      H   23    0.08545      0.00000     0.41342    0.00113     0.41455
      H   24    0.11334      0.00000     0.38571    0.00095     0.38666
      H   25    0.10199      0.00000     0.39717    0.00084     0.39801
      H   26    0.09770      0.00000     0.40146    0.00084     0.40230
      H   27    0.10164      0.00000     0.39748    0.00088     0.39836
      H   28    0.09880      0.00000     0.40023    0.00097     0.40120
      H   29    0.10694      0.00000     0.39215    0.00092     0.39306
      H   30    0.08560      0.00000     0.41300    0.00139     0.41440
      H   31    0.07928      0.00000     0.41937    0.00135     0.42072
      H   32    0.09883      0.00000     0.39945    0.00172     0.40117
      H   33    0.09847      0.00000     0.40047    0.00105     0.40153
      H   34    0.09857      0.00000     0.39991    0.00152     0.40143
      H   35    0.18722      0.00000     0.31087    0.00191     0.31278
      H   36    0.18106      0.00000     0.31758    0.00136     0.31894
 =======================================================================
   * Total *    0.00000     16.99347    46.81530    0.19123    64.00000

 Normal termination of Gaussian 16 at Fri Dec 11 14:11:09 2020.
