 Gaussian 16, Revision A.03,

 -----------------------------------------------------------
 # opt freq B3LYP/6-31G(d) empiricaldispersion=gd3bj scf=xqc
 -----------------------------------------------------------

 ------------------------------
 CID_81043923_JID_7056_neutraal
 ------------------------------
 Symbolic Z-matrix:
 Charge =  0 Multiplicity = 1

 SCF Done:  E(RB3LYP) =  -771.056236109     A.U. after   14 cycles
 SCF Done:  E(RB3LYP) =  -771.060094584     A.U. after   12 cycles
 SCF Done:  E(RB3LYP) =  -771.060557999     A.U. after   11 cycles
 SCF Done:  E(RB3LYP) =  -771.061056433     A.U. after   12 cycles
 SCF Done:  E(RB3LYP) =  -771.060964806     A.U. after   10 cycles
 SCF Done:  E(RB3LYP) =  -771.061203293     A.U. after   10 cycles
 SCF Done:  E(RB3LYP) =  -771.061246130     A.U. after   10 cycles
 SCF Done:  E(RB3LYP) =  -771.061273766     A.U. after    9 cycles
 SCF Done:  E(RB3LYP) =  -771.061317107     A.U. after   10 cycles
 SCF Done:  E(RB3LYP) =  -771.061461582     A.U. after   13 cycles
 SCF Done:  E(RB3LYP) =  -771.063538156     A.U. after    7 cycles
 SCF Done:  E(RB3LYP) =  -771.063538283     A.U. after    7 cycles
 SCF Done:  E(RB3LYP) =  -771.063538330     A.U. after    6 cycles
 SCF Done:  E(RB3LYP) =  -771.063538349     A.U. after    6 cycles
 Optimization completed.
    -- Stationary point found.
 Normal termination of Gaussian 16 at Fri Dec 11 12:20:37 2020.

 --------------------------------------------------------------------
 #N Geom=AllCheck Guess=TCheck SCRF=Check GenChk RB3LYP/6-31G(d) Freq
 --------------------------------------------------------------------

 Structure from the checkpoint file:  "JID_7056.chk"
 ------------------------------
 CID_81043923_JID_7056_neutraal
 ------------------------------
 Charge =  0 Multiplicity = 1

 SCF Done:  E(RB3LYP) =  -771.063538349     A.U. after    1 cycles

  Exact polarizability: 173.044  -0.978 140.816   2.542   1.136 145.103
 Approx polarizability: 216.283   2.146 195.891   4.890   6.535 226.738

                      1                      2                      3
                      A                      A                      A
 Frequencies --     20.5938                27.3923                41.8546
 Red. masses --      3.2505                 4.3081                 3.8774
 Frc consts  --      0.0008                 0.0019                 0.0040
 IR Inten    --      0.3578                 0.2812                 2.7268

                      4                      5                      6
                      A                      A                      A
 Frequencies --     54.5206                66.5200                72.5265
 Red. masses --      3.7311                 3.3268                 3.9127
 Frc consts  --      0.0065                 0.0087                 0.0121
 IR Inten    --      0.4967                 0.4673                 1.9498

                      7                      8                      9
                      A                      A                      A
 Frequencies --    107.7433               120.6867               132.3524
 Red. masses --      3.7219                 1.9871                 3.1346
 Frc consts  --      0.0255                 0.0171                 0.0324
 IR Inten    --      0.0704                 2.1719                 2.3881

                     10                     11                     12
                      A                      A                      A
 Frequencies --    168.7882               204.1596               213.4196
 Red. masses --      3.4700                 3.3312                 3.5832
 Frc consts  --      0.0582                 0.0818                 0.0962
 IR Inten    --      2.4656                 1.6667                 5.0469

                     13                     14                     15
                      A                      A                      A
 Frequencies --    241.6846               262.1085               278.6812
 Red. masses --      1.3169                 2.4779                 2.7076
 Frc consts  --      0.0453                 0.1003                 0.1239
 IR Inten    --      0.6007                 1.5070                 1.0859

                     16                     17                     18
                      A                      A                      A
 Frequencies --    300.0704               327.0842               345.2168
 Red. masses --      1.4252                 1.6107                 1.7160
 Frc consts  --      0.0756                 0.1015                 0.1205
 IR Inten    --      1.2598                 0.6797                 0.3744

                     19                     20                     21
                      A                      A                      A
 Frequencies --    358.7423               373.3412               422.5150
 Red. masses --      2.5870                 2.1763                 2.2536
 Frc consts  --      0.1962                 0.1787                 0.2370
 IR Inten    --      2.9158                 1.5933                 0.8746

                     22                     23                     24
                      A                      A                      A
 Frequencies --    433.1666               464.5565               487.0200
 Red. masses --      2.8679                 2.1412                 2.5889
 Frc consts  --      0.3171                 0.2723                 0.3618
 IR Inten    --      7.9175                 6.9969                 2.7444

                     25                     26                     27
                      A                      A                      A
 Frequencies --    508.4370               524.5258               528.8952
 Red. masses --      1.9280                 2.6679                 3.2528
 Frc consts  --      0.2937                 0.4325                 0.5361
 IR Inten    --      7.3416                20.0740                16.7071

                     28                     29                     30
                      A                      A                      A
 Frequencies --    563.0869               607.1360               690.3749
 Red. masses --      2.1251                 3.0397                 1.7197
 Frc consts  --      0.3970                 0.6602                 0.4829
 IR Inten    --     33.6080                 4.3241                57.8354

                     31                     32                     33
                      A                      A                      A
 Frequencies --    721.3704               755.5274               796.1854
 Red. masses --      2.0642                 3.1664                 1.6177
 Frc consts  --      0.6329                 1.0649                 0.6042
 IR Inten    --     58.3098                13.8319                31.7187

                     34                     35                     36
                      A                      A                      A
 Frequencies --    807.3635               834.9215               846.4872
 Red. masses --      1.2606                 1.9720                 3.1696
 Frc consts  --      0.4841                 0.8099                 1.3381
 IR Inten    --      6.1810                 0.8213                 4.3168

                     37                     38                     39
                      A                      A                      A
 Frequencies --    858.9990               878.2783               891.7565
 Red. masses --      3.0466                 1.9952                 2.3461
 Frc consts  --      1.3245                 0.9068                 1.0992
 IR Inten    --      3.2955                15.8708                 1.4992

                     40                     41                     42
                      A                      A                      A
 Frequencies --    907.4900               922.4674               923.8216
 Red. masses --      1.7970                 2.2036                 1.6694
 Frc consts  --      0.8719                 1.1048                 0.8394
 IR Inten    --     19.1410                 2.3787                 0.1962

                     43                     44                     45
                      A                      A                      A
 Frequencies --    936.4303               967.2981               991.5436
 Red. masses --      1.8927                 1.7181                 2.1005
 Frc consts  --      0.9779                 0.9472                 1.2167
 IR Inten    --      1.9297                12.6707                 2.3719

                     46                     47                     48
                      A                      A                      A
 Frequencies --   1020.1085              1041.3917              1063.2245
 Red. masses --      2.8930                 1.6678                 1.9534
 Frc consts  --      1.7737                 1.0657                 1.3010
 IR Inten    --     19.0641                19.4431                 3.9696

                     49                     50                     51
                      A                      A                      A
 Frequencies --   1076.4469              1089.5522              1103.0550
 Red. masses --      1.6358                 1.9418                 2.2191
 Frc consts  --      1.1168                 1.3582                 1.5909
 IR Inten    --      2.7426                35.6313                 4.4048

                     52                     53                     54
                      A                      A                      A
 Frequencies --   1117.6436              1131.4866              1144.2497
 Red. masses --      1.9382                 1.8529                 2.6180
 Frc consts  --      1.4264                 1.3977                 2.0196
 IR Inten    --      4.8349                10.7362                48.9638

                     55                     56                     57
                      A                      A                      A
 Frequencies --   1150.8286              1159.9237              1173.5255
 Red. masses --      1.7889                 2.2584                 3.4923
 Frc consts  --      1.3959                 1.7902                 2.8337
 IR Inten    --     27.1643                 8.4286                60.7752

                     58                     59                     60
                      A                      A                      A
 Frequencies --   1184.5339              1203.5943              1211.6881
 Red. masses --      2.1005                 1.2810                 1.7852
 Frc consts  --      1.7365                 1.0934                 1.5442
 IR Inten    --      5.1667                 2.8465                37.3477

                     61                     62                     63
                      A                      A                      A
 Frequencies --   1218.4328              1257.0141              1281.2045
 Red. masses --      1.2892                 1.5647                 1.3078
 Frc consts  --      1.1277                 1.4567                 1.2648
 IR Inten    --     12.5456                29.4801                 4.8595

                     64                     65                     66
                      A                      A                      A
 Frequencies --   1293.1256              1314.1690              1314.8427
 Red. masses --      1.2133                 1.1525                 1.1743
 Frc consts  --      1.1953                 1.1727                 1.1961
 IR Inten    --      3.2706                12.5543                 9.6140

                     67                     68                     69
                      A                      A                      A
 Frequencies --   1328.7365              1337.0056              1353.4984
 Red. masses --      1.2328                 1.4803                 1.1496
 Frc consts  --      1.2824                 1.5591                 1.2408
 IR Inten    --      0.4791                50.8018                 7.7054

                     70                     71                     72
                      A                      A                      A
 Frequencies --   1359.1732              1367.9613              1386.4018
 Red. masses --      1.5023                 1.4327                 1.4138
 Frc consts  --      1.6351                 1.5796                 1.6011
 IR Inten    --     20.3205                29.7436                 4.9829

                     73                     74                     75
                      A                      A                      A
 Frequencies --   1395.2944              1402.5328              1405.7974
 Red. masses --      1.3818                 1.3096                 1.3965
 Frc consts  --      1.5850                 1.5178                 1.6261
 IR Inten    --     18.0627                13.1065                 9.8598

                     76                     77                     78
                      A                      A                      A
 Frequencies --   1410.7058              1420.3183              1435.7024
 Red. masses --      1.3588                 1.2848                 1.2770
 Frc consts  --      1.5932                 1.5270                 1.5509
 IR Inten    --     18.0777                 2.1694                14.1731

                     79                     80                     81
                      A                      A                      A
 Frequencies --   1437.0044              1442.2929              1447.4323
 Red. masses --      1.4796                 1.3396                 1.3897
 Frc consts  --      1.8001                 1.6419                 1.7155
 IR Inten    --     47.7854                24.5846                24.6384

                     82                     83                     84
                      A                      A                      A
 Frequencies --   1450.8152              1492.3149              1500.1529
 Red. masses --      1.4387                 1.6311                 1.1066
 Frc consts  --      1.7842                 2.1402                 1.4673
 IR Inten    --      2.1556                53.6561                 2.6516

                     85                     86                     87
                      A                      A                      A
 Frequencies --   1501.0305              1512.4329              1515.5016
 Red. masses --      1.2663                 1.0855                 1.0772
 Frc consts  --      1.6810                 1.4629                 1.4577
 IR Inten    --      2.1245                 1.2122                 2.4196

                     88                     89                     90
                      A                      A                      A
 Frequencies --   1518.7856              1520.0696              1521.2139
 Red. masses --      1.0976                 1.0735                 1.1066
 Frc consts  --      1.4918                 1.4614                 1.5088
 IR Inten    --     22.2159                 3.5147                 5.4070

                     91                     92                     93
                      A                      A                      A
 Frequencies --   1524.5168              1526.9070              1533.6577
 Red. masses --      1.1218                 1.0773                 1.0611
 Frc consts  --      1.5362                 1.4798                 1.4704
 IR Inten    --      0.1407                11.9312                 2.2705

                     94                     95                     96
                      A                      A                      A
 Frequencies --   1539.9541              1545.7253              1548.2088
 Red. masses --      1.0920                 1.0869                 1.0574
 Frc consts  --      1.5258                 1.5300                 1.4933
 IR Inten    --      4.0051                 4.3760                11.0737

                     97                     98                     99
                      A                      A                      A
 Frequencies --   1776.5738              2906.6742              2912.7031
 Red. masses --      7.9038                 1.0747                 1.0725
 Frc consts  --     14.6978                 5.3495                 5.3609
 IR Inten    --    261.7483                22.2424               180.4300

                    100                    101                    102
                      A                      A                      A
 Frequencies --   3007.0336              3029.8091              3032.2409
 Red. masses --      1.0814                 1.0693                 1.0564
 Frc consts  --      5.7611                 5.7835                 5.7227
 IR Inten    --     23.1020                45.4481                36.4843

                    103                    104                    105
                      A                      A                      A
 Frequencies --   3037.7114              3042.8111              3049.2875
 Red. masses --      1.0652                 1.0505                 1.0621
 Frc consts  --      5.7912                 5.7308                 5.8183
 IR Inten    --     33.9149                17.2639                13.5175

                    106                    107                    108
                      A                      A                      A
 Frequencies --   3054.0052              3056.1572              3057.8486
 Red. masses --      1.0374                 1.0694                 1.0782
 Frc consts  --      5.7007                 5.8850                 5.9397
 IR Inten    --     12.4662                35.6055                16.7947

                    109                    110                    111
                      A                      A                      A
 Frequencies --   3070.6734              3074.3722              3077.5938
 Red. masses --      1.0780                 1.0943                 1.0875
 Frc consts  --      5.9888                 6.0942                 6.0688
 IR Inten    --      7.6188                47.4827                41.7572

                    112                    113                    114
                      A                      A                      A
 Frequencies --   3081.1644              3083.8770              3097.8597
 Red. masses --      1.0880                 1.0897                 1.1021
 Frc consts  --      6.0858                 6.1059                 6.2313
 IR Inten    --     43.5017                55.8774                18.6861

                    115                    116                    117
                      A                      A                      A
 Frequencies --   3106.4604              3110.3996              3120.5880
 Red. masses --      1.0945                 1.0954                 1.0963
 Frc consts  --      6.2227                 6.2438                 6.2902
 IR Inten    --     38.4154                54.5941                47.5755

                    118                    119                    120
                      A                      A                      A
 Frequencies --   3121.5741              3124.0843              3133.8891
 Red. masses --      1.1011                 1.1007                 1.1044
 Frc consts  --      6.3214                 6.3297                 6.3904
 IR Inten    --     24.9191                31.0274                52.8592

                    121                    122                    123
                      A                      A                      A
 Frequencies --   3157.4673              3499.6260              3588.4400
 Red. masses --      1.0999                 1.0747                 1.0755
 Frc consts  --      6.4610                 7.7546                 8.1596
 IR Inten    --      4.6357                 1.2976                18.7948

 - Thermochemistry -
 -------------------
 Temperature   298.150 Kelvin.  Pressure   1.00000 Atm.
 Atom     1 has atomic number  6 and mass  12.00000

 Molecular mass:   242.19943 amu.
 Principal axes and moments of inertia in atomic units:
                           1         2         3
     Eigenvalues --  2566.804427606.569788394.90182
           X            0.99996   0.00824  -0.00314
           Y           -0.00838   0.99879  -0.04844
           Z            0.00273   0.04846   0.99882
 This molecule is an asymmetric top.
 Rotational symmetry number  1.
 Warning -- assumption of classical behavior for rotation
           may cause significant error
 Rotational temperatures (Kelvin)      0.03374     0.01139     0.01032
 Rotational constants (GHZ):           0.70311     0.23726     0.21498
 Zero-point vibrational energy    1032552.2 (Joules/Mol)
                                  246.78590 (Kcal/Mol)
 Warning -- explicit consideration of  29 degrees of freedom as
           vibrations may cause significant error
 Vibrational temperatures:     29.63    39.41    60.22    78.44    95.71
          (Kelvin)            104.35   155.02   173.64   190.43   242.85
                              293.74   307.06   347.73   377.12   400.96
                              431.73   470.60   496.69   516.15   537.15
                              607.90   623.23   668.39   700.71   731.53
                              754.68   760.96   810.16   873.53   993.30
                             1037.89  1087.04  1145.53  1161.62  1201.27
                             1217.91  1235.91  1263.65  1283.04  1305.68
                             1327.22  1329.17  1347.31  1391.73  1426.61
                             1467.71  1498.33  1529.74  1548.77  1567.62
                             1587.05  1608.04  1627.96  1646.32  1655.79
                             1668.87  1688.44  1704.28  1731.70  1743.35
                             1753.05  1808.56  1843.37  1860.52  1890.80
                             1891.77  1911.76  1923.65  1947.38  1955.55
                             1968.19  1994.72  2007.52  2017.93  2022.63
                             2029.69  2043.52  2065.66  2067.53  2075.14
                             2082.53  2087.40  2147.11  2158.39  2159.65
                             2176.05  2180.47  2185.19  2187.04  2188.69
                             2193.44  2196.88  2206.59  2215.65  2223.95
                             2227.53  2556.09  4182.06  4190.73  4326.45
                             4359.22  4362.72  4370.59  4377.93  4387.24
                             4394.03  4397.13  4399.56  4418.01  4423.34
                             4427.97  4433.11  4437.01  4457.13  4469.50
                             4475.17  4489.83  4491.25  4494.86  4508.97
                             4542.89  5035.18  5162.96

 Zero-point correction=                           0.393278 (Hartree/Particle)
 Thermal correction to Energy=                    0.411916
 Thermal correction to Enthalpy=                  0.412860
 Thermal correction to Gibbs Free Energy=         0.344577
 Sum of electronic and zero-point Energies=           -770.670260
 Sum of electronic and thermal Energies=              -770.651622
 Sum of electronic and thermal Enthalpies=            -770.650678
 Sum of electronic and thermal Free Energies=         -770.718961

                     E (Thermal)             CV                S
                      KCal/Mol        Cal/Mol-Kelvin    Cal/Mol-Kelvin
 Total                  258.481             70.250            143.714
 Electronic               0.000              0.000              0.000
 Translational            0.889              2.981             42.355
 Rotational               0.889              2.981             33.460
 Vibrational            256.704             64.288             67.899
 Vibration     1          0.593              1.986              6.576
 Vibration     2          0.593              1.984              6.010
 Vibration     3          0.594              1.980              5.169
 Vibration     4          0.596              1.976              4.646
 Vibration     5          0.598              1.970              4.254
 Vibration     6          0.599              1.967              4.084
 Vibration     7          0.606              1.943              3.309
 Vibration     8          0.609              1.932              3.089
 Vibration     9          0.612              1.921              2.912
 Vibration    10          0.625              1.881              2.449
 Vibration    11          0.640              1.834              2.095
 Vibration    12          0.644              1.820              2.014
 Vibration    13          0.658              1.776              1.790
 Vibration    14          0.669              1.742              1.648
 Vibration    15          0.679              1.713              1.542
 Vibration    16          0.693              1.674              1.417
 Vibration    17          0.711              1.621              1.274
 Vibration    18          0.724              1.585              1.188
 Vibration    19          0.734              1.557              1.128
 Vibration    20          0.745              1.527              1.066
 Vibration    21          0.785              1.421              0.883
 Vibration    22          0.794              1.398              0.848
 Vibration    23          0.822              1.329              0.753
 Vibration    24          0.843              1.279              0.691
 Vibration    25          0.864              1.231              0.637
 Vibration    26          0.879              1.196              0.600
 Vibration    27          0.884              1.186              0.590
 Vibration    28          0.919              1.111              0.518
 Vibration    29          0.966              1.017              0.438

 Optimization completed.
    -- Stationary point found.
 Normal termination of Gaussian 16 at Fri Dec 11 12:39:37 2020.

 ----------------------------------------------------------------------
 # B3LYP/6-311++G(d,p) empiricaldispersion=gd3bj scf=xqc pop=npa geom=c
 heck
 ----------------------------------------------------------------------

 --------------------------------------
 CID_81043923_JID_7056_Energie_neutraal
 --------------------------------------
 Structure from the checkpoint file:  "JID_7056.chk"
 Charge =  0 Multiplicity = 1

 SCF Done:  E(RB3LYP) =  -771.290301937     A.U. after   15 cycles
 Normal termination of Gaussian 16 at Fri Dec 11 12:49:50 2020.

 ----------------------------------------------------------------------
 # B3LYP/6-311++G(d,p) empiricaldispersion=gd3bj scf=xqc pop=npa geom=c
 heck
 ----------------------------------------------------------------------

 ------------------------------------
 CID_81043923_JID_7056_Energie_kation
 ------------------------------------
 Structure from the checkpoint file:  "JID_7056.chk"
 Charge =  1 Multiplicity = 2

 SCF Done:  E(UB3LYP) =  -770.995264096     A.U. after   33 cycles
 SCF Done:  E(UB3LYP) =  -770.995264600     a.u. after    2 cycles
 Normal termination of Gaussian 16 at Fri Dec 11 13:30:44 2020.
 Gaussian 16:  ES64L-G16RevA.03 25-Dec-2016

 ----------------------------------------------------------------------
 # B3LYP/6-311++G(d,p) empiricaldispersion=gd3bj scf=xqc pop=npa geom=c
 heck
 ----------------------------------------------------------------------

 -----------------------------------
 CID_81043923_JID_7056_Energie_anion
 -----------------------------------
 Structure from the checkpoint file:  "JID_7056.chk"
 Charge = -1 Multiplicity = 2

                         Standard orientation:
 ---------------------------------------------------------------------
 Center     Atomic      Atomic             Coordinates (Angstroms)
 Number     Number       Type             X           Y           Z
 ---------------------------------------------------------------------
      1          6           0       -2.828840   -2.762220    0.879432
      2          6           0       -3.414420   -1.354450    0.874923
      3          8           0       -3.869105   -0.949759   -0.417568
      4          6           0       -2.852254   -0.558885   -1.325542
      5          6           0       -2.818987    0.965250   -1.470146
      6          7           0       -2.545913    1.656395   -0.217777
      7          6           0       -1.349176    1.753545    0.447862
      8          8           0       -1.320443    2.084781    1.628777
      9          6           0       -0.067267    1.505454   -0.341927
     10          6           0        1.021542    0.847116    0.524232
     11          6           0        0.596508   -0.571548    0.928834
     12          6           0        2.409333    0.977272   -0.153070
     13          6           0        2.608587    0.196593   -1.473949
     14          6           0        3.009813   -1.274740   -1.280778
     15          6           0        4.172399   -1.395116   -0.294410
     16          7           0        3.798127   -0.759020    0.967728
     17          6           0        3.584170    0.679247    0.797445
     18          1           0       -3.558282   -3.480214    0.490921
     19          1           0       -2.555954   -3.055909    1.899589
     20          1           0       -1.924081   -2.823348    0.264622
     21          1           0       -4.303811   -1.313679    1.512182
     22          1           0       -2.690198   -0.632476    1.274529
     23          1           0       -1.868459   -0.925118   -1.004613
     24          1           0       -3.074422   -1.011793   -2.300973
     25          1           0       -2.087325    1.258687   -2.229706
     26          1           0       -3.797325    1.307470   -1.821446
     27          1           0       -3.337383    1.775352    0.403650
     28          1           0       -0.255104    0.905674   -1.236704
     29          1           0        0.276720    2.488763   -0.693173
     30          1           0        1.072447    1.443058    1.443584
     31          1           0        0.343102   -1.178950    0.050507
     32          1           0        1.398626   -1.081391    1.465802
     33          1           0       -0.289871   -0.524677    1.570072
     34          1           0        2.500256    2.044472   -0.403657
     35          1           0        1.713723    0.266525   -2.103879
     36          1           0        3.413304    0.693241   -2.034537
     37          1           0        2.167885   -1.860319   -0.900865
     38          1           0        3.298387   -1.708133   -2.246607
     39          1           0        4.404473   -2.448594   -0.102173
     40          1           0        5.075632   -0.933624   -0.744497
     41          1           0        4.527656   -0.910937    1.660417
     42          1           0        4.486623    1.178345    0.389311
     43          1           0        3.385815    1.120662    1.780881
 ---------------------------------------------------------------------

 SCF Done:  E(UB3LYP) =  -771.279578764     A.U. after   33 cycles
 SCF Done:  E(UB3LYP) =  -771.279578764     a.u. after    1 cycles

 The electronic state is 2-A.
 Alpha  occ. eigenvalues --  -19.04161 -18.99878 -14.24864 -14.20019 -10.18389
 Alpha  occ. eigenvalues --  -10.13634 -10.13268 -10.12329 -10.09403 -10.09223
 Alpha  occ. eigenvalues --  -10.08259 -10.08184 -10.07785 -10.07584 -10.06604
 Alpha  occ. eigenvalues --  -10.06389 -10.05473  -0.95465  -0.94857  -0.83521
 Alpha  occ. eigenvalues --   -0.81597  -0.72386  -0.69001  -0.67549  -0.65223
 Alpha  occ. eigenvalues --   -0.64779  -0.60972  -0.57094  -0.54738  -0.53803
 Alpha  occ. eigenvalues --   -0.51833  -0.49706  -0.46786  -0.43312  -0.42770
 Alpha  occ. eigenvalues --   -0.41924  -0.41527  -0.39563  -0.38663  -0.38183
 Alpha  occ. eigenvalues --   -0.36497  -0.36354  -0.35011  -0.33920  -0.33374
 Alpha  occ. eigenvalues --   -0.32574  -0.32213  -0.31078  -0.30535  -0.30441
 Alpha  occ. eigenvalues --   -0.29977  -0.29811  -0.29364  -0.28596  -0.27741
 Alpha  occ. eigenvalues --   -0.27374  -0.25366  -0.24201  -0.23654  -0.23028
 Alpha  occ. eigenvalues --   -0.21953  -0.21298  -0.20532  -0.19304  -0.16969
 Alpha  occ. eigenvalues --   -0.16179  -0.13152   0.03958
 Alpha virt. eigenvalues --    0.05703   0.06423   0.06877   0.07429   0.07902
 Alpha virt. eigenvalues --    0.08268   0.08737   0.09212   0.09596   0.10100
 Alpha virt. eigenvalues --    0.10225   0.10545   0.10928   0.10991   0.12194

  Beta  occ. eigenvalues --  -19.04159 -18.99876 -14.24861 -14.19998 -10.18390
  Beta  occ. eigenvalues --  -10.13630 -10.13245 -10.12304 -10.09388 -10.09202
  Beta  occ. eigenvalues --  -10.08240 -10.08171 -10.07784 -10.07581 -10.06582
  Beta  occ. eigenvalues --  -10.06375 -10.05465  -0.95457  -0.94852  -0.83511
  Beta  occ. eigenvalues --   -0.81567  -0.72368  -0.68979  -0.67514  -0.65192
  Beta  occ. eigenvalues --   -0.64749  -0.60948  -0.57055  -0.54699  -0.53759
  Beta  occ. eigenvalues --   -0.51800  -0.49671  -0.46751  -0.43271  -0.42748
  Beta  occ. eigenvalues --   -0.41885  -0.41474  -0.39542  -0.38641  -0.38153
  Beta  occ. eigenvalues --   -0.36473  -0.36328  -0.34979  -0.33896  -0.33348
  Beta  occ. eigenvalues --   -0.32552  -0.32185  -0.31057  -0.30507  -0.30410
  Beta  occ. eigenvalues --   -0.29956  -0.29784  -0.29339  -0.28580  -0.27720
  Beta  occ. eigenvalues --   -0.27353  -0.25341  -0.24182  -0.23630  -0.23008
  Beta  occ. eigenvalues --   -0.21924  -0.21265  -0.20507  -0.19296  -0.16959
  Beta  occ. eigenvalues --   -0.16162  -0.13100
  Beta virt. eigenvalues --    0.05993   0.06397   0.06900   0.07418   0.07876
  Beta virt. eigenvalues --    0.08359   0.08540   0.08906   0.09593   0.09795
  Beta virt. eigenvalues --    0.10353   0.10600   0.10760   0.11069   0.11244

 Mulliken charges and spin densities:
               1          2
     1  C   -0.163206  -0.261830
     2  C   -0.281314  -0.070428
     3  O   -0.072804   0.009960
     4  C   -0.195957  -0.024625
     5  C    0.779942  -1.098596
     6  N   -0.167976   0.042984
     7  C   -0.357631  -0.048344
     8  O   -0.281861   0.003248
     9  C   -0.764412   0.661544
    10  C    0.057905  -0.084748
    11  C   -0.492630  -0.264679
    12  C    0.672540  -0.008763
    13  C    0.004682  -0.685013
    14  C   -0.689927   0.578150
    15  C    0.932762  -1.391616
    16  N   -0.396851   0.241387
    17  C    0.535252  -1.156546
    18  H    0.030864   0.129623
    19  H    0.050398   0.070428
    20  H    0.027795   0.123583
    21  H    0.085170   0.056960
    22  H    0.216954  -0.004353
    23  H   -0.022000   0.160497
    24  H   -0.490184   0.676745
    25  H   -0.633791   0.817311
    26  H   -0.124589   0.330430
    27  H    0.257407   0.046390
    28  H    1.657301  -1.536408
    29  H   -0.239918   0.445901
    30  H    0.305948  -0.068588
    31  H    0.043049  -0.002443
    32  H    0.285915  -0.055810
    33  H    0.142307   0.010114
    34  H    0.160120   0.030560
    35  H   -0.908468   1.062861
    36  H   -0.146814   0.307887
    37  H    0.081535   0.054849
    38  H   -0.310250   0.488515
    39  H   -0.266179   0.428309
    40  H   -0.111579   0.226477
    41  H    0.000889   0.258226
    42  H   -0.192259   0.323706
    43  H   -0.018133   0.176144
 Sum of Mulliken charges =  -1.00000   1.00000

 Dipole moment (field-independent basis, Debye):
    X=             -3.5982    Y=              0.0847    Z=              4.1862  Tot=              5.5208
 Quadrupole moment (field-independent basis, Debye-Ang):
   XX=           -190.5668   YY=           -150.5457   ZZ=           -162.6390
   XY=              4.7923   XZ=             -4.7681   YZ=             -4.5859

 Summary of Natural Population Analysis:

                                       Natural Population
                Natural  -----------------------------------------------
    Atom  No    Charge         Core      Valence    Rydberg      Total
 -----------------------------------------------------------------------
      C    1   -0.30043      0.99966     2.29651    0.00425     3.30043
      C    2   -0.01170      0.99959     2.00133    0.01078     3.01170
      O    3   -0.30684      0.99989     3.29725    0.00970     4.30684
      C    4   -0.01842      0.99957     2.00577    0.01309     3.01842
      C    5   -0.10169      0.99961     2.08973    0.01235     3.10169
      N    6   -0.32109      0.99967     2.81147    0.00996     3.82109
      C    7    0.34839      0.99967     1.62829    0.02365     2.65161
      O    8   -0.32794      0.99988     3.32266    0.00540     4.32794
      C    9   -0.23511      0.99956     2.22687    0.00868     3.23511
      C   10   -0.10762      0.99958     2.09737    0.01067     3.10762
      C   11   -0.29336      0.99964     2.28875    0.00498     3.29336
      C   12   -0.10892      0.99957     2.09737    0.01198     3.10892
      C   13   -0.19296      0.99961     2.18308    0.01027     3.19296
      C   14   -0.19465      0.99962     2.18655    0.00848     3.19465
      C   15   -0.08493      0.99962     2.07452    0.01079     3.08493
      N   16   -0.34340      0.99974     2.83172    0.01194     3.84340
      C   17   -0.08397      0.99960     2.07244    0.01194     3.08397
      H   18    0.09893      0.00000     0.39988    0.00119     0.40107
      H   19    0.09995      0.00000     0.39908    0.00098     0.40005
      H   20    0.10078      0.00000     0.39805    0.00117     0.39922
      H   21    0.08577      0.00000     0.41311    0.00112     0.41423
      H   22    0.08488      0.00000     0.41355    0.00157     0.41512
      H   23    0.08460      0.00000     0.41339    0.00200     0.41540
      H   24    0.09271      0.00000     0.40546    0.00183     0.40729
      H   25    0.10387      0.00000     0.39420    0.00193     0.39613
      H   26    0.10093      0.00000     0.39786    0.00121     0.39907
      H   27    0.19285      0.00000     0.30505    0.00210     0.30715
      H   28    0.10277      0.00000     0.39508    0.00215     0.39723
      H   29    0.11402      0.00000     0.38482    0.00116     0.38598
      H   30    0.10519      0.00000     0.39301    0.00180     0.39481
      H   31    0.09034      0.00000     0.40802    0.00164     0.40966
      H   32    0.11574      0.00000     0.38294    0.00132     0.38426
      H   33    0.09778      0.00000     0.40118    0.00104     0.40222
      H   34    0.09857      0.00000     0.39986    0.00157     0.40143
      H   35    0.10177      0.00000     0.39649    0.00174     0.39823
      H   36    0.09734      0.00000     0.40103    0.00163     0.40266
      H   37    0.09680      0.00000     0.40145    0.00175     0.40320
      H   38    0.09926      0.00000     0.39960    0.00113     0.40074
      H   39    0.09474      0.00000     0.40408    0.00118     0.40526
      H   40    0.07537      0.00000     0.42284    0.00179     0.42463
      H   41    0.17504      0.00000     0.32226    0.00270     0.32496
      H   42    0.07965      0.00000     0.41889    0.00146     0.42035
      H   43    0.09500      0.00000     0.40390    0.00110     0.40500
 =======================================================================
   * Total *   -0.00000     16.99405    49.78676    0.21919    67.00000

 Normal termination of Gaussian 16 at Fri Dec 11 13:54:23 2020.
