 Gaussian 16, Revision A.03,

 -----------------------------------------------------------
 # opt freq B3LYP/6-31G(d) empiricaldispersion=gd3bj scf=xqc
 -----------------------------------------------------------

 -------------------------------
 CID_146500001_JID_1205_neutraal
 -------------------------------
 Symbolic Z-matrix:
 Charge =  0 Multiplicity = 1

 SCF Done:  E(RB3LYP) =  -555.034129637     A.U. after   14 cycles
 SCF Done:  E(RB3LYP) =  -555.036512209     A.U. after   11 cycles
 SCF Done:  E(RB3LYP) =  -555.036595113     A.U. after   11 cycles
 SCF Done:  E(RB3LYP) =  -555.036741382     A.U. after   11 cycles
 SCF Done:  E(RB3LYP) =  -555.036798876     A.U. after   10 cycles
 SCF Done:  E(RB3LYP) =  -555.036835082     A.U. after   10 cycles
 SCF Done:  E(RB3LYP) =  -555.036866007     A.U. after   11 cycles
 SCF Done:  E(RB3LYP) =  -555.036883438     A.U. after   10 cycles
 SCF Done:  E(RB3LYP) =  -555.036910399     A.U. after    9 cycles
 SCF Done:  E(RB3LYP) =  -555.037046591     A.U. after   11 cycles
 SCF Done:  E(RB3LYP) =  -555.040173352     A.U. after   11 cycles
 SCF Done:  E(RB3LYP) =  -555.040427185     A.U. after   10 cycles
 SCF Done:  E(RB3LYP) =  -555.040462024     A.U. after   10 cycles
 SCF Done:  E(RB3LYP) =  -555.040470049     A.U. after    9 cycles
 SCF Done:  E(RB3LYP) =  -555.040473170     A.U. after    8 cycles
 SCF Done:  E(RB3LYP) =  -555.040474134     A.U. after    7 cycles
 Optimization completed.
    -- Stationary point found.
 Normal termination of Gaussian 16 at Tue Dec  8 19:34:12 2020.

 --------------------------------------------------------------------
 #N Geom=AllCheck Guess=TCheck SCRF=Check GenChk RB3LYP/6-31G(d) Freq
 --------------------------------------------------------------------

 Structure from the checkpoint file:  "JID_1205.chk"
 -------------------------------
 CID_146500001_JID_1205_neutraal
 -------------------------------
 Charge =  0 Multiplicity = 1

 SCF Done:  E(RB3LYP) =  -555.040474134     A.U. after    1 cycles

  Exact polarizability: 101.870  -0.765  75.078   0.882  -3.618  76.613
 Approx polarizability: 125.059  -5.782 111.147   1.098 -11.894 116.286

                      1                      2                      3
                      A                      A                      A
 Frequencies --     61.9699                73.8494               111.7892
 Red. masses --      3.7168                 5.2859                 2.7590
 Frc consts  --      0.0084                 0.0170                 0.0203
 IR Inten    --      0.4550                 7.3545                 1.2220

                      4                      5                      6
                      A                      A                      A
 Frequencies --    134.1254               159.2648               208.2267
 Red. masses --      2.6546                 5.6662                 1.5716
 Frc consts  --      0.0281                 0.0847                 0.0401
 IR Inten    --      0.3150                 0.9378                 0.3601

                      7                      8                      9
                      A                      A                      A
 Frequencies --    230.0909               285.3504               324.1069
 Red. masses --      3.2334                 1.9127                 2.8328
 Frc consts  --      0.1009                 0.0918                 0.1753
 IR Inten    --     16.1198                 3.9587                 3.7505

                     10                     11                     12
                      A                      A                      A
 Frequencies --    345.8431               364.7958               396.1676
 Red. masses --      2.7166                 1.3034                 3.1583
 Frc consts  --      0.1914                 0.1022                 0.2920
 IR Inten    --     39.6628               254.2606                 0.9512

                     13                     14                     15
                      A                      A                      A
 Frequencies --    467.5898               515.4838               550.6858
 Red. masses --      2.3561                 1.2466                 2.5723
 Frc consts  --      0.3035                 0.1952                 0.4596
 IR Inten    --      3.3358                 5.4271                17.0394

                     16                     17                     18
                      A                      A                      A
 Frequencies --    625.4159               721.0040               734.0899
 Red. masses --      3.3712                 3.9099                 5.7278
 Frc consts  --      0.7769                 1.1975                 1.8186
 IR Inten    --      4.5954                 5.8670                 6.6552

                     19                     20                     21
                      A                      A                      A
 Frequencies --    770.0393               802.0168               824.5560
 Red. masses --     11.0414                 1.4380                 2.3125
 Frc consts  --      3.8574                 0.5450                 0.9264
 IR Inten    --     25.7018                 3.1757                 3.2694

                     22                     23                     24
                      A                      A                      A
 Frequencies --    873.6956               935.3851               945.8104
 Red. masses --      2.7371                 2.4718                 2.5499
 Frc consts  --      1.2310                 1.2742                 1.3439
 IR Inten    --      5.7843                21.9082                 4.3940

                     25                     26                     27
                      A                      A                      A
 Frequencies --    957.8557              1009.1559              1045.5432
 Red. masses --      2.7051                 1.8978                 1.6566
 Frc consts  --      1.4623                 1.1387                 1.0669
 IR Inten    --     18.5955                 2.6290                 5.9785

                     28                     29                     30
                      A                      A                      A
 Frequencies --   1075.6605              1083.6639              1101.0972
 Red. masses --      2.4676                 2.9022                 2.5096
 Frc consts  --      1.6822                 2.0080                 1.7927
 IR Inten    --      3.6113                62.2021                25.2078

                     31                     32                     33
                      A                      A                      A
 Frequencies --   1130.1067              1143.9273              1153.8376
 Red. masses --      2.0781                 3.7560                 2.3650
 Frc consts  --      1.5637                 2.8958                 1.8551
 IR Inten    --     31.7345                88.6955                28.5208

                     34                     35                     36
                      A                      A                      A
 Frequencies --   1179.0458              1240.7200              1272.0296
 Red. masses --      1.7569                 1.1057                 1.3739
 Frc consts  --      1.4390                 1.0028                 1.3098
 IR Inten    --     19.6632                 5.7422                13.4862

                     37                     38                     39
                      A                      A                      A
 Frequencies --   1290.8358              1311.2583              1342.8973
 Red. masses --      1.2501                 1.2740                 1.3321
 Frc consts  --      1.2273                 1.2906                 1.4153
 IR Inten    --      5.9165                21.5302                 2.2400

                     40                     41                     42
                      A                      A                      A
 Frequencies --   1355.3502              1370.8914              1376.5564
 Red. masses --      1.4028                 1.6824                 1.7867
 Frc consts  --      1.5183                 1.8629                 1.9948
 IR Inten    --     14.8306               120.5110               191.2961

                     43                     44                     45
                      A                      A                      A
 Frequencies --   1396.8026              1418.8716              1449.9639
 Red. masses --      1.3427                 1.5179                 1.3575
 Frc consts  --      1.5434                 1.8005                 1.6815
 IR Inten    --      9.6925                79.0691                33.9957

                     46                     47                     48
                      A                      A                      A
 Frequencies --   1457.3407              1516.0217              1527.4305
 Red. masses --      1.2745                 1.0593                 1.0719
 Frc consts  --      1.5948                 1.4344                 1.4734
 IR Inten    --      7.7763                 0.8256                 1.9135

                     49                     50                     51
                      A                      A                      A
 Frequencies --   1532.2803              1537.7327              1547.4540
 Red. masses --      1.0775                 1.0553                 1.0944
 Frc consts  --      1.4905                 1.4703                 1.5441
 IR Inten    --      5.7299                 1.3592                16.2452

                     52                     53                     54
                      A                      A                      A
 Frequencies --   1639.2820              1829.0387              3029.9633
 Red. masses --      1.2382                 9.3359                 1.0609
 Frc consts  --      1.9605                18.4015                 5.7385
 IR Inten    --    139.6065               335.3787                35.5769

                     55                     56                     57
                      A                      A                      A
 Frequencies --   3050.5306              3055.0562              3062.3643
 Red. masses --      1.0626                 1.0425                 1.0950
 Frc consts  --      5.8262                 5.7326                 6.0501
 IR Inten    --     50.7707                19.9050                14.7123

                     58                     59                     60
                      A                      A                      A
 Frequencies --   3065.7094              3108.1666              3109.6322
 Red. masses --      1.0625                 1.0953                 1.0891
 Frc consts  --      5.8834                 6.2342                 6.2048
 IR Inten    --     44.6283                28.7289                 8.3057

                     61                     62                     63
                      A                      A                      A
 Frequencies --   3113.2561              3120.6744              3129.2930
 Red. masses --      1.1007                 1.1067                 1.0929
 Frc consts  --      6.2856                 6.3499                 6.3054
 IR Inten    --     34.1244                42.0175                40.8661

                     64                     65                     66
                      A                      A                      A
 Frequencies --   3137.3705              3605.5381              3729.1928
 Red. masses --      1.1007                 1.0456                 1.1042
 Frc consts  --      6.3833                 8.0086                 9.0477
 IR Inten    --     33.1400                52.1884                45.5385

 - Thermochemistry -
 -------------------
 Temperature   298.150 Kelvin.  Pressure   1.00000 Atm.
 Atom     1 has atomic number  6 and mass  12.00000

 Molecular mass:   159.08954 amu.
 Principal axes and moments of inertia in atomic units:
                           1         2         3
     Eigenvalues --   880.476652485.873352734.84200
           X            0.99982   0.01816   0.00552
           Y           -0.01820   0.99981   0.00679
           Z           -0.00539  -0.00689   0.99996
 This molecule is an asymmetric top.
 Rotational symmetry number  1.
 Warning -- assumption of classical behavior for rotation
           may cause significant error
 Rotational temperatures (Kelvin)      0.09837     0.03484     0.03167
 Rotational constants (GHZ):           2.04973     0.72600     0.65991
 Zero-point vibrational energy     544724.1 (Joules/Mol)
                                  130.19218 (Kcal/Mol)
 Warning -- explicit consideration of  15 degrees of freedom as
           vibrations may cause significant error
 Vibrational temperatures:     89.16   106.25   160.84   192.98   229.15
          (Kelvin)            299.59   331.05   410.56   466.32   497.59
                              524.86   570.00   672.76   741.67   792.31
                              899.83  1037.36  1056.19  1107.91  1153.92
                             1186.35  1257.05  1345.81  1360.81  1378.14
                             1451.95  1504.30  1547.64  1559.15  1584.23
                             1625.97  1645.86  1660.11  1696.38  1785.12
                             1830.17  1857.22  1886.61  1932.13  1950.05
                             1972.41  1980.56  2009.69  2041.44  2086.17
                             2096.79  2181.22  2197.63  2204.61  2212.45
                             2226.44  2358.56  2631.58  4359.44  4389.03
                             4395.54  4406.06  4410.87  4471.96  4474.07
                             4479.28  4489.95  4502.35  4513.98  5187.57
                             5365.48

 Zero-point correction=                           0.207474 (Hartree/Particle)
 Thermal correction to Energy=                    0.218628
 Thermal correction to Enthalpy=                  0.219572
 Thermal correction to Gibbs Free Energy=         0.170500
 Sum of electronic and zero-point Energies=           -554.833000
 Sum of electronic and thermal Energies=              -554.821846
 Sum of electronic and thermal Enthalpies=            -554.820902
 Sum of electronic and thermal Free Energies=         -554.869975

                     E (Thermal)             CV                S
                      KCal/Mol        Cal/Mol-Kelvin    Cal/Mol-Kelvin
 Total                  137.191             41.670            103.282
 Electronic               0.000              0.000              0.000
 Translational            0.889              2.981             41.102
 Rotational               0.889              2.981             30.172
 Vibrational            135.414             35.708             32.008
 Vibration     1          0.597              1.972              4.393
 Vibration     2          0.599              1.966              4.048
 Vibration     3          0.607              1.940              3.238
 Vibration     4          0.613              1.919              2.886
 Vibration     5          0.621              1.892              2.559
 Vibration     6          0.642              1.828              2.059
 Vibration     7          0.652              1.795              1.878
 Vibration     8          0.683              1.701              1.501
 Vibration     9          0.709              1.627              1.289
 Vibration    10          0.724              1.584              1.185
 Vibration    11          0.738              1.545              1.102
 Vibration    12          0.763              1.478              0.977
 Vibration    13          0.825              1.322              0.744
 Vibration    14          0.871              1.216              0.621
 Vibration    15          0.906              1.138              0.543

                           ! Non-Optimized Parameters !
 Normal termination of Gaussian 16 at Tue Dec  8 19:39:04 2020.

 ----------------------------------------------------------------------
 # B3LYP/6-311++G(d,p) empiricaldispersion=gd3bj scf=xqc pop=npa geom=c
 heck
 ----------------------------------------------------------------------

 ---------------------------------------
 CID_146500001_JID_1205_Energie_neutraal
 ---------------------------------------
 Structure from the checkpoint file:  "JID_1205.chk"
 Charge =  0 Multiplicity = 1

 SCF Done:  E(RB3LYP) =  -555.212211376     A.U. after   14 cycles
 Normal termination of Gaussian 16 at Tue Dec  8 19:40:44 2020.

 ----------------------------------------------------------------------
 # B3LYP/6-311++G(d,p) empiricaldispersion=gd3bj scf=xqc pop=npa geom=c
 heck
 ----------------------------------------------------------------------

 -------------------------------------
 CID_146500001_JID_1205_Energie_kation
 -------------------------------------
 Structure from the checkpoint file:  "JID_1205.chk"
 Charge =  1 Multiplicity = 2

 SCF Done:  E(UB3LYP) =  -554.878894504     A.U. after   25 cycles
 Normal termination of Gaussian 16 at Tue Dec  8 19:44:37 2020.
 Gaussian 16:  ES64L-G16RevA.03 25-Dec-2016

 ----------------------------------------------------------------------
 # B3LYP/6-311++G(d,p) empiricaldispersion=gd3bj scf=xqc pop=npa geom=c
 heck
 ----------------------------------------------------------------------

 ------------------------------------
 CID_146500001_JID_1205_Energie_anion
 ------------------------------------
 Structure from the checkpoint file:  "JID_1205.chk"
 Charge = -1 Multiplicity = 2

                         Standard orientation:
 ---------------------------------------------------------------------
 Center     Atomic      Atomic             Coordinates (Angstroms)
 Number     Number       Type             X           Y           Z
 ---------------------------------------------------------------------
      1          6           0        3.096903    0.917041   -0.364958
      2          6           0        1.989400    1.337198    0.608363
      3          6           0        0.773079    0.394791    0.668701
      4          6           0        1.149305   -1.065449    0.978641
      5          8           0        1.307090   -1.692926   -0.297982
      6          6           0        0.251292   -1.208385   -1.111622
      7          6           0        0.052909    0.269826   -0.699281
      8          8           0       -1.324100    0.706230   -0.733026
      9          6           0       -2.211538    0.150840    0.130334
     10          8           0       -1.964462   -0.714382    0.950196
     11          7           0       -3.435512    0.741353   -0.029899
     12          1           0        3.481053   -0.080694   -0.134264
     13          1           0        3.932778    1.623729   -0.320837
     14          1           0        2.742633    0.893096   -1.401901
     15          1           0        2.411610    1.413366    1.619349
     16          1           0        1.638029    2.345484    0.348662
     17          1           0        0.072784    0.775603    1.416120
     18          1           0        2.099377   -1.169383    1.510373
     19          1           0        0.352245   -1.554139    1.550375
     20          1           0       -0.675925   -1.771155   -0.944350
     21          1           0        0.556896   -1.321054   -2.155697
     22          1           0        0.507974    0.939461   -1.430370
     23          1           0       -3.611819    1.279647   -0.865170
     24          1           0       -4.215369    0.270027    0.402422
 ---------------------------------------------------------------------

 SCF Done:  E(UB3LYP) =  -555.198725535     A.U. after   31 cycles

 The electronic state is 2-A.
 Alpha  occ. eigenvalues --  -19.06037 -19.02663 -18.99307 -14.22156 -10.21732
 Alpha  occ. eigenvalues --  -10.13520 -10.11646 -10.11198 -10.07939 -10.07296
 Alpha  occ. eigenvalues --  -10.06084  -1.00497  -0.94531  -0.91487  -0.80281
 Alpha  occ. eigenvalues --   -0.71163  -0.65430  -0.62809  -0.55731  -0.53119
 Alpha  occ. eigenvalues --   -0.49044  -0.46652  -0.43377  -0.41583  -0.39800
 Alpha  occ. eigenvalues --   -0.37709  -0.36762  -0.35755  -0.34517  -0.33418
 Alpha  occ. eigenvalues --   -0.31924  -0.30800  -0.29406  -0.28480  -0.26790
 Alpha  occ. eigenvalues --   -0.25305  -0.24079  -0.23143  -0.22763  -0.19427
 Alpha  occ. eigenvalues --   -0.18197  -0.17237  -0.15786   0.04605
 Alpha virt. eigenvalues --    0.06265   0.07813   0.08704   0.08976   0.09960
 Alpha virt. eigenvalues --    0.10591   0.11037   0.11693   0.12051   0.13040
 Alpha virt. eigenvalues --    0.13389   0.14237   0.14790   0.15624   0.16347

  Beta  occ. eigenvalues --  -19.06022 -19.02661 -18.99297 -14.22065 -10.21727
  Beta  occ. eigenvalues --  -10.13505 -10.11635 -10.11192 -10.07937 -10.07279
  Beta  occ. eigenvalues --  -10.06058  -1.00473  -0.94525  -0.91464  -0.80164
  Beta  occ. eigenvalues --   -0.71135  -0.65391  -0.62780  -0.55682  -0.53080
  Beta  occ. eigenvalues --   -0.48984  -0.46555  -0.43313  -0.41538  -0.39756
  Beta  occ. eigenvalues --   -0.37684  -0.36721  -0.35726  -0.34489  -0.33385
  Beta  occ. eigenvalues --   -0.31895  -0.30771  -0.29376  -0.28451  -0.26763
  Beta  occ. eigenvalues --   -0.25277  -0.24052  -0.23118  -0.22744  -0.19409
  Beta  occ. eigenvalues --   -0.18172  -0.17165  -0.15775
  Beta virt. eigenvalues --    0.06854   0.08075   0.08292   0.09010   0.09690
  Beta virt. eigenvalues --    0.10540   0.11095   0.11429   0.12109   0.12488
  Beta virt. eigenvalues --    0.13374   0.13543   0.14440   0.14898   0.15764

 Mulliken charges and spin densities:
               1          2
     1  C    0.438307  -0.958885
     2  C   -0.119624  -0.407598
     3  C    0.190079   0.680964
     4  C   -0.268994  -0.468831
     5  O   -0.125707   0.025508
     6  C    0.703313  -0.841419
     7  C   -0.393902  -0.287216
     8  O    0.016038  -0.057229
     9  C    1.178424  -1.175768
    10  O   -0.273801  -0.034710
    11  N   -0.525937   0.206392
    12  H    0.048320   0.115049
    13  H   -0.458971   0.603487
    14  H    0.046477   0.088680
    15  H   -0.060551   0.196853
    16  H   -0.161986   0.322262
    17  H   -0.045500   0.299035
    18  H    0.109375   0.054602
    19  H    0.232246  -0.042891
    20  H    0.045238   0.145278
    21  H   -0.029360   0.199482
    22  H   -0.519848   0.754455
    23  H   -0.510887   0.787689
    24  H   -0.512748   0.794809
 Sum of Mulliken charges =  -1.00000   1.00000

 Dipole moment (field-independent basis, Debye):
    X=              5.2359    Y=             -3.4114    Z=              1.9898  Tot=              6.5583
 Quadrupole moment (field-independent basis, Debye-Ang):
   XX=           -150.8459   YY=           -102.6159   ZZ=            -94.3200
   XY=              1.9177   XZ=             -0.5644   YZ=              4.8783

 Summary of Natural Population Analysis:

                                       Natural Population
                Natural  -----------------------------------------------
    Atom  No    Charge         Core      Valence    Rydberg      Total
 -----------------------------------------------------------------------
      C    1   -0.29078      0.99966     2.28489    0.00623     3.29078
      C    2   -0.18666      0.99963     2.17775    0.00929     3.18666
      C    3   -0.13680      0.99957     2.12601    0.01122     3.13680
      C    4   -0.01247      0.99957     2.00186    0.01104     3.01247
      O    5   -0.30114      0.99990     3.29292    0.00833     4.30114
      C    6   -0.02244      0.99957     2.00942    0.01345     3.02244
      C    7    0.05836      0.99950     1.92709    0.01505     2.94164
      O    8   -0.28929      0.99986     3.27872    0.01071     4.28929
      C    9    0.45708      0.99972     1.51648    0.02672     2.54292
      O   10   -0.33851      0.99987     3.33281    0.00583     4.33851
      N   11   -0.40320      0.99971     2.89502    0.00846     3.90320
      H   12    0.09976      0.00000     0.39903    0.00121     0.40024
      H   13    0.09940      0.00000     0.39941    0.00118     0.40060
      H   14    0.09641      0.00000     0.40229    0.00131     0.40359
      H   15    0.09464      0.00000     0.40435    0.00101     0.40536
      H   16    0.09881      0.00000     0.39989    0.00130     0.40119
      H   17    0.11368      0.00000     0.38513    0.00119     0.38632
      H   18    0.08655      0.00000     0.41227    0.00118     0.41345
      H   19    0.09406      0.00000     0.40460    0.00135     0.40594
      H   20    0.09003      0.00000     0.40851    0.00146     0.40997
      H   21    0.09027      0.00000     0.40847    0.00126     0.40973
      H   22    0.09917      0.00000     0.39906    0.00177     0.40083
      H   23    0.20323      0.00000     0.27744    0.01933     0.29677
      H   24    0.19984      0.00000     0.29223    0.00793     0.30016
 =======================================================================
   * Total *   -0.00000     10.99656    31.83563    0.16781    43.00000

 Normal termination of Gaussian 16 at Tue Dec  8 19:49:55 2020.
