 Gaussian 16, Revision A.03,

 -----------------------------------------------------------
 # opt freq B3LYP/6-31G(d) empiricaldispersion=gd3bj scf=xqc
 -----------------------------------------------------------

 ------------------------------
 CID_61713390_JID_2883_neutraal
 ------------------------------
 Symbolic Z-matrix:
 Charge =  0 Multiplicity = 1

 SCF Done:  E(RB3LYP) =  -927.067737519     A.U. after   16 cycles
 SCF Done:  E(RB3LYP) =  -927.070775267     A.U. after   14 cycles
 SCF Done:  E(RB3LYP) =  -927.076303155     A.U. after   15 cycles
 SCF Done:  E(RB3LYP) =  -927.076876404     A.U. after   13 cycles
 SCF Done:  E(RB3LYP) =  -927.079161545     A.U. after   13 cycles
 SCF Done:  E(RB3LYP) =  -927.079273752     A.U. after   13 cycles
 SCF Done:  E(RB3LYP) =  -927.079939536     A.U. after   12 cycles
 SCF Done:  E(RB3LYP) =  -927.080248224     A.U. after   12 cycles
 SCF Done:  E(RB3LYP) =  -927.080739138     A.U. after   14 cycles
 SCF Done:  E(RB3LYP) =  -927.081480692     A.U. after   12 cycles
 SCF Done:  E(RB3LYP) =  -927.083268319     A.U. after    9 cycles
 SCF Done:  E(RB3LYP) =  -927.083269269     A.U. after    8 cycles
 SCF Done:  E(RB3LYP) =  -927.083270087     A.U. after    9 cycles
 SCF Done:  E(RB3LYP) =  -927.083270599     A.U. after    9 cycles
 SCF Done:  E(RB3LYP) =  -927.083270683     A.U. after    8 cycles
 Optimization completed.
    -- Stationary point found.
 Normal termination of Gaussian 16 at Wed Dec  9 18:14:48 2020.

 --------------------------------------------------------------------
 #N Geom=AllCheck Guess=TCheck SCRF=Check GenChk RB3LYP/6-31G(d) Freq
 --------------------------------------------------------------------

 Structure from the checkpoint file:  "JID_2883.chk"
 ------------------------------
 CID_61713390_JID_2883_neutraal
 ------------------------------
 Charge =  0 Multiplicity = 1

 SCF Done:  E(RB3LYP) =  -927.083270683     A.U. after    1 cycles

  Exact polarizability: 141.064   7.922 121.079  -4.696   3.826  63.370
 Approx polarizability: 203.882   8.167 214.465  -8.995   9.512  98.515

                      1                      2                      3
                      A                      A                      A
 Frequencies --     22.2686                31.0427                82.6856
 Red. masses --      4.0027                 9.0064                 6.6651
 Frc consts  --      0.0012                 0.0051                 0.0268
 IR Inten    --      0.3197                 3.1690                 0.8838

                      4                      5                      6
                      A                      A                      A
 Frequencies --    108.1456               136.9465               169.3461
 Red. masses --      3.2275                 2.8735                 3.5241
 Frc consts  --      0.0222                 0.0318                 0.0595
 IR Inten    --      0.2078                 0.8471                 4.9668

                      7                      8                      9
                      A                      A                      A
 Frequencies --    189.5478               229.1587               281.5909
 Red. masses --      4.8137                 1.3349                 5.6927
 Frc consts  --      0.1019                 0.0413                 0.2660
 IR Inten    --      0.5531                 1.8745                 2.2451

                     10                     11                     12
                      A                      A                      A
 Frequencies --    314.0317               333.6311               399.5302
 Red. masses --      4.6729                 1.9111                 5.3091
 Frc consts  --      0.2715                 0.1253                 0.4993
 IR Inten    --      4.7989                 3.7548                 4.1958

                     13                     14                     15
                      A                      A                      A
 Frequencies --    465.3361               533.2373               541.2985
 Red. masses --      3.3185                 3.1143                 3.5283
 Frc consts  --      0.4234                 0.5217                 0.6091
 IR Inten    --      4.6559                27.1430                35.4495

                     16                     17                     18
                      A                      A                      A
 Frequencies --    596.3358               616.4496               624.8051
 Red. masses --      2.5021                 9.1279                 3.5182
 Frc consts  --      0.5243                 2.0437                 0.8092
 IR Inten    --     26.9618                 1.0947                 9.6337

                     19                     20                     21
                      A                      A                      A
 Frequencies --    704.3661               726.6925               776.5457
 Red. masses --      3.7316                 7.7913                 1.4053
 Frc consts  --      1.0908                 2.4242                 0.4993
 IR Inten    --     32.7945                 6.8945                99.0821

                     22                     23                     24
                      A                      A                      A
 Frequencies --    787.0903               829.7227               849.4865
 Red. masses --      1.2023                 1.8837                 3.5537
 Frc consts  --      0.4389                 0.7641                 1.5109
 IR Inten    --     11.5384                39.1966                16.8678

                     25                     26                     27
                      A                      A                      A
 Frequencies --    897.5290               909.9071               967.0283
 Red. masses --      4.9456                 3.4286                 2.7588
 Frc consts  --      2.3473                 1.6725                 1.5200
 IR Inten    --     28.0102                14.4581                17.7126

                     28                     29                     30
                      A                      A                      A
 Frequencies --    981.8168              1031.2030              1088.5351
 Red. masses --      3.7680                 1.5568                 3.5248
 Frc consts  --      2.1401                 0.9754                 2.4608
 IR Inten    --     43.2181                21.6976                24.0563

                     31                     32                     33
                      A                      A                      A
 Frequencies --   1137.4500              1164.0072              1184.7935
 Red. masses --      1.8336                 1.5824                 2.8626
 Frc consts  --      1.3977                 1.2632                 2.3675
 IR Inten    --     75.1698                 5.1021                39.2468

                     34                     35                     36
                      A                      A                      A
 Frequencies --   1200.3500              1260.7371              1269.5928
 Red. masses --      2.6504                 1.8287                 1.5055
 Frc consts  --      2.2500                 1.7125                 1.4297
 IR Inten    --     96.8924                82.6142                50.1635

                     37                     38                     39
                      A                      A                      A
 Frequencies --   1304.3760              1327.5695              1349.8637
 Red. masses --      1.3760                 2.0092                 1.1547
 Frc consts  --      1.3793                 2.0864                 1.2396
 IR Inten    --     29.8866               275.9572                 8.0014

                     40                     41                     42
                      A                      A                      A
 Frequencies --   1415.3475              1481.9388              1499.2213
 Red. masses --      1.2004                 1.1567                 6.6070
 Frc consts  --      1.4168                 1.4967                 8.7495
 IR Inten    --     23.3242                 0.4251                 4.7367

                     43                     44                     45
                      A                      A                      A
 Frequencies --   1503.8948              1510.7523              1513.4280
 Red. masses --      1.1782                 1.7034                 1.1023
 Frc consts  --      1.5700                 2.2906                 1.4875
 IR Inten    --     12.2613               103.2380                 5.3664

                     46                     47                     48
                      A                      A                      A
 Frequencies --   1517.4958              1523.4823              1549.7846
 Red. masses --      1.2310                 1.0648                 1.0632
 Frc consts  --      1.6702                 1.4561                 1.5046
 IR Inten    --     25.9141                10.2781                22.8260

                     49                     50                     51
                      A                      A                      A
 Frequencies --   1560.5038              1811.8328              2964.6420
 Red. masses --      7.8514                 8.4599                 1.0594
 Frc consts  --     11.2649                16.3626                 5.4860
 IR Inten    --    287.1737               365.9397                80.1519

                     52                     53                     54
                      A                      A                      A
 Frequencies --   3060.6606              3070.8042              3099.5328
 Red. masses --      1.0641                 1.0746                 1.0595
 Frc consts  --      5.8731                 5.9703                 5.9973
 IR Inten    --     26.8681                54.5207                 6.2633

                     55                     56                     57
                      A                      A                      A
 Frequencies --   3116.3814              3119.5271              3157.6105
 Red. masses --      1.0995                 1.1018                 1.1073
 Frc consts  --      6.2913                 6.3172                 6.5045
 IR Inten    --     25.9316                29.8686                12.6516

                     58                     59                     60
                      A                      A                      A
 Frequencies --   3269.1671              3502.6775              3597.4362
 Red. masses --      1.0951                 1.0739                 1.0768
 Frc consts  --      6.8960                 7.7628                 8.2105
 IR Inten    --      1.3280                 1.3368                47.9762

 - Thermochemistry -
 -------------------
 Temperature   298.150 Kelvin.  Pressure   1.00000 Atm.
 Atom     1 has atomic number  6 and mass  12.00000

 Molecular mass:   186.05753 amu.
 Principal axes and moments of inertia in atomic units:
                           1         2         3
     Eigenvalues --  1489.413333403.695744705.46664
           X            0.99968  -0.02490  -0.00503
           Y            0.02493   0.99967   0.00630
           Z            0.00487  -0.00642   0.99997
 This molecule is an asymmetric top.
 Rotational symmetry number  1.
 Warning -- assumption of classical behavior for rotation
           may cause significant error
 Rotational temperatures (Kelvin)      0.05815     0.02545     0.01841
 Rotational constants (GHZ):           1.21171     0.53023     0.38354
 Zero-point vibrational energy     456196.9 (Joules/Mol)
                                  109.03369 (Kcal/Mol)
 Warning -- explicit consideration of  17 degrees of freedom as
           vibrations may cause significant error
 Vibrational temperatures:     32.04    44.66   118.97   155.60   197.04
          (Kelvin)            243.65   272.72   329.71   405.15   451.82
                              480.02   574.83   669.51   767.21   778.81
                              857.99   886.93   898.96  1013.43  1045.55
                             1117.28  1132.45  1193.79  1222.22  1291.34
                             1309.15  1391.34  1412.62  1483.67  1566.16
                             1636.54  1674.75  1704.65  1727.04  1813.92
                             1826.66  1876.71  1910.08  1942.15  2036.37
                             2132.18  2157.05  2163.77  2173.64  2177.49
                             2183.34  2191.95  2229.79  2245.22  2606.82
                             4265.46  4403.61  4418.20  4459.54  4483.78
                             4488.30  4543.10  4703.60  5039.57  5175.91

 Zero-point correction=                           0.173756 (Hartree/Particle)
 Thermal correction to Energy=                    0.185803
 Thermal correction to Enthalpy=                  0.186747
 Thermal correction to Gibbs Free Energy=         0.133279
 Sum of electronic and zero-point Energies=           -926.909514
 Sum of electronic and thermal Energies=              -926.897467
 Sum of electronic and thermal Enthalpies=            -926.896523
 Sum of electronic and thermal Free Energies=         -926.949991

                     E (Thermal)             CV                S
                      KCal/Mol        Cal/Mol-Kelvin    Cal/Mol-Kelvin
 Total                  116.593             43.367            112.533
 Electronic               0.000              0.000              0.000
 Translational            0.889              2.981             41.569
 Rotational               0.889              2.981             31.545
 Vibrational            114.816             37.405             39.419
 Vibration     1          0.593              1.985              6.421
 Vibration     2          0.594              1.983              5.762
 Vibration     3          0.600              1.961              3.826
 Vibration     4          0.606              1.943              3.302
 Vibration     5          0.614              1.916              2.846
 Vibration     6          0.625              1.880              2.443
 Vibration     7          0.633              1.854              2.232
 Vibration     8          0.652              1.796              1.886
 Vibration     9          0.681              1.708              1.524
 Vibration    10          0.702              1.647              1.341
 Vibration    11          0.715              1.608              1.242
 Vibration    12          0.766              1.471              0.964
 Vibration    13          0.823              1.327              0.751
 Vibration    14          0.888              1.176              0.580
 Vibration    15          0.896              1.159              0.562
 Vibration    16          0.954              1.040              0.456
 Vibration    17          0.976              0.997              0.422

                           ! Non-Optimized Parameters !
 Normal termination of Gaussian 16 at Wed Dec  9 18:19:10 2020.

 ----------------------------------------------------------------------
 # B3LYP/6-311++G(d,p) empiricaldispersion=gd3bj scf=xqc pop=npa geom=c
 heck
 ----------------------------------------------------------------------

 --------------------------------------
 CID_61713390_JID_2883_Energie_neutraal
 --------------------------------------
 Structure from the checkpoint file:  "JID_2883.chk"
 Charge =  0 Multiplicity = 1

 SCF Done:  E(RB3LYP) =  -927.265653874     A.U. after   16 cycles
 Normal termination of Gaussian 16 at Wed Dec  9 18:21:27 2020.

 ----------------------------------------------------------------------
 # B3LYP/6-311++G(d,p) empiricaldispersion=gd3bj scf=xqc pop=npa geom=c
 heck
 ----------------------------------------------------------------------

 ------------------------------------
 CID_61713390_JID_2883_Energie_kation
 ------------------------------------
 Structure from the checkpoint file:  "JID_2883.chk"
 Charge =  1 Multiplicity = 2

 SCF Done:  E(UB3LYP) =  -926.960161578     A.U. after   26 cycles
 Normal termination of Gaussian 16 at Wed Dec  9 18:26:31 2020.
 Gaussian 16:  ES64L-G16RevA.03 25-Dec-2016

 ----------------------------------------------------------------------
 # B3LYP/6-311++G(d,p) empiricaldispersion=gd3bj scf=xqc pop=npa geom=c
 heck
 ----------------------------------------------------------------------

 -----------------------------------
 CID_61713390_JID_2883_Energie_anion
 -----------------------------------
 Structure from the checkpoint file:  "JID_2883.chk"
 Charge = -1 Multiplicity = 2

                         Standard orientation:
 ---------------------------------------------------------------------
 Center     Atomic      Atomic             Coordinates (Angstroms)
 Number     Number       Type             X           Y           Z
 ---------------------------------------------------------------------
      1          6           0        3.772981   -1.517492   -0.337001
      2          7           0        2.613269   -1.434165    0.540151
      3          6           0        2.119705   -0.091434    0.768856
      4          6           0        1.697117    0.692631   -0.517667
      5          6           0        0.745913    1.802113   -0.178485
      6          8           0        1.053136    2.972424   -0.050648
      7          7           0       -0.608147    1.462863    0.060495
      8          6           0       -1.268119    0.258544   -0.014822
      9          7           0       -0.718089   -0.916121   -0.180600
     10          7           0       -1.637087   -1.932948   -0.220866
     11          6           0       -2.856942   -1.525566   -0.075911
     12         16           0       -3.028925    0.208551    0.118395
     13          1           0        4.604495   -0.961502    0.112869
     14          1           0        3.619336   -1.120344   -1.356744
     15          1           0        4.082029   -2.563772   -0.427368
     16          1           0        1.848477   -1.996049    0.170648
     17          1           0        1.261278   -0.171276    1.441320
     18          1           0        2.889644    0.489553    1.290832
     19          1           0        2.563277    1.153249   -0.996831
     20          1           0        1.227339   -0.010117   -1.209376
     21          1           0       -1.158574    2.281455    0.290622
     22          1           0       -3.713139   -2.187572   -0.069192
 ---------------------------------------------------------------------

 SCF Done:  E(UB3LYP) =  -927.265298002     A.U. after   33 cycles
 SCF Done:  E(UB3LYP) =  -927.265298002     a.u. after    1 cycles

 The electronic state is 2-A.
 Alpha  occ. eigenvalues --  -88.73609 -18.95601 -14.22652 -14.19145 -14.18085
 Alpha  occ. eigenvalues --  -14.17949 -10.13367 -10.11045 -10.07912 -10.07380
 Alpha  occ. eigenvalues --  -10.07087 -10.04555  -7.82304  -5.78583  -5.78282
 Alpha  occ. eigenvalues --   -5.77883  -0.91508  -0.88036  -0.80502  -0.78867
 Alpha  occ. eigenvalues --   -0.66898  -0.65420  -0.63725  -0.57122  -0.50778
 Alpha  occ. eigenvalues --   -0.49311  -0.47591  -0.41827  -0.38720  -0.37775
 Alpha  occ. eigenvalues --   -0.36032  -0.32980  -0.32020  -0.31266  -0.30359
 Alpha  occ. eigenvalues --   -0.29178  -0.27930  -0.27814  -0.27530  -0.25544
 Alpha  occ. eigenvalues --   -0.24138  -0.22613  -0.19807  -0.16348  -0.15441
 Alpha  occ. eigenvalues --   -0.13819  -0.12364  -0.10843  -0.10258   0.05654
 Alpha virt. eigenvalues --    0.07415   0.09304   0.09701   0.10173   0.10554
 Alpha virt. eigenvalues --    0.11974   0.12393   0.12793   0.13377   0.13641
 Alpha virt. eigenvalues --    0.14341   0.14610   0.15441   0.15973   0.16616

  Beta  occ. eigenvalues --  -88.73552 -18.95314 -14.22764 -14.19109 -14.18057
  Beta  occ. eigenvalues --  -14.17938 -10.13110 -10.10552 -10.07897 -10.07348
  Beta  occ. eigenvalues --  -10.06684 -10.04575  -7.82253  -5.78566  -5.78265
  Beta  occ. eigenvalues --   -5.77678  -0.91029  -0.87702  -0.80312  -0.78841
  Beta  occ. eigenvalues --   -0.66525  -0.65033  -0.63594  -0.57040  -0.50448
  Beta  occ. eigenvalues --   -0.48964  -0.47273  -0.41555  -0.38472  -0.37658
  Beta  occ. eigenvalues --   -0.35853  -0.32691  -0.31761  -0.30676  -0.30102
  Beta  occ. eigenvalues --   -0.28721  -0.27644  -0.27265  -0.27184  -0.25254
  Beta  occ. eigenvalues --   -0.23860  -0.22538  -0.18458  -0.16245  -0.14397
  Beta  occ. eigenvalues --   -0.13610  -0.12160  -0.10661  -0.09158
  Beta virt. eigenvalues --    0.07660   0.09273   0.09719   0.10333   0.10565
  Beta virt. eigenvalues --    0.11620   0.12007   0.12898   0.13336   0.13601
  Beta virt. eigenvalues --    0.14055   0.14301   0.14638   0.15492   0.16053

 Mulliken charges and spin densities:
               1          2
     1  C    0.115273  -0.487601
     2  N   -0.167885   0.041788
     3  C   -0.586483   0.066604
     4  C    0.089439  -0.203506
     5  C   -0.169246   0.211218
     6  O   -0.396795   0.095797
     7  N   -0.092607  -0.035174
     8  C   -0.088761   0.210592
     9  N   -0.196637   0.015294
    10  N    0.061571  -0.003289
    11  C   -0.369380   0.271799
    12  S   -0.336465   0.133929
    13  H   -0.076154   0.210781
    14  H    0.000592   0.114964
    15  H   -0.032415   0.155511
    16  H    0.245946   0.004145
    17  H    0.132995   0.076421
    18  H    0.117137   0.027769
    19  H    0.100424   0.091338
    20  H    0.231644  -0.030879
    21  H    0.247324   0.052273
    22  H    0.170483  -0.019775
 Sum of Mulliken charges =  -1.00000   1.00000

 Dipole moment (field-independent basis, Debye):
    X=             -1.5003    Y=              0.0653    Z=             -0.3013  Tot=              1.5317
 Quadrupole moment (field-independent basis, Debye-Ang):
   XX=           -115.4793   YY=           -114.3198   ZZ=            -90.2285
   XY=             -3.6056   XZ=             -1.5536   YZ=              1.0359

 Summary of Natural Population Analysis:

                                       Natural Population
                Natural  -----------------------------------------------
    Atom  No    Charge         Core      Valence    Rydberg      Total
 -----------------------------------------------------------------------
      C    1   -0.17953      0.99967     2.17255    0.00731     3.17953
      N    2   -0.34149      0.99975     2.82794    0.01380     3.84149
      C    3   -0.07741      0.99963     2.06679    0.01099     3.07741
      C    4   -0.25282      0.99959     2.24586    0.00738     3.25282
      C    5    0.38234      0.99969     1.59469    0.02328     2.61766
      O    6   -0.29658      0.99987     3.29058    0.00613     4.29658
      N    7   -0.33748      0.99963     2.82729    0.01056     3.83748
      C    8    0.19593      0.99963     1.78521    0.01922     2.80407
      N    9   -0.20062      0.99962     2.68639    0.01461     3.70062
      N   10   -0.14992      0.99967     2.63510    0.01514     3.64992
      C   11   -0.00580      0.99968     1.99003    0.01610     3.00580
      S   12    0.13599      4.99949     2.84410    0.02042     7.86401
      H   13    0.08739      0.00000     0.41112    0.00149     0.41261
      H   14    0.07705      0.00000     0.42085    0.00210     0.42295
      H   15    0.09052      0.00000     0.40817    0.00131     0.40948
      H   16    0.17876      0.00000     0.31638    0.00486     0.32124
      H   17    0.10203      0.00000     0.39649    0.00148     0.39797
      H   18    0.08571      0.00000     0.41302    0.00128     0.41429
      H   19    0.10295      0.00000     0.39549    0.00156     0.39705
      H   20    0.11771      0.00000     0.38034    0.00195     0.38229
      H   21    0.19697      0.00000     0.29997    0.00307     0.30303
      H   22    0.08830      0.00000     0.41040    0.00129     0.41170
 =======================================================================
   * Total *   -0.00000     15.99592    32.81875    0.18533    49.00000

 Normal termination of Gaussian 16 at Wed Dec  9 18:32:35 2020.
