 Gaussian 16, Revision A.03,

 -----------------------------------------------------------
 # opt freq B3LYP/6-31G(d) empiricaldispersion=gd3bj scf=xqc
 -----------------------------------------------------------

 ------------------------------
 CID_123678063_JID_790_neutraal
 ------------------------------
 Symbolic Z-matrix:
 Charge =  0 Multiplicity = 1

 SCF Done:  E(RB3LYP) =  -426.415926296     A.U. after   12 cycles
 SCF Done:  E(RB3LYP) =  -426.419955799     A.U. after   11 cycles
 SCF Done:  E(RB3LYP) =  -426.419783081     A.U. after   11 cycles
 SCF Done:  E(RB3LYP) =  -426.420312340     A.U. after   11 cycles
 SCF Done:  E(RB3LYP) =  -426.421552462     A.U. after   11 cycles
 SCF Done:  E(RB3LYP) =  -426.421714300     A.U. after   10 cycles
 SCF Done:  E(RB3LYP) =  -426.421748932     A.U. after   10 cycles
 SCF Done:  E(RB3LYP) =  -426.421765559     A.U. after    9 cycles
 SCF Done:  E(RB3LYP) =  -426.421771999     A.U. after    9 cycles
 SCF Done:  E(RB3LYP) =  -426.421776328     A.U. after    7 cycles
 SCF Done:  E(RB3LYP) =  -426.421778807     A.U. after    8 cycles
 SCF Done:  E(RB3LYP) =  -426.421779753     A.U. after    7 cycles
 SCF Done:  E(RB3LYP) =  -426.421779980     A.U. after    7 cycles
 SCF Done:  E(RB3LYP) =  -426.421780026     A.U. after    6 cycles
 Optimization completed.
    -- Stationary point found.

 1\1\GINC-NODE116\FOpt\RB3LYP\6-31G(d)\C8H20N2\VSC10255\08-Dec-2020\0\\
 # opt freq B3LYP/6-31G(d) empiricaldispersion=gd3bj scf=xqc\\CID_12367
 8063_JID_790_neutraal\\0,1\C,0.9312526624,-0.1107876522,0.0393043222\C
 ,0.9834635921,0.1451856798,-1.471333208\C,1.129966832,-1.0570355726,-2
 .4354268675\C,0.2578417938,-2.2707963496,-2.0003491563\C,-1.2551479711
 ,-2.0311847346,-1.9698978065\N,0.7039057115,-0.5107802653,-3.750369432
 7\C,0.9233150214,-1.3589728745,-4.9149661507\N,2.5327913882,-1.4623759
 602,-2.6078887993\C,3.5116104328,-1.4533167703,-1.5271751271\C,3.45169

 Normal termination of Gaussian 16 at Tue Dec  8 12:43:25 2020.

 --------------------------------------------------------------------
 #N Geom=AllCheck Guess=TCheck SCRF=Check GenChk RB3LYP/6-31G(d) Freq
 --------------------------------------------------------------------

 Structure from the checkpoint file:  "JID_790.chk"
 ------------------------------
 CID_123678063_JID_790_neutraal
 ------------------------------
 Charge =  0 Multiplicity = 1

 SCF Done:  E(RB3LYP) =  -426.421780026     A.U. after    1 cycles

  Exact polarizability: 110.081   0.346  99.430  -0.973  -1.859  88.785
 Approx polarizability: 140.647  -0.199 134.820  -0.240  -3.480 128.346

                      1                      2                      3
                      A                      A                      A
 Frequencies --     69.6658                85.4727               104.5757
 Red. masses --      2.7805                 2.0440                 2.0894
 Frc consts  --      0.0080                 0.0088                 0.0135
 IR Inten    --      0.6115                 0.8370                 0.4759

                      4                      5                      6
                      A                      A                      A
 Frequencies --    148.1268               182.1168               193.0763
 Red. masses --      2.0322                 1.8284                 1.7348
 Frc consts  --      0.0263                 0.0357                 0.0381
 IR Inten    --      0.2781                 0.0688                 0.4013

                      7                      8                      9
                      A                      A                      A
 Frequencies --    212.8802               227.7827               247.9084
 Red. masses --      1.4226                 1.1954                 1.2178
 Frc consts  --      0.0380                 0.0365                 0.0441
 IR Inten    --      0.1694                 0.1249                 0.6498

                     10                     11                     12
                      A                      A                      A
 Frequencies --    264.9695               292.3856               315.2309
 Red. masses --      1.6839                 2.3608                 1.8322
 Frc consts  --      0.0697                 0.1189                 0.1073
 IR Inten    --      1.1567                 0.6902                 0.7232

                     13                     14                     15
                      A                      A                      A
 Frequencies --    321.2351               355.7700               391.0285
 Red. masses --      2.0796                 2.0794                 2.8767
 Frc consts  --      0.1264                 0.1551                 0.2592
 IR Inten    --      1.5389                 5.0877                 3.5824

                     16                     17                     18
                      A                      A                      A
 Frequencies --    420.0316               461.6538               505.9696
 Red. masses --      3.1403                 2.4419                 2.5675
 Frc consts  --      0.3264                 0.3066                 0.3873
 IR Inten    --      0.7481                 5.4638                24.9984

                     19                     20                     21
                      A                      A                      A
 Frequencies --    566.4139               659.0856               719.7207
 Red. masses --      2.5379                 2.3728                 1.6452
 Frc consts  --      0.4797                 0.6073                 0.5021
 IR Inten    --      6.9669                23.3165                21.8644

                     22                     23                     24
                      A                      A                      A
 Frequencies --    764.1576               781.4038               803.4593
 Red. masses --      1.3181                 1.1926                 1.2884
 Frc consts  --      0.4535                 0.4290                 0.4900
 IR Inten    --      9.8693                40.6200                39.8782

                     25                     26                     27
                      A                      A                      A
 Frequencies --    832.7889               904.9025               938.9221
 Red. masses --      1.2792                 1.9791                 1.6743
 Frc consts  --      0.5227                 0.9548                 0.8697
 IR Inten    --     43.9145                12.4830                29.7709

                     28                     29                     30
                      A                      A                      A
 Frequencies --    951.3606              1001.1276              1030.3783
 Red. masses --      1.9122                 1.9382                 1.9104
 Frc consts  --      1.0197                 1.1446                 1.1950
 IR Inten    --      2.4772                11.7744                 0.9443

                     31                     32                     33
                      A                      A                      A
 Frequencies --   1054.4637              1086.6345              1088.0797
 Red. masses --      2.3033                 1.7876                 2.0687
 Frc consts  --      1.5089                 1.2437                 1.4430
 IR Inten    --      1.0991                 7.4087                 8.7532

                     34                     35                     36
                      A                      A                      A
 Frequencies --   1105.0423              1141.2414              1152.9349
 Red. masses --      1.8097                 1.7548                 1.9620
 Frc consts  --      1.3020                 1.3466                 1.5366
 IR Inten    --      2.0229                 2.7942                 6.6386

                     37                     38                     39
                      A                      A                      A
 Frequencies --   1168.5899              1187.9770              1190.4429
 Red. masses --      1.6140                 2.5515                 2.1536
 Frc consts  --      1.2986                 2.1216                 1.7982
 IR Inten    --      2.0985                86.6529                17.3384

                     40                     41                     42
                      A                      A                      A
 Frequencies --   1227.4602              1270.5718              1318.1778
 Red. masses --      2.5577                 2.2077                 1.1939
 Frc consts  --      2.2705                 2.0999                 1.2223
 IR Inten    --     64.6229                 8.9858                 7.4131

                     43                     44                     45
                      A                      A                      A
 Frequencies --   1327.8192              1350.6894              1383.8027
 Red. masses --      1.1948                 1.2781                 1.3907
 Frc consts  --      1.2412                 1.3738                 1.5690
 IR Inten    --      4.9410                 3.3816                 9.5807

                     46                     47                     48
                      A                      A                      A
 Frequencies --   1404.6640              1407.2110              1434.0715
 Red. masses --      1.4585                 1.2631                 1.2465
 Frc consts  --      1.6955                 1.4737                 1.5104
 IR Inten    --      0.5641                 8.7298                 9.6534

                     49                     50                     51
                      A                      A                      A
 Frequencies --   1438.9541              1447.5193              1470.3748
 Red. masses --      1.2386                 1.2296                 1.1871
 Frc consts  --      1.5111                 1.5179                 1.5122
 IR Inten    --      5.3590                 3.7579                 1.0572

                     52                     53                     54
                      A                      A                      A
 Frequencies --   1502.0882              1507.7686              1516.9963
 Red. masses --      1.1222                 1.0972                 1.1309
 Frc consts  --      1.4917                 1.4696                 1.5333
 IR Inten    --      5.3166                 6.9186                 2.5397

                     55                     56                     57
                      A                      A                      A
 Frequencies --   1518.5750              1522.2107              1529.1699
 Red. masses --      1.0568                 1.0603                 1.0611
 Frc consts  --      1.4359                 1.4475                 1.4618
 IR Inten    --      3.5005                 3.7908                 3.9384

                     58                     59                     60
                      A                      A                      A
 Frequencies --   1531.8050              1535.7898              1538.1355
 Red. masses --      1.0565                 1.0454                 1.0653
 Frc consts  --      1.4606                 1.4527                 1.4850
 IR Inten    --      7.7122                 7.3547                 2.8154

                     61                     62                     63
                      A                      A                      A
 Frequencies --   1541.0943              1547.9779              1551.3842
 Red. masses --      1.0461                 1.1316                 1.0687
 Frc consts  --      1.4638                 1.5976                 1.5155
 IR Inten    --      2.5263                31.1460                 8.0104

                     64                     65                     66
                      A                      A                      A
 Frequencies --   1562.1284              2944.9457              3031.9203
 Red. masses --      1.1275                 1.0625                 1.0734
 Frc consts  --      1.6210                 5.4292                 5.8139
 IR Inten    --      8.1171                81.7444                53.9703

                     67                     68                     69
                      A                      A                      A
 Frequencies --   3040.7216              3042.8241              3049.4360
 Red. masses --      1.0588                 1.0488                 1.0376
 Frc consts  --      5.7678                 5.7214                 5.6851
 IR Inten    --     11.9444                49.0039                17.6358

                     70                     71                     72
                      A                      A                      A
 Frequencies --   3056.1714              3063.1550              3088.9705
 Red. masses --      1.0623                 1.0422                 1.0728
 Frc consts  --      5.8461                 5.7615                 6.0314
 IR Inten    --     28.4463                19.5424                55.0295

                     73                     74                     75
                      A                      A                      A
 Frequencies --   3090.7046              3096.0461              3097.5645
 Red. masses --      1.0922                 1.0980                 1.0998
 Frc consts  --      6.1473                 6.2013                 6.2172
 IR Inten    --      5.7246                24.8894                13.6593

                     76                     77                     78
                      A                      A                      A
 Frequencies --   3114.3413              3115.8229              3120.6871
 Red. masses --      1.1006                 1.1012                 1.0993
 Frc consts  --      6.2893                 6.2990                 6.3079
 IR Inten    --     34.2930                68.2878                16.6018

                     79                     80                     81
                      A                      A                      A
 Frequencies --   3122.5584              3133.6473              3135.0054
 Red. masses --      1.0908                 1.0998                 1.1016
 Frc consts  --      6.2663                 6.3633                 6.3787
 IR Inten    --     41.9812                66.2164                23.9922

                     82                     83                     84
                      A                      A                      A
 Frequencies --   3153.3533              3504.2570              3506.5524
 Red. masses --      1.0975                 1.0731                 1.0730
 Frc consts  --      6.4299                 7.7640                 7.7732
 IR Inten    --     22.7216                 3.7403                 1.0451

 - Thermochemistry -
 -------------------
 Temperature   298.150 Kelvin.  Pressure   1.00000 Atm.
 Atom     1 has atomic number  6 and mass  12.00000

 Molecular mass:   144.16265 amu.
 Principal axes and moments of inertia in atomic units:
                           1         2         3
     Eigenvalues --  1266.432401770.633932183.62564
           X            0.99995   0.00706  -0.00684
           Y           -0.00719   0.99977  -0.02000
           Z            0.00670   0.02005   0.99978
 This molecule is an asymmetric top.
 Rotational symmetry number  1.
 Warning -- assumption of classical behavior for rotation
           may cause significant error
 Rotational temperatures (Kelvin)      0.06839     0.04892     0.03967
 Rotational constants (GHZ):           1.42506     1.01926     0.82649
 Zero-point vibrational energy     740632.8 (Joules/Mol)
                                  177.01548 (Kcal/Mol)
 Warning -- explicit consideration of  19 degrees of freedom as
           vibrations may cause significant error
 Vibrational temperatures:    100.23   122.98   150.46   213.12   262.03
          (Kelvin)            277.79   306.29   327.73   356.68   381.23
                              420.68   453.55   462.19   511.87   562.60
                              604.33   664.22   727.98   814.94   948.28
                             1035.52  1099.45  1124.27  1156.00  1198.20
                             1301.95  1350.90  1368.80  1440.40  1482.48
                             1517.14  1563.42  1565.50  1589.91  1641.99
                             1658.82  1681.34  1709.23  1712.78  1766.04
                             1828.07  1896.56  1910.44  1943.34  1990.98
                             2021.00  2024.66  2063.31  2070.33  2082.66
                             2115.54  2161.17  2169.34  2182.62  2184.89
                             2190.12  2200.13  2203.93  2209.66  2213.03
                             2217.29  2227.19  2232.10  2247.55  4237.12
                             4362.26  4374.92  4377.95  4387.46  4397.15
                             4407.20  4444.34  4446.83  4454.52  4456.70
                             4480.84  4482.97  4489.97  4492.67  4508.62
                             4510.57  4536.97  5041.84  5045.15

 Zero-point correction=                           0.282092 (Hartree/Particle)
 Thermal correction to Energy=                    0.295003
 Thermal correction to Enthalpy=                  0.295947
 Thermal correction to Gibbs Free Energy=         0.244380
 Sum of electronic and zero-point Energies=           -426.139688
 Sum of electronic and thermal Energies=              -426.126777
 Sum of electronic and thermal Enthalpies=            -426.125833
 Sum of electronic and thermal Free Energies=         -426.177400

                     E (Thermal)             CV                S
                      KCal/Mol        Cal/Mol-Kelvin    Cal/Mol-Kelvin
 Total                  185.117             48.752            108.532
 Electronic               0.000              0.000              0.000
 Translational            0.889              2.981             40.808
 Rotational               0.889              2.981             29.972
 Vibrational            183.340             42.791             37.752
 Vibration     1          0.598              1.969              4.163
 Vibration     2          0.601              1.959              3.761
 Vibration     3          0.605              1.946              3.367
 Vibration     4          0.618              1.905              2.696
 Vibration     5          0.630              1.864              2.307
 Vibration     6          0.635              1.849              2.198
 Vibration     7          0.644              1.821              2.019
 Vibration     8          0.651              1.799              1.896
 Vibration     9          0.662              1.766              1.745
 Vibration    10          0.671              1.737              1.629
 Vibration    11          0.688              1.688              1.460
 Vibration    12          0.703              1.645              1.335
 Vibration    13          0.707              1.633              1.304
 Vibration    14          0.731              1.563              1.141
 Vibration    15          0.759              1.489              0.996
 Vibration    16          0.783              1.427              0.892
 Vibration    17          0.819              1.335              0.761
 Vibration    18          0.861              1.237              0.643
 Vibration    19          0.922              1.104              0.511

                           ! Non-Optimized Parameters !

 1\1\GINC-NODE116\Freq\RB3LYP\6-31G(d)\C8H20N2\VSC10255\08-Dec-2020\0\\
 #N Geom=AllCheck Guess=TCheck SCRF=Check GenChk RB3LYP/6-31G(d) Freq\\
 CID_123678063_JID_790_neutraal\\0,1\C,0.9312526624,-0.1107876522,0.039
 3043222\C,0.9834635921,0.1451856798,-1.471333208\C,1.129966832,-1.0570
 355726,-2.4354268675\C,0.2578417938,-2.2707963496,-2.0003491563\C,-1.2
 551479711,-2.0311847346,-1.9698978065\N,0.7039057115,-0.5107802653,-3.
 7503694327\C,0.9233150214,-1.3589728745,-4.9149661507\N,2.5327913882,-
 1.4623759602,-2.6078887993\C,3.5116104328,-1.4533167703,-1.5271751271\

 Normal termination of Gaussian 16 at Tue Dec  8 13:03:56 2020.

 ----------------------------------------------------------------------
 # B3LYP/6-311++G(d,p) empiricaldispersion=gd3bj scf=xqc pop=npa geom=c
 heck
 ----------------------------------------------------------------------

 --------------------------------------
 CID_123678063_JID_790_Energie_neutraal
 --------------------------------------
 Structure from the checkpoint file:  "JID_790.chk"
 Charge =  0 Multiplicity = 1

 SCF Done:  E(RB3LYP) =  -426.550993686     A.U. after   13 cycles
 Normal termination of Gaussian 16 at Tue Dec  8 13:08:58 2020.

 ----------------------------------------------------------------------
 # B3LYP/6-311++G(d,p) empiricaldispersion=gd3bj scf=xqc pop=npa geom=c
 heck
 ----------------------------------------------------------------------

 ------------------------------------
 CID_123678063_JID_790_Energie_kation
 ------------------------------------
 Structure from the checkpoint file:  "JID_790.chk"
 Charge =  1 Multiplicity = 2

 SCF Done:  E(UB3LYP) =  -426.267949208     A.U. after   18 cycles
 Normal termination of Gaussian 16 at Tue Dec  8 13:23:30 2020.
 Gaussian 16:  ES64L-G16RevA.03 25-Dec-2016

 -----------------------------------
 CID_123678063_JID_790_Energie_anion
 -----------------------------------
 Structure from the checkpoint file:  "JID_790.chk"
 Charge = -1 Multiplicity = 2

                         Standard orientation:
 ---------------------------------------------------------------------
 Center     Atomic      Atomic             Coordinates (Angstroms)
 Number     Number       Type             X           Y           Z
 ---------------------------------------------------------------------
      1          6           0        1.119253    2.014888   -0.883869
      2          6           0        0.092614    0.952014   -1.292017
      3          6           0       -0.378698   -0.083670   -0.242493
      4          6           0       -0.612981    0.559239    1.155680
      5          6           0       -1.696649    1.640312    1.222207
      6          7           0       -1.635310   -0.627401   -0.820662
      7          6           0       -2.219543   -1.782145   -0.150516
      8          7           0        0.540064   -1.227022   -0.139619
      9          6           0        1.989966   -1.105217   -0.234798
     10          6           0        2.729947   -0.584965    1.007847
     11          1           0        0.759635    2.634024   -0.055635
     12          1           0        1.307634    2.684356   -1.730844
     13          1           0        2.080974    1.592779   -0.584634
     14          1           0       -0.807108    1.476474   -1.635200
     15          1           0        0.443429    0.386065   -2.161420
     16          1           0       -0.873783   -0.243805    1.858117
     17          1           0        0.335372    0.971088    1.516161
     18          1           0       -2.685465    1.236074    0.977915
     19          1           0       -1.760284    2.062634    2.231063
     20          1           0       -1.494884    2.466873    0.531787
     21          1           0       -2.321699    0.123235   -0.845067
     22          1           0       -2.421428   -1.656037    0.930102
     23          1           0       -3.170316   -2.021356   -0.637793
     24          1           0       -1.557727   -2.643010   -0.276865
     25          1           0        0.309448   -1.763339    0.692825
     26          1           0        2.373855   -2.109398   -0.461341
     27          1           0        2.234711   -0.496105   -1.108426
     28          1           0        2.487549   -1.199848    1.883673
     29          1           0        3.815957   -0.632232    0.858730
     30          1           0        2.467387    0.449759    1.246567
 ---------------------------------------------------------------------

 SCF Done:  E(UB3LYP) =  -426.534500736     A.U. after   25 cycles

 The electronic state is 2-A.
 Alpha  occ. eigenvalues --  -14.18482 -14.18366 -10.12414 -10.08880 -10.07479
 Alpha  occ. eigenvalues --  -10.06082 -10.05506 -10.05504 -10.05298 -10.05245
 Alpha  occ. eigenvalues --   -0.82619  -0.76114  -0.67749  -0.64488  -0.63235
 Alpha  occ. eigenvalues --   -0.58063  -0.53979  -0.51714  -0.50097  -0.44494
 Alpha  occ. eigenvalues --   -0.39657  -0.38693  -0.35638  -0.33756  -0.32556
 Alpha  occ. eigenvalues --   -0.32246  -0.31891  -0.30593  -0.30192  -0.29961
 Alpha  occ. eigenvalues --   -0.27132  -0.26924  -0.26707  -0.25583  -0.24774
 Alpha  occ. eigenvalues --   -0.23957  -0.23331  -0.22494  -0.21436  -0.12160
 Alpha  occ. eigenvalues --   -0.10922   0.04672
 Alpha virt. eigenvalues --    0.06930   0.07274   0.07983   0.09084   0.09347
 Alpha virt. eigenvalues --    0.09825   0.10370   0.10828   0.12118   0.12208
 Alpha virt. eigenvalues --    0.12693   0.13052   0.13217   0.14492   0.14858

  Beta  occ. eigenvalues --  -14.18474 -14.18357 -10.12415 -10.08865 -10.07450
  Beta  occ. eigenvalues --  -10.06072 -10.05484 -10.05474 -10.05263 -10.05203
  Beta  occ. eigenvalues --   -0.82602  -0.76092  -0.67719  -0.64446  -0.63191
  Beta  occ. eigenvalues --   -0.58009  -0.53908  -0.51650  -0.50014  -0.44453
  Beta  occ. eigenvalues --   -0.39630  -0.38660  -0.35605  -0.33721  -0.32521
  Beta  occ. eigenvalues --   -0.32209  -0.31863  -0.30539  -0.30157  -0.29931
  Beta  occ. eigenvalues --   -0.27080  -0.26876  -0.26669  -0.25535  -0.24739
  Beta  occ. eigenvalues --   -0.23917  -0.23307  -0.22463  -0.21412  -0.12144
  Beta  occ. eigenvalues --   -0.10907
  Beta virt. eigenvalues --    0.06895   0.07831   0.08011   0.08603   0.09639
  Beta virt. eigenvalues --    0.09860   0.10343   0.10811   0.11268   0.12569
  Beta virt. eigenvalues --    0.12747   0.13125   0.13466   0.13620   0.14770

 Mulliken charges and spin densities:
               1          2
     1  C    0.816000  -1.365521
     2  C   -0.856305   0.708962
     3  C   -0.431420  -0.460064
     4  C   -1.215727   1.356176
     5  C    1.768966  -2.450708
     6  N   -0.004906   0.098958
     7  C    0.669147  -0.978811
     8  N   -0.000464   0.009231
     9  C   -0.287890   0.041503
    10  C    0.812461  -1.263518
    11  H   -0.231122   0.391479
    12  H   -0.218652   0.355596
    13  H   -0.008979   0.153187
    14  H    0.009193   0.111928
    15  H    0.083390   0.120787
    16  H   -0.266000   0.395810
    17  H    0.488947  -0.335851
    18  H   -0.271724   0.417184
    19  H   -0.555076   0.714211
    20  H   -0.173004   0.311577
    21  H    0.142062   0.092122
    22  H   -0.156515   0.290142
    23  H   -0.233107   0.361463
    24  H   -0.097563   0.238280
    25  H    0.228633  -0.026071
    26  H   -0.253115   0.427586
    27  H    0.177057  -0.060100
    28  H   -0.256112   0.394577
    29  H   -0.422129   0.553010
    30  H   -0.256047   0.396874
 Sum of Mulliken charges =  -1.00000   1.00000

 Dipole moment (field-independent basis, Debye):
    X=              0.3022    Y=             -0.6819    Z=             -2.6445  Tot=              2.7477
 Quadrupole moment (field-independent basis, Debye-Ang):
   XX=           -124.3954   YY=           -113.6344   ZZ=           -105.9941
   XY=              2.2399   XZ=              1.2619   YZ=             -1.9939

 Summary of Natural Population Analysis:

                                       Natural Population
                Natural  -----------------------------------------------
    Atom  No    Charge         Core      Valence    Rydberg      Total
 -----------------------------------------------------------------------
      C    1   -0.28993      0.99965     2.28503    0.00524     3.28993
      C    2   -0.19926      0.99958     2.18858    0.01110     3.19926
      C    3    0.16751      0.99955     1.81658    0.01636     2.83249
      C    4   -0.20950      0.99958     2.19910    0.01082     3.20950
      C    5   -0.29083      0.99966     2.28464    0.00654     3.29083
      N    6   -0.34336      0.99972     2.83137    0.01227     3.84336
      C    7   -0.18554      0.99965     2.17709    0.00880     3.18554
      N    8   -0.34719      0.99971     2.83561    0.01188     3.84719
      C    9   -0.08608      0.99963     2.07481    0.01164     3.08608
      C   10   -0.29558      0.99966     2.29090    0.00502     3.29558
      H   11    0.09910      0.00000     0.39969    0.00121     0.40090
      H   12    0.09901      0.00000     0.40012    0.00087     0.40099
      H   13    0.09742      0.00000     0.40129    0.00129     0.40258
      H   14    0.10045      0.00000     0.39832    0.00124     0.39955
      H   15    0.10442      0.00000     0.39420    0.00138     0.39558
      H   16    0.09778      0.00000     0.40057    0.00165     0.40222
      H   17    0.10065      0.00000     0.39779    0.00157     0.39935
      H   18    0.09547      0.00000     0.40289    0.00164     0.40453
      H   19    0.10300      0.00000     0.39579    0.00121     0.39700
      H   20    0.09669      0.00000     0.40203    0.00128     0.40331
      H   21    0.17098      0.00000     0.32614    0.00288     0.32902
      H   22    0.07879      0.00000     0.41949    0.00172     0.42121
      H   23    0.09389      0.00000     0.40523    0.00088     0.40611
      H   24    0.09631      0.00000     0.40219    0.00150     0.40369
      H   25    0.17295      0.00000     0.32410    0.00295     0.32705
      H   26    0.08996      0.00000     0.40900    0.00103     0.41004
      H   27    0.09210      0.00000     0.40658    0.00131     0.40790
      H   28    0.09660      0.00000     0.40177    0.00163     0.40340
      H   29    0.09772      0.00000     0.40080    0.00148     0.40228
      H   30    0.09645      0.00000     0.40211    0.00143     0.40355
 =======================================================================
   * Total *   -0.00000      9.99638    30.87381    0.12981    41.00000

 Normal termination of Gaussian 16 at Tue Dec  8 13:32:52 2020.
