 Gaussian 16, Revision A.03,

 -----------------------------------------------------------
 # opt freq B3LYP/6-31G(d) empiricaldispersion=gd3bj scf=xqc
 -----------------------------------------------------------

 ------------------------------
 CID_68034457_JID_8218_neutraal
 ------------------------------
 Symbolic Z-matrix:
 Charge =  0 Multiplicity = 1

 SCF Done:  E(RB3LYP) =  -716.529868325     A.U. after   15 cycles
 SCF Done:  E(RB3LYP) =  -716.536026945     A.U. after   12 cycles
 SCF Done:  E(RB3LYP) =  -716.536540733     A.U. after   11 cycles
 SCF Done:  E(RB3LYP) =  -716.536679336     A.U. after   11 cycles
 SCF Done:  E(RB3LYP) =  -716.536570076     A.U. after   11 cycles
 SCF Done:  E(RB3LYP) =  -716.536748700     A.U. after   10 cycles
 SCF Done:  E(RB3LYP) =  -716.536821897     A.U. after   10 cycles
 SCF Done:  E(RB3LYP) =  -716.536955786     A.U. after   12 cycles
 SCF Done:  E(RB3LYP) =  -716.537046467     A.U. after   11 cycles
 SCF Done:  E(RB3LYP) =  -716.537074590     A.U. after   11 cycles
 SCF Done:  E(RB3LYP) =  -716.537181770     A.U. after   10 cycles
 SCF Done:  E(RB3LYP) =  -716.537183175     A.U. after    9 cycles
 SCF Done:  E(RB3LYP) =  -716.537183149     A.U. after    8 cycles
 SCF Done:  E(RB3LYP) =  -716.537183457     A.U. after    7 cycles
 SCF Done:  E(RB3LYP) =  -716.537183505     A.U. after    7 cycles
 SCF Done:  E(RB3LYP) =  -716.537183525     A.U. after    6 cycles
 Optimization completed.
    -- Stationary point found.
 Normal termination of Gaussian 16 at Fri Dec 11 19:46:44 2020.

 --------------------------------------------------------------------
 #N Geom=AllCheck Guess=TCheck SCRF=Check GenChk RB3LYP/6-31G(d) Freq
 --------------------------------------------------------------------

 Structure from the checkpoint file:  "JID_8218.chk"
 ------------------------------
 CID_68034457_JID_8218_neutraal
 ------------------------------
 Charge =  0 Multiplicity = 1

 SCF Done:  E(RB3LYP) =  -716.537183525     A.U. after    1 cycles

  Exact polarizability: 238.619 -11.484 220.947  -0.001   0.000 113.802
 Approx polarizability: 371.825 -22.350 332.322  -0.002  -0.000 165.223

                      1                      2                      3
                      A                      A                      A
 Frequencies --     24.1206                56.6596                71.5472
 Red. masses --      2.7384                 2.9600                 3.1050
 Frc consts  --      0.0009                 0.0056                 0.0094
 IR Inten    --      0.0826                 0.0001                 0.4487

                      4                      5                      6
                      A                      A                      A
 Frequencies --     84.3554               105.1741               136.1717
 Red. masses --      2.3738                 1.0968                 3.0732
 Frc consts  --      0.0100                 0.0071                 0.0336
 IR Inten    --      0.3236                 0.0003                 0.2196

                      7                      8                      9
                      A                      A                      A
 Frequencies --    136.4967               148.4007               169.5253
 Red. masses --      2.3335                 1.5476                 1.5832
 Frc consts  --      0.0256                 0.0201                 0.0268
 IR Inten    --      0.1780                 1.3752                 0.3346

                     10                     11                     12
                      A                      A                      A
 Frequencies --    170.5450               201.7089               209.0213
 Red. masses --      2.5868                 1.3729                 1.2318
 Frc consts  --      0.0443                 0.0329                 0.0317
 IR Inten    --      0.2335                 1.4426                 0.5482

                     13                     14                     15
                      A                      A                      A
 Frequencies --    231.8178               243.7401               250.9637
 Red. masses --      1.0665                 2.8929                 1.7409
 Frc consts  --      0.0338                 0.1013                 0.0646
 IR Inten    --      0.0129                 0.7527                 0.7749

                     16                     17                     18
                      A                      A                      A
 Frequencies --    262.8280               279.8073               290.2409
 Red. masses --      1.4241                 2.5432                 3.2412
 Frc consts  --      0.0580                 0.1173                 0.1609
 IR Inten    --      0.6839                 0.7965                 0.7997

                     19                     20                     21
                      A                      A                      A
 Frequencies --    326.5809               341.6886               356.3372
 Red. masses --      2.5437                 3.9258                 2.6513
 Frc consts  --      0.1598                 0.2700                 0.1983
 IR Inten    --      0.1369                 0.0000                 1.9382

                     22                     23                     24
                      A                      A                      A
 Frequencies --    380.7364               417.5821               445.2127
 Red. masses --      4.3528                 3.6782                 2.5581
 Frc consts  --      0.3718                 0.3779                 0.2988
 IR Inten    --      0.1537                 2.1125                 0.3915

                     25                     26                     27
                      A                      A                      A
 Frequencies --    466.9795               485.4206               538.5499
 Red. masses --      3.8177                 3.7373                 3.5858
 Frc consts  --      0.4905                 0.5189                 0.6128
 IR Inten    --      0.0537                 4.2850                 0.7730

                     28                     29                     30
                      A                      A                      A
 Frequencies --    558.7891               599.8209               603.7931
 Red. masses --      4.1976                 3.1287                 4.2341
 Frc consts  --      0.7722                 0.6632                 0.9095
 IR Inten    --      1.8315                 0.0250                 3.3639

                     31                     32                     33
                      A                      A                      A
 Frequencies --    634.9380               684.8241               710.8948
 Red. masses --      3.4873                 4.5144                 4.8190
 Frc consts  --      0.8283                 1.2474                 1.4349
 IR Inten    --      2.0504                 0.2234                 1.1041

                     34                     35                     36
                      A                      A                      A
 Frequencies --    729.4231               763.6251               804.4689
 Red. masses --      4.0057                 4.2818                 1.8755
 Frc consts  --      1.2557                 1.4711                 0.7151
 IR Inten    --      0.0042                 0.2097                14.1285

                     37                     38                     39
                      A                      A                      A
 Frequencies --    840.5925               842.0759               893.0273
 Red. masses --      2.6219                 3.3372                 3.1421
 Frc consts  --      1.0915                 1.3942                 1.4764
 IR Inten    --      7.8333                 3.6099                 0.9367

                     40                     41                     42
                      A                      A                      A
 Frequencies --    898.8611               901.4480               942.9223
 Red. masses --      3.2689                 1.4671                 1.1893
 Frc consts  --      1.5561                 0.7024                 0.6230
 IR Inten    --      1.4012                 8.8701                 0.0332

                     43                     44                     45
                      A                      A                      A
 Frequencies --    944.2255               955.0288               965.1641
 Red. masses --      1.1718                 2.3491                 1.2940
 Frc consts  --      0.6155                 1.2624                 0.7102
 IR Inten    --      3.2184                 7.2060                 0.0501

                     46                     47                     48
                      A                      A                      A
 Frequencies --    977.4474               978.3723               981.6797
 Red. masses --      2.5303                 1.5467                 1.3811
 Frc consts  --      1.4243                 0.8723                 0.7842
 IR Inten    --     18.0884                 0.0294                 0.1406

                     49                     50                     51
                      A                      A                      A
 Frequencies --   1022.6097              1053.8656              1085.2277
 Red. masses --      1.4238                 1.4215                 1.5819
 Frc consts  --      0.8772                 0.9302                 1.0976
 IR Inten    --     25.1603                 2.6300                 0.3074

                     52                     53                     54
                      A                      A                      A
 Frequencies --   1098.7034              1104.0547              1132.0193
 Red. masses --      1.9542                 1.6986                 2.3269
 Frc consts  --      1.3899                 1.2199                 1.7569
 IR Inten    --      3.5579                 7.8558                 0.2300

                     55                     56                     57
                      A                      A                      A
 Frequencies --   1137.8192              1149.3760              1170.2996
 Red. masses --      2.4354                 1.9242                 2.2500
 Frc consts  --      1.8577                 1.4977                 1.8157
 IR Inten    --      0.7997                15.6601                20.0390

                     58                     59                     60
                      A                      A                      A
 Frequencies --   1189.0312              1214.2839              1223.1224
 Red. masses --      2.0444                 1.8529                 1.5680
 Frc consts  --      1.7029                 1.6097                 1.3821
 IR Inten    --      4.9274                 9.6464                 2.0316

                     61                     62                     63
                      A                      A                      A
 Frequencies --   1236.5066              1272.0847              1276.5913
 Red. masses --      1.9716                 1.7537                 3.8348
 Frc consts  --      1.7761                 1.6720                 3.6821
 IR Inten    --      5.0837                 0.1804                 4.9670

                     64                     65                     66
                      A                      A                      A
 Frequencies --   1323.9738              1346.2764              1361.5602
 Red. masses --      2.4426                 3.1010                 1.3232
 Frc consts  --      2.5227                 3.3115                 1.4452
 IR Inten    --     15.4146                 5.7823                 1.9616

                     67                     68                     69
                      A                      A                      A
 Frequencies --   1371.2830              1393.7301              1403.6749
 Red. masses --      1.2985                 5.3624                 1.8120
 Frc consts  --      1.4386                 6.1371                 2.1035
 IR Inten    --      2.3575                 2.7937                 8.8456

                     70                     71                     72
                      A                      A                      A
 Frequencies --   1415.1994              1418.2956              1429.8193
 Red. masses --      2.0809                 1.2330                 1.4332
 Frc consts  --      2.4555                 1.4613                 1.7263
 IR Inten    --      5.4251                 3.3389                 4.0654

                     73                     74                     75
                      A                      A                      A
 Frequencies --   1429.8816              1438.0657              1446.3321
 Red. masses --      1.2144                 1.2464                 1.2475
 Frc consts  --      1.4628                 1.5187                 1.5375
 IR Inten    --      4.2124                 3.0407                 0.7496

                     76                     77                     78
                      A                      A                      A
 Frequencies --   1450.3172              1475.8875              1483.6430
 Red. masses --      1.2372                 2.0278                 3.0601
 Frc consts  --      1.5333                 2.6025                 3.9687
 IR Inten    --      2.4393                11.4536                14.1561

                     79                     80                     81
                      A                      A                      A
 Frequencies --   1511.2552              1513.2776              1514.9746
 Red. masses --      1.0452                 1.1994                 1.0426
 Frc consts  --      1.4064                 1.6183                 1.4099
 IR Inten    --      2.6565                 4.4081                 0.4544

                     82                     83                     84
                      A                      A                      A
 Frequencies --   1521.3845              1522.5624              1523.0908
 Red. masses --      1.0447                 1.0495                 1.0490
 Frc consts  --      1.4247                 1.4334                 1.4337
 IR Inten    --      0.4539                 0.9729                 0.2529

                     85                     86                     87
                      A                      A                      A
 Frequencies --   1524.2687              1529.7870              1531.8122
 Red. masses --      1.1700                 1.0482                 1.0572
 Frc consts  --      1.6016                 1.4453                 1.4615
 IR Inten    --      6.0742                 7.9153                 5.2070

                     88                     89                     90
                      A                      A                      A
 Frequencies --   1535.7423              1541.9975              1544.3072
 Red. masses --      1.0460                 1.0618                 1.0793
 Frc consts  --      1.4535                 1.4875                 1.5165
 IR Inten    --     11.3350                 3.8777                 3.7655

                     91                     92                     93
                      A                      A                      A
 Frequencies --   1572.1424              1614.5029              1647.6620
 Red. masses --      3.3371                 7.6360                 6.9966
 Frc consts  --      4.8596                11.7272                11.1911
 IR Inten    --     47.4579                21.8527                74.4796

                     94                     95                     96
                      A                      A                      A
 Frequencies --   1667.4341              3033.1328              3037.7533
 Red. masses --      6.1559                 1.0839                 1.0445
 Frc consts  --     10.0841                 5.8753                 5.6787
 IR Inten    --     12.4555                16.7816                50.3305

                     97                     98                     99
                      A                      A                      A
 Frequencies --   3038.0807              3040.3614              3047.6567
 Red. masses --      1.0810                 1.0380                 1.0348
 Frc consts  --      5.8785                 5.6533                 5.6628
 IR Inten    --     12.9050                35.5162                33.7015

                    100                    101                    102
                      A                      A                      A
 Frequencies --   3051.6923              3055.0286              3058.9409
 Red. masses --      1.0367                 1.0375                 1.0381
 Frc consts  --      5.6882                 5.7050                 5.7233
 IR Inten    --     39.0042                27.9366                35.1813

                    103                    104                    105
                      A                      A                      A
 Frequencies --   3079.5242              3088.9874              3112.6594
 Red. masses --      1.0998                 1.1001                 1.1031
 Frc consts  --      6.1452                 6.1846                 6.2970
 IR Inten    --     28.7142                11.3862                18.0670

                    106                    107                    108
                      A                      A                      A
 Frequencies --   3115.3825              3118.4370              3120.6035
 Red. masses --      1.1026                 1.1019                 1.1020
 Frc consts  --      6.3049                 6.3136                 6.3226
 IR Inten    --     62.9404                15.7852                47.7265

                    109                    110                    111
                      A                      A                      A
 Frequencies --   3127.1012              3131.4892              3136.2226
 Red. masses --      1.1004                 1.1022                 1.1014
 Frc consts  --      6.3401                 6.3682                 6.3829
 IR Inten    --     20.1335                 4.2586                41.0083

                    112                    113                    114
                      A                      A                      A
 Frequencies --   3141.8687              3144.6567              3181.9553
 Red. masses --      1.1000                 1.0994                 1.0898
 Frc consts  --      6.3977                 6.4054                 6.5010
 IR Inten    --      1.9265                50.2584                18.0394

                    115                    116                    117
                      A                      A                      A
 Frequencies --   3182.2689              3182.3327              3253.1480
 Red. masses --      1.0935                 1.0908                 1.0899
 Frc consts  --      6.5247                 6.5088                 6.7956
 IR Inten    --     10.6444                14.4403                16.9565

 - Thermochemistry -
 -------------------
 Temperature   298.150 Kelvin.  Pressure   1.00000 Atm.
 Atom     1 has atomic number  6 and mass  12.00000

 Molecular mass:   241.18305 amu.
 Principal axes and moments of inertia in atomic units:
                           1         2         3
     Eigenvalues --  4113.242564706.687878006.43118
           X            0.99841   0.05645  -0.00000
           Y           -0.05645   0.99841   0.00000
           Z            0.00000  -0.00000   1.00000
 This molecule is an asymmetric top.
 Rotational symmetry number  1.
 Warning -- assumption of classical behavior for rotation
           may cause significant error
 Rotational temperatures (Kelvin)      0.02106     0.01840     0.01082
 Rotational constants (GHZ):           0.43876     0.38344     0.22541
 Zero-point vibrational energy     950389.1 (Joules/Mol)
                                  227.14845 (Kcal/Mol)
 Warning -- explicit consideration of  30 degrees of freedom as
           vibrations may cause significant error
 Vibrational temperatures:     34.70    81.52   102.94   121.37   151.32
          (Kelvin)            195.92   196.39   213.52   243.91   245.38
                              290.21   300.74   333.53   350.69   361.08
                              378.15   402.58   417.59   469.88   491.61
                              512.69   547.79   600.81   640.56   671.88
                              698.41   774.85   803.97   863.01   868.72
                              913.53   985.31  1022.82  1049.48  1098.69
                             1157.45  1209.43  1211.56  1284.87  1293.26
                             1296.98  1356.65  1358.53  1374.07  1388.66
                             1406.33  1407.66  1412.42  1471.31  1516.28
                             1561.40  1580.79  1588.49  1628.72  1637.07
                             1653.70  1683.80  1710.75  1747.08  1759.80
                             1779.06  1830.25  1836.73  1904.90  1936.99
                             1958.98  1972.97  2005.27  2019.58  2036.16
                             2040.61  2057.19  2057.28  2069.06  2080.95
                             2086.68  2123.47  2134.63  2174.36  2177.27
                             2179.71  2188.93  2190.63  2191.39  2193.08
                             2201.02  2203.94  2209.59  2218.59  2221.91
                             2261.96  2322.91  2370.62  2399.07  4364.00
                             4370.65  4371.12  4374.40  4384.90  4390.70
                             4395.50  4401.13  4430.75  4444.36  4478.42
                             4482.34  4486.74  4489.85  4499.20  4505.51
                             4512.32  4520.45  4524.46  4578.12  4578.58
                             4578.67  4680.55

 Zero-point correction=                           0.361984 (Hartree/Particle)
 Thermal correction to Energy=                    0.380854
 Thermal correction to Enthalpy=                  0.381798
 Thermal correction to Gibbs Free Energy=         0.315501
 Sum of electronic and zero-point Energies=           -716.175199
 Sum of electronic and thermal Energies=              -716.156330
 Sum of electronic and thermal Enthalpies=            -716.155386
 Sum of electronic and thermal Free Energies=         -716.221683

                     E (Thermal)             CV                S
                      KCal/Mol        Cal/Mol-Kelvin    Cal/Mol-Kelvin
 Total                  238.989             71.984            139.534
 Electronic               0.000              0.000              0.000
 Translational            0.889              2.981             42.342
 Rotational               0.889              2.981             33.405
 Vibrational            237.212             66.023             63.787
 Vibration     1          0.593              1.985              6.262
 Vibration     2          0.596              1.975              4.570
 Vibration     3          0.598              1.968              4.110
 Vibration     4          0.601              1.960              3.787
 Vibration     5          0.605              1.945              3.356
 Vibration     6          0.614              1.917              2.857
 Vibration     7          0.614              1.917              2.852
 Vibration     8          0.618              1.904              2.693
 Vibration     9          0.625              1.880              2.441
 Vibration    10          0.626              1.879              2.429
 Vibration    11          0.639              1.837              2.117
 Vibration    12          0.642              1.827              2.052
 Vibration    13          0.653              1.792              1.865
 Vibration    14          0.659              1.773              1.775
 Vibration    15          0.663              1.761              1.724
 Vibration    16          0.670              1.741              1.643
 Vibration    17          0.680              1.711              1.535
 Vibration    18          0.686              1.692              1.473
 Vibration    19          0.710              1.622              1.277
 Vibration    20          0.721              1.592              1.204
 Vibration    21          0.732              1.562              1.138
 Vibration    22          0.750              1.511              1.036
 Vibration    23          0.781              1.432              0.900
 Vibration    24          0.805              1.371              0.810
 Vibration    25          0.824              1.323              0.746
 Vibration    26          0.841              1.282              0.696
 Vibration    27          0.894              1.165              0.568
 Vibration    28          0.914              1.120              0.526
 Vibration    29          0.958              1.032              0.450
 Vibration    30          0.962              1.024              0.443

 Optimization completed.
    -- Stationary point found.
 Normal termination of Gaussian 16 at Fri Dec 11 20:06:54 2020.

 ----------------------------------------------------------------------
 # B3LYP/6-311++G(d,p) empiricaldispersion=gd3bj scf=xqc pop=npa geom=c
 heck
 ----------------------------------------------------------------------

 --------------------------------------
 CID_68034457_JID_8218_Energie_neutraal
 --------------------------------------
 Structure from the checkpoint file:  "JID_8218.chk"
 Charge =  0 Multiplicity = 1

 SCF Done:  E(RB3LYP) =  -716.717502777     A.U. after   15 cycles
 Normal termination of Gaussian 16 at Fri Dec 11 20:16:38 2020.

 ----------------------------------------------------------------------
 # B3LYP/6-311++G(d,p) empiricaldispersion=gd3bj scf=xqc pop=npa geom=c
 heck
 ----------------------------------------------------------------------

 ------------------------------------
 CID_68034457_JID_8218_Energie_kation
 ------------------------------------
 Structure from the checkpoint file:  "JID_8218.chk"
 Charge =  1 Multiplicity = 2

 SCF Done:  E(UB3LYP) =  -716.437719480     A.U. after   20 cycles
 Normal termination of Gaussian 16 at Fri Dec 11 20:35:20 2020.
 Gaussian 16:  ES64L-G16RevA.03 25-Dec-2016

 ----------------------------------------------------------------------
 # B3LYP/6-311++G(d,p) empiricaldispersion=gd3bj scf=xqc pop=npa geom=c
 heck
 ----------------------------------------------------------------------

 -----------------------------------
 CID_68034457_JID_8218_Energie_anion
 -----------------------------------
 Structure from the checkpoint file:  "JID_8218.chk"
 Charge = -1 Multiplicity = 2

                         Standard orientation:
 ---------------------------------------------------------------------
 Center     Atomic      Atomic             Coordinates (Angstroms)
 Number     Number       Type             X           Y           Z
 ---------------------------------------------------------------------
      1          6           0        3.352274   -3.015082    0.000011
      2          6           0        2.449640   -1.806356    0.000023
      3          6           0        1.068129   -1.949347    0.000027
      4          6           0        0.235691   -0.783656    0.000034
      5          6           0        0.823212    0.528212    0.000014
      6          6           0        2.238145    0.621345   -0.000027
      7          6           0        3.017357   -0.510528   -0.000016
      8          6           0       -0.061245    1.655643    0.000039
      9          6           0       -1.416109    1.398597    0.000023
     10          6           0       -1.912792    0.073249    0.000011
     11          7           0       -1.113746   -0.974762    0.000017
     12          6           0       -3.407477   -0.198933   -0.000033
     13          6           0       -3.813948   -0.967510   -1.267232
     14          6           0       -3.814036   -0.967365    1.267220
     15          6           0        0.394237    3.108732    0.000006
     16          6           0        1.151255    3.506815    1.281052
     17          6           0        1.151167    3.506787   -1.281106
     18          6           0        0.441353   -3.319717   -0.000001
     19          1           0        3.178515   -3.648112    0.879320
     20          1           0        4.406209   -2.721895    0.000448
     21          1           0        3.179125   -3.647643   -0.879762
     22          1           0        2.719481    1.589433   -0.000073
     23          1           0        4.100270   -0.414374   -0.000053
     24          1           0       -2.122591    2.224597    0.000009
     25          1           0       -3.924116    0.770024   -0.000107
     26          1           0       -3.281824   -1.922820   -1.310657
     27          1           0       -4.891861   -1.165978   -1.271559
     28          1           0       -3.565693   -0.400972   -2.171763
     29          1           0       -3.565848   -0.400728    2.171707
     30          1           0       -4.891950   -1.165834    1.271493
     31          1           0       -3.281918   -1.922673    1.310793
     32          1           0       -0.530017    3.700882    0.000030
     33          1           0        2.117216    3.004052    1.373960
     34          1           0        1.334440    4.587459    1.284944
     35          1           0        0.561843    3.257859    2.169753
     36          1           0        0.561713    3.257766   -2.169761
     37          1           0        1.334314    4.587437   -1.285062
     38          1           0        2.117143    3.004059   -1.374045
     39          1           0        0.752632   -3.896828    0.880432
     40          1           0       -0.644861   -3.240805   -0.000139
     41          1           0        0.752888   -3.896901   -0.880293
 ---------------------------------------------------------------------

 SCF Done:  E(UB3LYP) =  -716.717683842     A.U. after   25 cycles

 The electronic state is 2-A.
 Alpha  occ. eigenvalues --  -14.12179 -10.05510 -10.04781 -10.04780 -10.04410
 Alpha  occ. eigenvalues --  -10.04410 -10.04390 -10.04037 -10.03807 -10.03807
 Alpha  occ. eigenvalues --  -10.02664 -10.02528 -10.02251 -10.01567 -10.01345
 Alpha  occ. eigenvalues --  -10.01306 -10.00928 -10.00853  -0.78064  -0.70373
 Alpha  occ. eigenvalues --   -0.69032  -0.66734  -0.63740  -0.61225  -0.60379
 Alpha  occ. eigenvalues --   -0.57129  -0.56383  -0.56120  -0.53014  -0.50604
 Alpha  occ. eigenvalues --   -0.47170  -0.45911  -0.43668  -0.40840  -0.36643
 Alpha  occ. eigenvalues --   -0.35825  -0.34826  -0.32460  -0.32036  -0.31348
 Alpha  occ. eigenvalues --   -0.30584  -0.30521  -0.29851  -0.29159  -0.29103
 Alpha  occ. eigenvalues --   -0.28145  -0.27624  -0.26933  -0.26607  -0.25812
 Alpha  occ. eigenvalues --   -0.25422  -0.24204  -0.23854  -0.23160  -0.22912
 Alpha  occ. eigenvalues --   -0.21973  -0.21772  -0.21139  -0.20287  -0.19134
 Alpha  occ. eigenvalues --   -0.17974  -0.17786  -0.13918  -0.09343  -0.09296
 Alpha  occ. eigenvalues --   -0.07597   0.05338
 Alpha virt. eigenvalues --    0.07813   0.08264   0.08535   0.09771   0.10071
 Alpha virt. eigenvalues --    0.10240   0.10349   0.11089   0.11823   0.11978
 Alpha virt. eigenvalues --    0.12129   0.12790   0.13034   0.13497   0.13968

  Beta  occ. eigenvalues --  -14.11778 -10.05541 -10.04840 -10.04795 -10.04399
  Beta  occ. eigenvalues --  -10.04384 -10.04383 -10.03890 -10.03788 -10.03787
  Beta  occ. eigenvalues --  -10.02762 -10.02461 -10.02268 -10.01501 -10.01105
  Beta  occ. eigenvalues --  -10.00921 -10.00811 -10.00602  -0.77530  -0.70050
  Beta  occ. eigenvalues --   -0.68708  -0.66591  -0.63489  -0.60971  -0.59998
  Beta  occ. eigenvalues --   -0.57068  -0.56341  -0.55956  -0.52800  -0.50281
  Beta  occ. eigenvalues --   -0.47053  -0.45771  -0.43346  -0.40596  -0.36435
  Beta  occ. eigenvalues --   -0.35637  -0.34645  -0.32382  -0.32002  -0.31285
  Beta  occ. eigenvalues --   -0.30492  -0.30258  -0.29596  -0.28985  -0.28972
  Beta  occ. eigenvalues --   -0.28008  -0.27561  -0.26784  -0.26526  -0.25757
  Beta  occ. eigenvalues --   -0.25302  -0.23758  -0.23699  -0.22983  -0.22757
  Beta  occ. eigenvalues --   -0.21735  -0.21718  -0.21079  -0.20140  -0.18955
  Beta  occ. eigenvalues --   -0.17827  -0.16604  -0.12360  -0.08882  -0.08566
  Beta  occ. eigenvalues --   -0.05793
  Beta virt. eigenvalues --    0.07748   0.08192   0.08512   0.09703   0.10028
  Beta virt. eigenvalues --    0.10148   0.10173   0.11026   0.11268   0.11840
  Beta virt. eigenvalues --    0.11895   0.12075   0.12910   0.12917   0.13561

 Mulliken charges and spin densities:
               1          2
     1  C   -0.403015   0.006692
     2  C    0.885024   0.081699
     3  C    0.008824   0.150966
     4  C   -0.607731  -0.035817
     5  C    0.568365  -0.058347
     6  C   -0.527919   0.160144
     7  C   -1.116706   0.042577
     8  C    0.668669   0.273034
     9  C   -0.766690   0.032177
    10  C    0.321126   0.136092
    11  N    0.261356   0.194768
    12  C   -0.103332   0.068295
    13  C   -0.586618  -0.053384
    14  C   -0.586646  -0.053403
    15  C    0.449682  -0.040373
    16  C   -0.718823   0.012141
    17  C   -0.718826   0.012147
    18  C   -0.680303  -0.006402
    19  H    0.123955   0.004633
    20  H    0.131109   0.000054
    21  H    0.123962   0.004654
    22  H    0.000960  -0.014211
    23  H    0.075452  -0.006530
    24  H    0.108573  -0.004582
    25  H    0.141489   0.000843
    26  H    0.159266  -0.003173
    27  H    0.098944   0.013050
    28  H    0.093392   0.023331
    29  H    0.093392   0.023329
    30  H    0.098936   0.013060
    31  H    0.159277  -0.003172
    32  H    0.136919   0.000889
    33  H    0.135896  -0.000973
    34  H    0.101384   0.007278
    35  H    0.135914  -0.000640
    36  H    0.135915  -0.000638
    37  H    0.101391   0.007270
    38  H    0.135894  -0.000973
    39  H    0.110458   0.006970
    40  H    0.140626  -0.000427
    41  H    0.110456   0.006953
 Sum of Mulliken charges =  -1.00000   1.00000

 Dipole moment (field-independent basis, Debye):
    X=             -0.2795    Y=              1.5610    Z=             -0.0002  Tot=              1.5858
 Quadrupole moment (field-independent basis, Debye-Ang):
   XX=           -143.3079   YY=           -137.2097   ZZ=           -125.3240
   XY=             -1.2498   XZ=             -0.0001   YZ=             -0.0001

 Summary of Natural Population Analysis:

                                       Natural Population
                Natural  -----------------------------------------------
    Atom  No    Charge         Core      Valence    Rydberg      Total
 -----------------------------------------------------------------------
      C    1   -0.28584      0.99959     2.28146    0.00478     3.28584
      C    2   -0.01692      0.99948     2.00891    0.00853     3.01692
      C    3    0.02110      0.99945     1.97100    0.00845     2.97890
      C    4    0.06825      0.99952     1.91669    0.01555     2.93175
      C    5   -0.00218      0.99947     1.99194    0.01078     3.00218
      C    6   -0.07501      0.99960     2.06200    0.01341     3.07501
      C    7   -0.09712      0.99953     2.08856    0.00903     3.09712
      C    8    0.07361      0.99951     1.91085    0.01602     2.92639
      C    9   -0.13034      0.99946     2.12182    0.00906     3.13034
      C   10    0.14141      0.99954     1.84269    0.01636     2.85859
      N   11   -0.21593      0.99964     2.70308    0.01322     3.71593
      C   12   -0.12141      0.99959     2.11186    0.00997     3.12141
      C   13   -0.27829      0.99966     2.27395    0.00469     3.27829
      C   14   -0.27829      0.99966     2.27395    0.00469     3.27829
      C   15   -0.11845      0.99959     2.11045    0.00840     3.11845
      C   16   -0.27586      0.99965     2.27183    0.00438     3.27586
      C   17   -0.27586      0.99965     2.27183    0.00438     3.27586
      C   18   -0.29686      0.99960     2.29180    0.00546     3.29686
      H   19    0.09577      0.00000     0.40267    0.00156     0.40423
      H   20    0.09336      0.00000     0.40538    0.00126     0.40664
      H   21    0.09577      0.00000     0.40267    0.00156     0.40423
      H   22    0.08474      0.00000     0.41317    0.00208     0.41526
      H   23    0.08442      0.00000     0.41398    0.00160     0.41558
      H   24    0.08786      0.00000     0.41106    0.00108     0.41214
      H   25    0.08718      0.00000     0.41115    0.00167     0.41282
      H   26    0.10405      0.00000     0.39494    0.00102     0.39595
      H   27    0.08591      0.00000     0.41321    0.00088     0.41409
      H   28    0.09731      0.00000     0.40197    0.00071     0.40269
      H   29    0.09731      0.00000     0.40197    0.00071     0.40269
      H   30    0.08591      0.00000     0.41321    0.00088     0.41409
      H   31    0.10405      0.00000     0.39494    0.00102     0.39595
      H   32    0.08894      0.00000     0.40914    0.00193     0.41106
      H   33    0.09802      0.00000     0.40096    0.00102     0.40198
      H   34    0.08694      0.00000     0.41211    0.00095     0.41306
      H   35    0.09938      0.00000     0.39986    0.00076     0.40062
      H   36    0.09938      0.00000     0.39986    0.00076     0.40062
      H   37    0.08694      0.00000     0.41211    0.00095     0.41306
      H   38    0.09802      0.00000     0.40096    0.00102     0.40198
      H   39    0.09388      0.00000     0.40546    0.00066     0.40612
      H   40    0.11675      0.00000     0.38203    0.00122     0.38325
      H   41    0.09388      0.00000     0.40546    0.00066     0.40612
 =======================================================================
   * Total *    0.00179     17.99217    47.81293    0.19310    65.99821

 Normal termination of Gaussian 16 at Fri Dec 11 20:59:06 2020.
