 Gaussian 16, Revision A.03,

 -----------------------------------------------------------
 # opt freq B3LYP/6-31G(d) empiricaldispersion=gd3bj scf=xqc
 -----------------------------------------------------------

 -------------------------------
 CID_148310851_JID_7740_neutraal
 -------------------------------
 Symbolic Z-matrix:
 Charge =  0 Multiplicity = 1

 SCF Done:  E(RB3LYP) =  -1122.40145433     A.U. after   14 cycles
 SCF Done:  E(RB3LYP) =  -1122.41413947     A.U. after   13 cycles
 SCF Done:  E(RB3LYP) =  -1122.41854356     A.U. after   12 cycles
 SCF Done:  E(RB3LYP) =  -1122.41781678     A.U. after   13 cycles
 SCF Done:  E(RB3LYP) =  -1122.42036779     A.U. after   13 cycles
 SCF Done:  E(RB3LYP) =  -1122.42084985     A.U. after   12 cycles
 SCF Done:  E(RB3LYP) =  -1122.42114552     A.U. after   12 cycles
 SCF Done:  E(RB3LYP) =  -1122.42136174     A.U. after   12 cycles
 SCF Done:  E(RB3LYP) =  -1122.42150810     A.U. after   12 cycles
 SCF Done:  E(RB3LYP) =  -1122.42187143     A.U. after   12 cycles
 SCF Done:  E(RB3LYP) =  -1122.42741519     A.U. after   10 cycles
 SCF Done:  E(RB3LYP) =  -1122.42741664     A.U. after    9 cycles
 SCF Done:  E(RB3LYP) =  -1122.42741810     A.U. after    8 cycles
 SCF Done:  E(RB3LYP) =  -1122.42741829     A.U. after    7 cycles
 Optimization completed.
    -- Stationary point found.
 Normal termination of Gaussian 16 at Fri Dec 11 13:41:46 2020.

 --------------------------------------------------------------------
 #N Geom=AllCheck Guess=TCheck SCRF=Check GenChk RB3LYP/6-31G(d) Freq
 --------------------------------------------------------------------

 Structure from the checkpoint file:  "JID_7740.chk"
 -------------------------------
 CID_148310851_JID_7740_neutraal
 -------------------------------
 Charge =  0 Multiplicity = 1

 SCF Done:  E(RB3LYP) =  -1122.42741829     A.U. after    1 cycles

  Exact polarizability: 171.781 -15.029 157.792   0.833  -7.961 123.541
 Approx polarizability: 239.426 -21.339 237.393   7.162 -22.403 203.965

                      1                      2                      3
                      A                      A                      A
 Frequencies --     48.0281                63.0964                69.3554
 Red. masses --      5.1696                 6.3144                 6.2992
 Frc consts  --      0.0070                 0.0148                 0.0179
 IR Inten    --      0.4651                 0.5886                 2.2480

                      4                      5                      6
                      A                      A                      A
 Frequencies --    112.5848               124.7013               145.2541
 Red. masses --      3.8740                 4.4307                 3.7933
 Frc consts  --      0.0289                 0.0406                 0.0472
 IR Inten    --      0.0650                 2.1232                 3.9278

                      7                      8                      9
                      A                      A                      A
 Frequencies --    147.5378               166.3488               181.4868
 Red. masses --      4.5660                 5.0762                 3.8930
 Frc consts  --      0.0586                 0.0828                 0.0755
 IR Inten    --      1.4217                 1.8596                 7.2430

                     10                     11                     12
                      A                      A                      A
 Frequencies --    216.6965               224.1753               264.7559
 Red. masses --      2.4496                 4.4979                 2.6833
 Frc consts  --      0.0678                 0.1332                 0.1108
 IR Inten    --      5.2566                 0.9218                 2.3700

                     13                     14                     15
                      A                      A                      A
 Frequencies --    278.2967               309.8033               317.5800
 Red. masses --      1.0935                 2.7397                 2.5539
 Frc consts  --      0.0499                 0.1549                 0.1518
 IR Inten    --     17.0139                 1.9437                 3.5411

                     16                     17                     18
                      A                      A                      A
 Frequencies --    335.7737               367.8203               384.4988
 Red. masses --      2.3120                 3.0456                 2.1483
 Frc consts  --      0.1536                 0.2428                 0.1871
 IR Inten    --      1.1113                 2.8794                 2.8821

                     19                     20                     21
                      A                      A                      A
 Frequencies --    416.8299               428.4890               443.9628
 Red. masses --      4.1205                 2.2769                 1.9644
 Frc consts  --      0.4218                 0.2463                 0.2281
 IR Inten    --      5.0564                 2.6196                12.4203

                     22                     23                     24
                      A                      A                      A
 Frequencies --    464.2644               497.8267               512.0042
 Red. masses --      1.6735                 2.8376                 3.5313
 Frc consts  --      0.2125                 0.4143                 0.5454
 IR Inten    --     56.4301                13.3757                25.6926

                     25                     26                     27
                      A                      A                      A
 Frequencies --    554.3515               562.0224               625.2938
 Red. masses --      2.7218                 5.3078                 3.5504
 Frc consts  --      0.4928                 0.9878                 0.8179
 IR Inten    --      1.9260                16.9279                 6.8836

                     28                     29                     30
                      A                      A                      A
 Frequencies --    664.7314               691.7180               741.5512
 Red. masses --      1.8577                 3.0352                 5.7067
 Frc consts  --      0.4836                 0.8556                 1.8489
 IR Inten    --     13.5875                23.3639                 1.4132

                     31                     32                     33
                      A                      A                      A
 Frequencies --    752.7290               800.4239               816.8296
 Red. masses --      7.0574                 2.8808                 2.2184
 Frc consts  --      2.3560                 1.0874                 0.8721
 IR Inten    --     12.1203                 4.9060                 3.7567

                     34                     35                     36
                      A                      A                      A
 Frequencies --    819.2516               856.0327               893.8294
 Red. masses --      1.7558                 2.2457                 2.6298
 Frc consts  --      0.6943                 0.9696                 1.2379
 IR Inten    --      0.2623                 2.1056                 0.5749

                     37                     38                     39
                      A                      A                      A
 Frequencies --    936.7592               947.1730               954.0342
 Red. masses --      2.4212                 2.3170                 1.3606
 Frc consts  --      1.2518                 1.2247                 0.7296
 IR Inten    --      0.7363                 6.0326                40.0281

                     40                     41                     42
                      A                      A                      A
 Frequencies --    967.6127               980.6002              1001.1393
 Red. masses --      1.9784                 2.7094                 1.5990
 Frc consts  --      1.0914                 1.5350                 0.9443
 IR Inten    --      4.1358                 3.3078                 1.9935

                     43                     44                     45
                      A                      A                      A
 Frequencies --   1026.9384              1042.0783              1052.5378
 Red. masses --      1.7837                 1.4415                 1.5330
 Frc consts  --      1.1083                 0.9223                 1.0006
 IR Inten    --      7.5046                 5.6301                22.2935

                     46                     47                     48
                      A                      A                      A
 Frequencies --   1054.9423              1090.6043              1116.1625
 Red. masses --      2.0875                 1.9662                 2.0019
 Frc consts  --      1.3688                 1.3779                 1.4695
 IR Inten    --     26.0573                19.5471                14.9591

                     49                     50                     51
                      A                      A                      A
 Frequencies --   1143.5301              1153.5391              1166.9559
 Red. masses --      3.4817                 2.1521                 2.7818
 Frc consts  --      2.6825                 1.6873                 2.2319
 IR Inten    --      4.1333                21.8949                20.0548

                     52                     53                     54
                      A                      A                      A
 Frequencies --   1173.3191              1177.9789              1186.2981
 Red. masses --      1.6577                 1.4140                 3.7408
 Frc consts  --      1.3446                 1.1561                 3.1017
 IR Inten    --     14.8027                37.9456                36.2827

                     55                     56                     57
                      A                      A                      A
 Frequencies --   1200.1608              1238.4472              1242.2291
 Red. masses --      2.2664                 1.1575                 1.4524
 Frc consts  --      1.9233                 1.0460                 1.3205
 IR Inten    --     15.2010                 5.5030                10.5167

                     58                     59                     60
                      A                      A                      A
 Frequencies --   1260.3373              1281.2530              1290.5757
 Red. masses --      1.3590                 1.7938                 1.3603
 Frc consts  --      1.2718                 1.7349                 1.3349
 IR Inten    --    118.8355                77.7101                 5.7061

                     61                     62                     63
                      A                      A                      A
 Frequencies --   1311.4855              1330.4540              1340.9467
 Red. masses --      1.3204                 1.2597                 1.4950
 Frc consts  --      1.3381                 1.3138                 1.5839
 IR Inten    --      8.9200                 5.1493                24.3944

                     64                     65                     66
                      A                      A                      A
 Frequencies --   1361.6765              1368.3460              1374.6390
 Red. masses --      1.6056                 1.5056                 1.3351
 Frc consts  --      1.7540                 1.6609                 1.4864
 IR Inten    --     14.1541                 3.7044                24.6582

                     67                     68                     69
                      A                      A                      A
 Frequencies --   1393.4698              1407.2798              1408.3006
 Red. masses --      1.2616                 1.4209                 1.7121
 Frc consts  --      1.4434                 1.6580                 2.0006
 IR Inten    --      7.2354                 3.1022                41.1809

                     70                     71                     72
                      A                      A                      A
 Frequencies --   1420.2966              1435.6576              1473.7001
 Red. masses --      1.3524                 1.2565                 1.2373
 Frc consts  --      1.6073                 1.5258                 1.5832
 IR Inten    --     36.8298                46.2946                12.2219

                     73                     74                     75
                      A                      A                      A
 Frequencies --   1488.2878              1504.1648              1512.1285
 Red. masses --      1.9028                 1.0774                 1.0842
 Frc consts  --      2.4832                 1.4362                 1.4606
 IR Inten    --     43.5952                 4.2324                 3.8148

                     76                     77                     78
                      A                      A                      A
 Frequencies --   1519.9482              1525.3659              1583.2218
 Red. masses --      1.0906                 1.0998                 1.0901
 Frc consts  --      1.4845                 1.5077                 1.6099
 IR Inten    --     14.6360                 5.7103                 3.4108

                     79                     80                     81
                      A                      A                      A
 Frequencies --   1718.4894              1733.4505              1822.7527
 Red. masses --      5.1531                 6.4707                 9.7285
 Frc consts  --      8.9663                11.4558                19.0438
 IR Inten    --     34.0597                26.3351               344.8215

                     82                     83                     84
                      A                      A                      A
 Frequencies --   2625.9691              2924.3598              2959.1703
 Red. masses --      1.0402                 1.0750                 1.0813
 Frc consts  --      4.2264                 5.4165                 5.5790
 IR Inten    --     60.0250                74.3135                38.5599

                     85                     86                     87
                      A                      A                      A
 Frequencies --   3048.8090              3073.2271              3076.6648
 Red. masses --      1.0678                 1.0650                 1.0608
 Frc consts  --      5.8481                 5.9264                 5.9162
 IR Inten    --     25.9930                17.5779                24.9264

                     88                     89                     90
                      A                      A                      A
 Frequencies --   3091.8827              3092.8695              3115.4456
 Red. masses --      1.0599                 1.0875                 1.0896
 Frc consts  --      5.9700                 6.1294                 6.2309
 IR Inten    --     28.1604                31.0875                41.1917

                     91                     92                     93
                      A                      A                      A
 Frequencies --   3116.8317              3127.0978              3131.3547
 Red. masses --      1.0954                 1.0998                 1.1045
 Frc consts  --      6.2698                 6.3366                 6.3808
 IR Inten    --     11.9466                18.9992                13.0652

                     94                     95                     96
                      A                      A                      A
 Frequencies --   3145.2335              3165.8440              3182.2699
 Red. masses --      1.1056                 1.0593                 1.0923
 Frc consts  --      6.4439                 6.2554                 6.5171
 IR Inten    --     12.3051                 5.3310                 3.0816

                     97                     98                     99
                      A                      A                      A
 Frequencies --   3250.8839              3364.7255              3646.3840
 Red. masses --      1.1154                 1.0722                 1.0786
 Frc consts  --      6.9453                 7.1518                 8.4495
 IR Inten    --      8.6485                 0.8502                46.8267

 - Thermochemistry -
 -------------------
 Temperature   298.150 Kelvin.  Pressure   1.00000 Atm.
 Atom     1 has atomic number  6 and mass  12.00000

 Molecular mass:   254.12013 amu.
 Principal axes and moments of inertia in atomic units:
                           1         2         3
     Eigenvalues --  3018.127244654.932676704.02049
           X            0.99997   0.00547  -0.00535
           Y           -0.00548   0.99998  -0.00130
           Z            0.00535   0.00133   0.99998
 This molecule is an asymmetric top.
 Rotational symmetry number  1.
 Warning -- assumption of classical behavior for rotation
           may cause significant error
 Rotational temperatures (Kelvin)      0.02870     0.01861     0.01292
 Rotational constants (GHZ):           0.59797     0.38771     0.26920
 Zero-point vibrational energy     772537.8 (Joules/Mol)
                                  184.64096 (Kcal/Mol)
 Warning -- explicit consideration of  26 degrees of freedom as
           vibrations may cause significant error
 Vibrational temperatures:     69.10    90.78    99.79   161.98   179.42
          (Kelvin)            208.99   212.27   239.34   261.12   311.78
                              322.54   380.92   400.41   445.74   456.93
                              483.10   529.21   553.21   599.73   616.50
                              638.76   667.97   716.26   736.66   797.59
                              808.62   899.66   956.40   995.23  1066.93
                             1083.01  1151.63  1175.24  1178.72  1231.64
                             1286.02  1347.79  1362.77  1372.64  1392.18
                             1410.86  1440.42  1477.54  1499.32  1514.37
                             1517.83  1569.14  1605.91  1645.28  1659.69
                             1678.99  1688.14  1694.85  1706.82  1726.76
                             1781.85  1787.29  1813.34  1843.44  1856.85
                             1886.94  1914.23  1929.32  1959.15  1968.74
                             1977.80  2004.89  2024.76  2026.23  2043.49
                             2065.59  2120.33  2141.31  2164.16  2175.62
                             2186.87  2194.66  2277.90  2472.52  2494.05
                             2622.53  3778.18  4207.50  4257.59  4386.56
                             4421.69  4426.63  4448.53  4449.95  4482.43
                             4484.43  4499.20  4505.32  4525.29  4554.94
                             4578.58  4677.30  4841.09  5246.33

 Zero-point correction=                           0.294244 (Hartree/Particle)
 Thermal correction to Energy=                    0.310831
 Thermal correction to Enthalpy=                  0.311775
 Thermal correction to Gibbs Free Energy=         0.250732
 Sum of electronic and zero-point Energies=          -1122.133174
 Sum of electronic and thermal Energies=             -1122.116587
 Sum of electronic and thermal Enthalpies=           -1122.115643
 Sum of electronic and thermal Free Energies=        -1122.176687

                     E (Thermal)             CV                S
                      KCal/Mol        Cal/Mol-Kelvin    Cal/Mol-Kelvin
 Total                  195.049             64.418            128.477
 Electronic               0.000              0.000              0.000
 Translational            0.889              2.981             42.498
 Rotational               0.889              2.981             32.910
 Vibrational            193.272             58.456             53.069
 Vibration     1          0.595              1.978              4.897
 Vibration     2          0.597              1.972              4.358
 Vibration     3          0.598              1.969              4.172
 Vibration     4          0.607              1.939              3.224
 Vibration     5          0.610              1.928              3.026
 Vibration     6          0.617              1.908              2.733
 Vibration     7          0.617              1.905              2.704
 Vibration     8          0.624              1.884              2.476
 Vibration     9          0.630              1.865              2.313
 Vibration    10          0.646              1.816              1.987
 Vibration    11          0.649              1.804              1.925
 Vibration    12          0.671              1.738              1.630
 Vibration    13          0.679              1.714              1.544
 Vibration    14          0.699              1.655              1.363
 Vibration    15          0.704              1.640              1.323
 Vibration    16          0.717              1.604              1.232
 Vibration    17          0.740              1.538              1.089
 Vibration    18          0.753              1.503              1.021
 Vibration    19          0.780              1.434              0.903
 Vibration    20          0.790              1.408              0.864
 Vibration    21          0.803              1.374              0.814
 Vibration    22          0.822              1.329              0.754
 Vibration    23          0.853              1.255              0.664
 Vibration    24          0.867              1.223              0.629
 Vibration    25          0.910              1.130              0.535
 Vibration    26          0.918              1.113              0.520

                           ! Non-Optimized Parameters !
 Normal termination of Gaussian 16 at Fri Dec 11 13:58:54 2020.

 ----------------------------------------------------------------------
 # B3LYP/6-311++G(d,p) empiricaldispersion=gd3bj scf=xqc pop=npa geom=c
 heck
 ----------------------------------------------------------------------

 ---------------------------------------
 CID_148310851_JID_7740_Energie_neutraal
 ---------------------------------------
 Structure from the checkpoint file:  "JID_7740.chk"
 Charge =  0 Multiplicity = 1

 SCF Done:  E(RB3LYP) =  -1122.66369003     A.U. after   16 cycles
 Normal termination of Gaussian 16 at Fri Dec 11 14:07:42 2020.

 ----------------------------------------------------------------------
 # B3LYP/6-311++G(d,p) empiricaldispersion=gd3bj scf=xqc pop=npa geom=c
 heck
 ----------------------------------------------------------------------

 -------------------------------------
 CID_148310851_JID_7740_Energie_kation
 -------------------------------------
 Structure from the checkpoint file:  "JID_7740.chk"
 Charge =  1 Multiplicity = 2

 SCF Done:  E(UB3LYP) =  -1122.36490607     A.U. after   33 cycles
 SCF Done:  E(UB3LYP) =  -1122.36545272     a.u. after   10 cycles
 Normal termination of Gaussian 16 at Fri Dec 11 17:53:11 2020.
 Gaussian 16:  ES64L-G16RevA.03 25-Dec-2016

 ----------------------------------------------------------------------
 # B3LYP/6-311++G(d,p) empiricaldispersion=gd3bj scf=xqc pop=npa geom=c
 heck
 ----------------------------------------------------------------------

 ------------------------------------
 CID_148310851_JID_7740_Energie_anion
 ------------------------------------
 Structure from the checkpoint file:  "JID_7740.chk"
 Charge = -1 Multiplicity = 2

                         Standard orientation:
 ---------------------------------------------------------------------
 Center     Atomic      Atomic             Coordinates (Angstroms)
 Number     Number       Type             X           Y           Z
 ---------------------------------------------------------------------
      1          6           0        0.388636    3.132714   -0.443484
      2          6           0        1.038372    2.189542    0.237961
      3          6           0        1.843399    1.081526   -0.399240
      4          6           0        3.298357    1.410010   -0.039154
      5          7           0        3.951585    0.954402    0.950036
      6          7           0        1.512906   -0.257033    0.085805
      7          6           0        2.328807   -1.287126   -0.575020
      8          7           0        1.562768   -2.487454   -0.350131
      9          6           0        0.282336   -2.255909    0.042591
     10          8           0       -0.558413   -3.106545    0.291272
     11          6           0        0.097002   -0.725906    0.063689
     12          6           0       -0.664086   -0.284698    1.327329
     13          6           0       -2.153754   -0.658051    1.278438
     14          7           0       -2.832664   -0.185497    0.060621
     15          6           0       -2.163811   -0.720165   -1.134117
     16          6           0       -0.681113   -0.327067   -1.218606
     17         16           0       -3.035116    1.555865    0.011272
     18          1           0        0.333712    3.119630   -1.529504
     19          1           0       -0.124723    3.945563    0.060315
     20          1           0        1.090653    2.229759    1.323711
     21          1           0        1.741725    1.160444   -1.496339
     22          1           0        3.772291    2.159693   -0.680337
     23          1           0        3.352129    0.287229    1.457288
     24          1           0        3.324732   -1.353811   -0.127228
     25          1           0        2.458363   -1.085787   -1.656525
     26          1           0        1.923329   -3.423407   -0.465846
     27          1           0       -0.585212    0.800838    1.424583
     28          1           0       -0.184468   -0.726491    2.207891
     29          1           0       -2.673686   -0.246769    2.147012
     30          1           0       -2.261715   -1.745933    1.292070
     31          1           0       -2.259821   -1.809963   -1.081749
     32          1           0       -2.699481   -0.371777   -2.020707
     33          1           0       -0.619823    0.757283   -1.346644
     34          1           0       -0.216974   -0.787883   -2.100434
     35          1           0       -4.388912    1.549749    0.015261
 ---------------------------------------------------------------------

 SCF Done:  E(UB3LYP) =  -1122.65929715     A.U. after   33 cycles
 SCF Done:  E(UB3LYP) =  -1122.65929715     a.u. after    1 cycles

 The electronic state is 2-A.
 Alpha  occ. eigenvalues --  -88.76220 -18.99563 -14.24218 -14.23310 -14.21832
 Alpha  occ. eigenvalues --  -14.17305 -10.17489 -10.13546 -10.12218 -10.10986
 Alpha  occ. eigenvalues --  -10.09791 -10.09518 -10.09186 -10.07093 -10.06931
 Alpha  occ. eigenvalues --  -10.06858 -10.05653  -7.84722  -5.81174  -5.80740
 Alpha  occ. eigenvalues --   -5.80039  -0.94862  -0.87850  -0.83559  -0.80676
 Alpha  occ. eigenvalues --   -0.77419  -0.70154  -0.68048  -0.66188  -0.62962
 Alpha  occ. eigenvalues --   -0.60034  -0.58032  -0.53977  -0.52911  -0.49863
 Alpha  occ. eigenvalues --   -0.47784  -0.45696  -0.44898  -0.41938  -0.39781
 Alpha  occ. eigenvalues --   -0.38575  -0.37847  -0.36468  -0.36259  -0.35940
 Alpha  occ. eigenvalues --   -0.35119  -0.33218  -0.32919  -0.32495  -0.30862
 Alpha  occ. eigenvalues --   -0.30069  -0.29258  -0.28885  -0.28503  -0.28306
 Alpha  occ. eigenvalues --   -0.27919  -0.25848  -0.24795  -0.24220  -0.23635
 Alpha  occ. eigenvalues --   -0.20636  -0.17416  -0.16712  -0.16035  -0.15043
 Alpha  occ. eigenvalues --   -0.14270  -0.13182  -0.12996   0.04246
 Alpha virt. eigenvalues --    0.06258   0.06652   0.07732   0.08268   0.08752
 Alpha virt. eigenvalues --    0.09218   0.09762   0.10369   0.10581   0.10696
 Alpha virt. eigenvalues --    0.11375   0.11551   0.11748   0.12053   0.13033

  Beta  occ. eigenvalues --  -88.76206 -18.99559 -14.24184 -14.23310 -14.21802
  Beta  occ. eigenvalues --  -14.17094 -10.17490 -10.13518 -10.12212 -10.11009
  Beta  occ. eigenvalues --  -10.09784 -10.09509 -10.09047 -10.07072 -10.06930
  Beta  occ. eigenvalues --  -10.06764 -10.05517  -7.84704  -5.81156  -5.80727
  Beta  occ. eigenvalues --   -5.80025  -0.94851  -0.87808  -0.83549  -0.80499
  Beta  occ. eigenvalues --   -0.77149  -0.70075  -0.67847  -0.66169  -0.62902
  Beta  occ. eigenvalues --   -0.59859  -0.57963  -0.53946  -0.52724  -0.49811
  Beta  occ. eigenvalues --   -0.47430  -0.45606  -0.44772  -0.41847  -0.39718
  Beta  occ. eigenvalues --   -0.38531  -0.37776  -0.36440  -0.36180  -0.35888
  Beta  occ. eigenvalues --   -0.35017  -0.33134  -0.32858  -0.32457  -0.30761
  Beta  occ. eigenvalues --   -0.29980  -0.29228  -0.28784  -0.28452  -0.28267
  Beta  occ. eigenvalues --   -0.27867  -0.25813  -0.24620  -0.24189  -0.23609
  Beta  occ. eigenvalues --   -0.19647  -0.16829  -0.16642  -0.15953  -0.15003
  Beta  occ. eigenvalues --   -0.13860  -0.13133  -0.12971
  Beta virt. eigenvalues --    0.06613   0.07425   0.08019   0.08291   0.08506
  Beta virt. eigenvalues --    0.08910   0.09346   0.09949   0.10491   0.10665
  Beta virt. eigenvalues --    0.10731   0.11467   0.11796   0.12052   0.12510

 Mulliken charges and spin densities:
               1          2
     1  C   -0.740041   0.018393
     2  C    0.417148   0.090937
     3  C   -0.173962  -0.067502
     4  C   -0.330292   0.024292
     5  N   -0.308396   0.134361
     6  N    0.244887   0.065502
     7  C    0.763319  -0.910266
     8  N   -0.368748   0.143902
     9  C    0.069128  -0.068748
    10  O   -0.367006   0.015476
    11  C    0.299788  -0.686132
    12  C   -0.327172   0.108757
    13  C   -0.512531  -0.095330
    14  N   -0.017943   0.045449
    15  C   -0.527527  -0.187268
    16  C    0.072214   0.183358
    17  S    0.251379  -0.399217
    18  H    0.010630   0.085986
    19  H    0.116848  -0.001377
    20  H    0.190402   0.005580
    21  H    0.201770  -0.012279
    22  H    0.143489  -0.012863
    23  H    0.197425   0.002580
    24  H   -0.145209   0.324208
    25  H   -0.196507   0.371023
    26  H   -0.249488   0.594099
    27  H    0.080999   0.000699
    28  H    0.172160   0.018098
    29  H    0.090863   0.066106
    30  H    0.176028   0.038156
    31  H    0.192940   0.005974
    32  H   -0.104647   0.274024
    33  H    0.195232  -0.007823
    34  H   -0.228493   0.428754
    35  H   -0.288686   0.403090
 Sum of Mulliken charges =  -1.00000   1.00000

 Dipole moment (field-independent basis, Debye):
    X=             -3.2818    Y=              2.3475    Z=              0.6672  Tot=              4.0897
 Quadrupole moment (field-independent basis, Debye-Ang):
   XX=           -183.0910   YY=           -158.3817   ZZ=           -132.1834
   XY=              3.4650   XZ=             -5.4812   YZ=             -3.8109

 Summary of Natural Population Analysis:

                                       Natural Population
                Natural  -----------------------------------------------
    Atom  No    Charge         Core      Valence    Rydberg      Total
 -----------------------------------------------------------------------
      C    1   -0.16380      0.99955     2.15730    0.00695     3.16380
      C    2   -0.08389      0.99954     2.07436    0.00999     3.08389
      C    3   -0.05492      0.99953     2.04159    0.01380     3.05492
      C    4    0.08815      0.99968     1.89378    0.01839     2.91185
      N    5   -0.28895      0.99974     2.78054    0.00868     3.78895
      N    6   -0.28442      0.99968     2.77070    0.01405     3.78442
      C    7    0.01969      0.99963     1.96765    0.01304     2.98031
      N    8   -0.31308      0.99965     2.80316    0.01027     3.81308
      C    9    0.34791      0.99958     1.62694    0.02558     2.65209
      O   10   -0.32777      0.99987     3.32226    0.00565     4.32777
      C   11    0.04447      0.99951     1.94084    0.01519     2.95553
      C   12   -0.20655      0.99958     2.19775    0.00923     3.20655
      C   13   -0.08668      0.99960     2.07606    0.01103     3.08668
      N   14   -0.32861      0.99975     2.81424    0.01461     3.82861
      C   15   -0.08663      0.99960     2.07444    0.01260     3.08663
      C   16   -0.21636      0.99958     2.20704    0.00974     3.21636
      S   17    0.05710      4.99962     2.92436    0.01891     7.94290
      H   18    0.08863      0.00000     0.41019    0.00118     0.41137
      H   19    0.09232      0.00000     0.40668    0.00099     0.40768
      H   20    0.09568      0.00000     0.40285    0.00147     0.40432
      H   21    0.09173      0.00000     0.40610    0.00216     0.40827
      H   22    0.07301      0.00000     0.42517    0.00183     0.42699
      H   23    0.15958      0.00000     0.33793    0.00249     0.34042
      H   24    0.10108      0.00000     0.39712    0.00181     0.39892
      H   25    0.07914      0.00000     0.41909    0.00177     0.42086
      H   26    0.20242      0.00000     0.29209    0.00548     0.29758
      H   27    0.11110      0.00000     0.38758    0.00132     0.38890
      H   28    0.10471      0.00000     0.39415    0.00113     0.39529
      H   29    0.09766      0.00000     0.40146    0.00088     0.40234
      H   30    0.11014      0.00000     0.38864    0.00122     0.38986
      H   31    0.10534      0.00000     0.39331    0.00135     0.39466
      H   32    0.09983      0.00000     0.39922    0.00095     0.40017
      H   33    0.11325      0.00000     0.38505    0.00170     0.38675
      H   34    0.10451      0.00000     0.39398    0.00152     0.39549
      H   35    0.05424      0.00000     0.44235    0.00340     0.44576
 =======================================================================
   * Total *    0.00000     20.99369    46.75598    0.25033    68.00000

 Normal termination of Gaussian 16 at Fri Dec 11 18:19:24 2020.
