 Gaussian 16, Revision A.03,

 -----------------------------------------------------------
 # opt freq B3LYP/6-31G(d) empiricaldispersion=gd3bj scf=xqc
 -----------------------------------------------------------

 -------------------------------
 CID_105934688_JID_5201_neutraal
 -------------------------------
 Symbolic Z-matrix:
 Charge =  0 Multiplicity = 1

 SCF Done:  E(RB3LYP) =  -713.484182637     A.U. after   14 cycles
 SCF Done:  E(RB3LYP) =  -713.488079785     A.U. after   12 cycles
 SCF Done:  E(RB3LYP) =  -713.489082038     A.U. after   12 cycles
 SCF Done:  E(RB3LYP) =  -713.490969887     A.U. after   13 cycles
 SCF Done:  E(RB3LYP) =  -713.491803714     A.U. after   12 cycles
 SCF Done:  E(RB3LYP) =  -713.492349157     A.U. after   14 cycles
 SCF Done:  E(RB3LYP) =  -713.492992946     A.U. after   12 cycles
 SCF Done:  E(RB3LYP) =  -713.494023272     A.U. after   13 cycles
 SCF Done:  E(RB3LYP) =  -713.495312974     A.U. after   14 cycles
 SCF Done:  E(RB3LYP) =  -713.495759587     A.U. after   13 cycles
 SCF Done:  E(RB3LYP) =  -713.498432206     A.U. after   10 cycles
 SCF Done:  E(RB3LYP) =  -713.498438088     A.U. after   10 cycles
 SCF Done:  E(RB3LYP) =  -713.498438565     A.U. after    8 cycles
 SCF Done:  E(RB3LYP) =  -713.498438606     A.U. after    6 cycles
 SCF Done:  E(RB3LYP) =  -713.498438619     A.U. after    6 cycles
 Optimization completed.
    -- Stationary point found.
 Normal termination of Gaussian 16 at Thu Dec 10 15:16:03 2020.

 --------------------------------------------------------------------
 #N Geom=AllCheck Guess=TCheck SCRF=Check GenChk RB3LYP/6-31G(d) Freq
 --------------------------------------------------------------------

 Structure from the checkpoint file:  "JID_5201.chk"
 -------------------------------
 CID_105934688_JID_5201_neutraal
 -------------------------------
 Charge =  0 Multiplicity = 1

 SCF Done:  E(RB3LYP) =  -713.498438619     A.U. after    1 cycles

  Exact polarizability: 152.636   2.499 128.546   0.490   1.085 114.898
 Approx polarizability: 178.152   4.740 175.501   5.310   0.342 183.096

                      1                      2                      3
                      A                      A                      A
 Frequencies --     19.1121                33.1300                42.1900
 Red. masses --      4.1174                 3.3271                 3.4736
 Frc consts  --      0.0009                 0.0022                 0.0036
 IR Inten    --      0.7652                 0.1101                 0.0219

                      4                      5                      6
                      A                      A                      A
 Frequencies --     50.2728                53.7642                89.2928
 Red. masses --      3.2547                 2.8163                 4.2402
 Frc consts  --      0.0048                 0.0048                 0.0199
 IR Inten    --      0.0416                 0.5042                 1.3926

                      7                      8                      9
                      A                      A                      A
 Frequencies --     98.4848               124.0670               135.2094
 Red. masses --      2.5251                 2.9284                 4.4635
 Frc consts  --      0.0144                 0.0266                 0.0481
 IR Inten    --      4.5796                 0.7600                 3.8975

                     10                     11                     12
                      A                      A                      A
 Frequencies --    174.1509               184.1581               227.1625
 Red. masses --      2.7783                 3.1167                 1.8671
 Frc consts  --      0.0496                 0.0623                 0.0568
 IR Inten    --      2.4227                 0.4241                 5.2506

                     13                     14                     15
                      A                      A                      A
 Frequencies --    236.2246               248.4627               250.5303
 Red. masses --      1.1493                 1.0547                 1.8695
 Frc consts  --      0.0378                 0.0384                 0.0691
 IR Inten    --      0.1661                 0.0072                 3.1415

                     16                     17                     18
                      A                      A                      A
 Frequencies --    290.4495               295.0317               319.8870
 Red. masses --      3.0020                 2.0767                 2.9258
 Frc consts  --      0.1492                 0.1065                 0.1764
 IR Inten    --      2.7760                 0.4101                17.1563

                     19                     20                     21
                      A                      A                      A
 Frequencies --    343.9699               388.9213               398.8531
 Red. masses --      2.3661                 1.9822                 2.3847
 Frc consts  --      0.1649                 0.1767                 0.2235
 IR Inten    --      6.8648                 2.9463                 1.8556

                     22                     23                     24
                      A                      A                      A
 Frequencies --    422.5784               448.5914               484.8595
 Red. masses --      3.0454                 2.0751                 2.5845
 Frc consts  --      0.3204                 0.2460                 0.3580
 IR Inten    --      5.6311                 2.2997                 2.6634

                     25                     26                     27
                      A                      A                      A
 Frequencies --    526.8987               583.5910               603.4282
 Red. masses --      2.4442                 2.7667                 3.0116
 Frc consts  --      0.3998                 0.5552                 0.6461
 IR Inten    --      3.2422                 0.9115                 7.1686

                     28                     29                     30
                      A                      A                      A
 Frequencies --    711.6269               725.5010               770.5422
 Red. masses --      1.6731                 1.5516                 2.9340
 Frc consts  --      0.4992                 0.4812                 1.0264
 IR Inten    --     51.0040                16.0194                35.5756

                     31                     32                     33
                      A                      A                      A
 Frequencies --    797.1014               807.7105               854.4361
 Red. masses --      3.4069                 2.3873                 2.1610
 Frc consts  --      1.2754                 0.9176                 0.9295
 IR Inten    --      2.6626                37.7177                29.4938

                     34                     35                     36
                      A                      A                      A
 Frequencies --    896.9364               916.9269               940.9083
 Red. masses --      2.1035                 3.4576                 2.1602
 Frc consts  --      0.9971                 1.7127                 1.1268
 IR Inten    --      8.1907                 2.8325                 4.8807

                     37                     38                     39
                      A                      A                      A
 Frequencies --    946.7061               948.2658               958.8018
 Red. masses --      2.8410                 1.2074                 1.4144
 Frc consts  --      1.5002                 0.6397                 0.7661
 IR Inten    --     29.1196                 2.9106                 0.3037

                     40                     41                     42
                      A                      A                      A
 Frequencies --    975.7957              1017.8896              1025.2761
 Red. masses --      2.0310                 2.0821                 1.6484
 Frc consts  --      1.1394                 1.2710                 1.0210
 IR Inten    --     30.2507                11.7476                 4.2741

                     43                     44                     45
                      A                      A                      A
 Frequencies --   1056.7913              1091.9035              1133.9659
 Red. masses --      1.8304                 2.1163                 2.1948
 Frc consts  --      1.2044                 1.4866                 1.6628
 IR Inten    --      5.2209                13.9855                 3.4971

                     46                     47                     48
                      A                      A                      A
 Frequencies --   1143.6109              1161.4249              1172.7727
 Red. masses --      2.1794                 2.5342                 2.1636
 Frc consts  --      1.6794                 2.0141                 1.7533
 IR Inten    --     17.5127                 3.9841                 4.3585

                     49                     50                     51
                      A                      A                      A
 Frequencies --   1175.0905              1177.2431              1193.9999
 Red. masses --      3.0148                 2.1105                 1.3058
 Frc consts  --      2.4527                 1.7233                 1.0968
 IR Inten    --    127.0397               109.6647                15.9053

                     52                     53                     54
                      A                      A                      A
 Frequencies --   1198.4951              1218.7559              1225.9672
 Red. masses --      1.4179                 1.9757                 1.8498
 Frc consts  --      1.1999                 1.7291                 1.6380
 IR Inten    --     47.5793                 7.8724               149.4612

                     55                     56                     57
                      A                      A                      A
 Frequencies --   1241.3128              1260.9859              1279.6142
 Red. masses --      1.5191                 1.7274                 1.3299
 Frc consts  --      1.3791                 1.6183                 1.2830
 IR Inten    --      9.1036               145.1108                71.6216

                     58                     59                     60
                      A                      A                      A
 Frequencies --   1300.6247              1338.7686              1357.8583
 Red. masses --      1.2505                 1.1913                 1.1701
 Frc consts  --      1.2463                 1.2580                 1.2711
 IR Inten    --      7.3271                 2.8738                 2.4111

                     61                     62                     63
                      A                      A                      A
 Frequencies --   1380.9514              1391.5318              1395.3654
 Red. masses --      1.3847                 1.3090                 1.2936
 Frc consts  --      1.5558                 1.4934                 1.4840
 IR Inten    --     12.4659                 3.8626                16.5941

                     64                     65                     66
                      A                      A                      A
 Frequencies --   1398.4139              1421.1964              1423.2797
 Red. masses --      1.4621                 1.3263                 1.3786
 Frc consts  --      1.6846                 1.5783                 1.6454
 IR Inten    --      1.9977                 3.3772                 5.2161

                     67                     68                     69
                      A                      A                      A
 Frequencies --   1427.0426              1428.4560              1442.1097
 Red. masses --      1.3920                 1.3478                 1.2454
 Frc consts  --      1.6702                 1.6204                 1.5260
 IR Inten    --     20.8843                15.9900                18.5021

                     70                     71                     72
                      A                      A                      A
 Frequencies --   1447.1165              1492.4535              1503.9177
 Red. masses --      1.3747                 1.0753                 1.1021
 Frc consts  --      1.6962                 1.4112                 1.4687
 IR Inten    --     23.7338                 4.5072                 7.8859

                     73                     74                     75
                      A                      A                      A
 Frequencies --   1504.3632              1510.2812              1514.5220
 Red. masses --      1.1550                 1.0473                 1.0485
 Frc consts  --      1.5400                 1.4075                 1.4170
 IR Inten    --      2.3444                 0.4737                 3.4799

                     76                     77                     78
                      A                      A                      A
 Frequencies --   1518.5778              1521.9918              1522.9074
 Red. masses --      1.1360                 1.0524                 1.0860
 Frc consts  --      1.5435                 1.4364                 1.4840
 IR Inten    --     11.1556                15.5694                 5.0799

                     79                     80                     81
                      A                      A                      A
 Frequencies --   1528.0094              1528.6720              1532.4962
 Red. masses --      1.1381                 1.0916                 1.0674
 Frc consts  --      1.5657                 1.5029                 1.4770
 IR Inten    --     13.4038                 0.1075                11.5953

                     82                     83                     84
                      A                      A                      A
 Frequencies --   1536.9829              1548.5197              1561.1782
 Red. masses --      1.0843                 1.0555                 1.0879
 Frc consts  --      1.5092                 1.4912                 1.5622
 IR Inten    --      7.3998                 9.6182                 4.4701

                     85                     86                     87
                      A                      A                      A
 Frequencies --   1800.2583              2968.8533              2986.9679
 Red. masses --     10.8029                 1.0513                 1.0406
 Frc consts  --     20.6282                 5.4595                 5.4703
 IR Inten    --    162.3534                32.1723                88.2643

                     88                     89                     90
                      A                      A                      A
 Frequencies --   2993.2543              3025.3868              3025.4993
 Red. masses --      1.1055                 1.0877                 1.0864
 Frc consts  --      5.8360                 5.8658                 5.8593
 IR Inten    --     85.4055                79.0867                22.6487

                     91                     92                     93
                      A                      A                      A
 Frequencies --   3034.1261              3040.2572              3047.2829
 Red. masses --      1.0621                 1.0635                 1.0634
 Frc consts  --      5.7606                 5.7918                 5.8177
 IR Inten    --     19.1784                41.4577                19.7350

                     94                     95                     96
                      A                      A                      A
 Frequencies --   3061.3318              3063.3941              3065.0717
 Red. masses --      1.0386                 1.0912                 1.0404
 Frc consts  --      5.7348                 6.0336                 5.7588
 IR Inten    --     27.0970                27.7771                 9.1845

                     97                     98                     99
                      A                      A                      A
 Frequencies --   3071.2862              3081.2236              3086.1819
 Red. masses --      1.0783                 1.0973                 1.0847
 Frc consts  --      5.9930                 6.1382                 6.0869
 IR Inten    --     19.7793                76.6364                30.4062

                    100                    101                    102
                      A                      A                      A
 Frequencies --   3088.5446              3114.3422              3123.8360
 Red. masses --      1.0958                 1.1025                 1.0934
 Frc consts  --      6.1589                 6.3002                 6.2863
 IR Inten    --     52.7083                21.2927                10.4092

                    103                    104                    105
                      A                      A                      A
 Frequencies --   3124.3162              3126.9531              3133.4371
 Red. masses --      1.1012                 1.1020                 1.0961
 Frc consts  --      6.3335                 6.3483                 6.3408
 IR Inten    --     15.5968                39.8054                34.2982

                    106                    107                    108
                      A                      A                      A
 Frequencies --   3168.5783              3172.8746              3502.4429
 Red. masses --      1.1006                 1.0998                 1.0730
 Frc consts  --      6.5105                 6.5234                 7.7554
 IR Inten    --      1.7154                19.9854                 1.5289

 - Thermochemistry -
 -------------------
 Temperature   298.150 Kelvin.  Pressure   1.00000 Atm.
 Atom     1 has atomic number  6 and mass  12.00000

 Molecular mass:   217.16779 amu.
 Principal axes and moments of inertia in atomic units:
                           1         2         3
     Eigenvalues --  1895.774496929.318077933.51566
           X            0.99993   0.01143  -0.00419
           Y           -0.01144   0.99993  -0.00077
           Z            0.00418   0.00082   0.99999
 This molecule is an asymmetric top.
 Rotational symmetry number  1.
 Warning -- assumption of classical behavior for rotation
           may cause significant error
 Rotational temperatures (Kelvin)      0.04569     0.01250     0.01092
 Rotational constants (GHZ):           0.95198     0.26045     0.22748
 Zero-point vibrational energy     900087.7 (Joules/Mol)
                                  215.12613 (Kcal/Mol)
 Warning -- explicit consideration of  27 degrees of freedom as
           vibrations may cause significant error
 Vibrational temperatures:     27.50    47.67    60.70    72.33    77.35
          (Kelvin)            128.47   141.70   178.50   194.54   250.56
                              264.96   326.84   339.87   357.48   360.46
                              417.89   424.48   460.25   494.90   559.57
                              573.86   608.00   645.42   697.60   758.09
                              839.66   868.20  1023.87  1043.83  1108.64
                             1146.85  1162.12  1229.34  1290.49  1319.25
                             1353.76  1362.10  1364.34  1379.50  1403.95
                             1464.52  1475.14  1520.49  1571.01  1631.52
                             1645.40  1671.03  1687.36  1690.69  1693.79
                             1717.90  1724.37  1753.52  1763.89  1785.97
                             1814.28  1841.08  1871.31  1926.19  1953.66
                             1986.88  2002.10  2007.62  2012.01  2044.78
                             2047.78  2053.20  2055.23  2074.87  2082.08
                             2147.31  2163.80  2164.44  2172.96  2179.06
                             2184.89  2189.81  2191.12  2198.46  2199.42
                             2204.92  2211.38  2227.97  2246.19  2590.17
                             4271.52  4297.58  4306.63  4352.86  4353.02
                             4365.43  4374.25  4384.36  4404.57  4407.54
                             4409.95  4418.90  4433.19  4440.33  4443.73
                             4480.84  4494.50  4495.19  4498.99  4508.32
                             4558.88  4565.06  5039.23

 Zero-point correction=                           0.342825 (Hartree/Particle)
 Thermal correction to Energy=                    0.360908
 Thermal correction to Enthalpy=                  0.361853
 Thermal correction to Gibbs Free Energy=         0.294512
 Sum of electronic and zero-point Energies=           -713.155613
 Sum of electronic and thermal Energies=              -713.137530
 Sum of electronic and thermal Enthalpies=            -713.136586
 Sum of electronic and thermal Free Energies=         -713.203927

                     E (Thermal)             CV                S
                      KCal/Mol        Cal/Mol-Kelvin    Cal/Mol-Kelvin
 Total                  226.473             65.075            141.731
 Electronic               0.000              0.000              0.000
 Translational            0.889              2.981             42.030
 Rotational               0.889              2.981             33.010
 Vibrational            224.696             59.114             66.691
 Vibration     1          0.593              1.986              6.724
 Vibration     2          0.594              1.983              5.633
 Vibration     3          0.595              1.980              5.154
 Vibration     4          0.595              1.977              4.807
 Vibration     5          0.596              1.976              4.674
 Vibration     6          0.602              1.957              3.675
 Vibration     7          0.604              1.950              3.484
 Vibration     8          0.610              1.929              3.036
 Vibration     9          0.613              1.918              2.871
 Vibration    10          0.627              1.874              2.390
 Vibration    11          0.631              1.861              2.286
 Vibration    12          0.651              1.800              1.901
 Vibration    13          0.655              1.785              1.831
 Vibration    14          0.662              1.765              1.741
 Vibration    15          0.663              1.762              1.727
 Vibration    16          0.686              1.692              1.471
 Vibration    17          0.689              1.683              1.445
 Vibration    18          0.706              1.636              1.311
 Vibration    19          0.723              1.588              1.194
 Vibration    20          0.757              1.494              1.004
 Vibration    21          0.765              1.473              0.967
 Vibration    22          0.785              1.421              0.883
 Vibration    23          0.808              1.364              0.800
 Vibration    24          0.841              1.284              0.697
 Vibration    25          0.882              1.190              0.594
 Vibration    26          0.940              1.067              0.479
 Vibration    27          0.962              1.025              0.444

 Optimization completed.
    -- Stationary point found.
 Normal termination of Gaussian 16 at Thu Dec 10 15:29:02 2020.

 ----------------------------------------------------------------------
 # B3LYP/6-311++G(d,p) empiricaldispersion=gd3bj scf=xqc pop=npa geom=c
 heck
 ----------------------------------------------------------------------

 ---------------------------------------
 CID_105934688_JID_5201_Energie_neutraal
 ---------------------------------------
 Structure from the checkpoint file:  "JID_5201.chk"
 Charge =  0 Multiplicity = 1

 SCF Done:  E(RB3LYP) =  -713.711273183     A.U. after   14 cycles
 Normal termination of Gaussian 16 at Thu Dec 10 15:35:56 2020.

 ----------------------------------------------------------------------
 # B3LYP/6-311++G(d,p) empiricaldispersion=gd3bj scf=xqc pop=npa geom=c
 heck
 ----------------------------------------------------------------------

 -------------------------------------
 CID_105934688_JID_5201_Energie_kation
 -------------------------------------
 Structure from the checkpoint file:  "JID_5201.chk"
 Charge =  1 Multiplicity = 2

 SCF Done:  E(UB3LYP) =  -713.409613861     A.U. after   27 cycles
 Normal termination of Gaussian 16 at Thu Dec 10 15:53:57 2020.
 Gaussian 16:  ES64L-G16RevA.03 25-Dec-2016

 ----------------------------------------------------------------------
 # B3LYP/6-311++G(d,p) empiricaldispersion=gd3bj scf=xqc pop=npa geom=c
 heck
 ----------------------------------------------------------------------

 ------------------------------------
 CID_105934688_JID_5201_Energie_anion
 ------------------------------------
 Structure from the checkpoint file:  "JID_5201.chk"
 Charge = -1 Multiplicity = 2

                         Standard orientation:
 ---------------------------------------------------------------------
 Center     Atomic      Atomic             Coordinates (Angstroms)
 Number     Number       Type             X           Y           Z
 ---------------------------------------------------------------------
      1          6           0        4.465192    1.199902   -0.553725
      2          6           0        3.396990    1.283681    0.531147
      3          6           0        2.291710    2.294427    0.242928
      4          8           0        2.839694   -0.035765    0.839920
      5          6           0        2.151915   -0.709844   -0.095656
      6          8           0        1.942885   -0.327611   -1.231160
      7          6           0        1.671677   -2.064950    0.421121
      8          7           0        0.357815   -2.459278   -0.059123
      9          6           0       -0.766204   -1.910484    0.706046
     10          6           0       -0.944937   -0.381500    0.739265
     11          6           0       -1.253646    0.276622   -0.613557
     12          6           0       -2.522633   -0.235829   -1.312707
     13          6           0       -3.784616   -0.137773   -0.465370
     14          8           0       -3.944414    1.202319   -0.035750
     15          6           0       -5.079224    1.376892    0.780245
     16          1           0        4.022946    0.970794   -1.524661
     17          1           0        5.201555    0.428227   -0.306453
     18          1           0        4.988220    2.160405   -0.620970
     19          1           0        3.874437    1.539137    1.481845
     20          1           0        1.803126    2.083527   -0.709662
     21          1           0        1.539607    2.276792    1.038422
     22          1           0        2.722762    3.301068    0.204152
     23          1           0        2.416945   -2.800405    0.083537
     24          1           0        1.685176   -2.073873    1.514189
     25          1           0        0.282281   -2.204018   -1.042359
     26          1           0       -1.675851   -2.380413    0.313043
     27          1           0       -0.657979   -2.275862    1.735687
     28          1           0       -1.751071   -0.149719    1.448355
     29          1           0       -0.042438    0.079924    1.162679
     30          1           0       -1.361486    1.354660   -0.452519
     31          1           0       -0.401740    0.145385   -1.288464
     32          1           0       -2.673901    0.339670   -2.234087
     33          1           0       -2.404374   -1.284060   -1.618320
     34          1           0       -4.664144   -0.457967   -1.050210
     35          1           0       -3.721952   -0.806622    0.410314
     36          1           0       -6.009341    1.118955    0.247558
     37          1           0       -5.024560    0.759706    1.692289
     38          1           0       -5.115593    2.431235    1.066980
 ---------------------------------------------------------------------

 SCF Done:  E(UB3LYP) =  -713.697755338     A.U. after   33 cycles
 SCF Done:  E(UB3LYP) =  -713.697755338     a.u. after    1 cycles

 The electronic state is 2-A.
 Alpha  occ. eigenvalues --  -19.07847 -19.03554 -19.02424 -14.21353 -10.21310
 Alpha  occ. eigenvalues --  -10.14565 -10.12428 -10.11989 -10.11920 -10.10262
 Alpha  occ. eigenvalues --  -10.07773 -10.07101 -10.07079 -10.07012 -10.06607
 Alpha  occ. eigenvalues --   -1.01702  -0.94924  -0.93437  -0.82264  -0.71294
 Alpha  occ. eigenvalues --   -0.70686  -0.66092  -0.62747  -0.60551  -0.59627
 Alpha  occ. eigenvalues --   -0.56680  -0.54548  -0.51620  -0.46479  -0.45344
 Alpha  occ. eigenvalues --   -0.42388  -0.41416  -0.40502  -0.39759  -0.39310
 Alpha  occ. eigenvalues --   -0.37831  -0.36936  -0.36330  -0.35473  -0.34568
 Alpha  occ. eigenvalues --   -0.33775  -0.32809  -0.32242  -0.30898  -0.30425
 Alpha  occ. eigenvalues --   -0.29842  -0.28850  -0.28022  -0.27753  -0.27384
 Alpha  occ. eigenvalues --   -0.26301  -0.25275  -0.24690  -0.24073  -0.23292
 Alpha  occ. eigenvalues --   -0.22433  -0.21604  -0.19188  -0.17281  -0.14186
 Alpha  occ. eigenvalues --    0.04037
 Alpha virt. eigenvalues --    0.05283   0.06652   0.07129   0.07444   0.08187
 Alpha virt. eigenvalues --    0.08239   0.08759   0.09268   0.09430   0.09894
 Alpha virt. eigenvalues --    0.10341   0.10941   0.11305   0.11710   0.11969

  Beta  occ. eigenvalues --  -19.07844 -19.03545 -19.02419 -14.21352 -10.21304
  Beta  occ. eigenvalues --  -10.14547 -10.12408 -10.11949 -10.11907 -10.10251
  Beta  occ. eigenvalues --  -10.07767 -10.07079 -10.07045 -10.06999 -10.06606
  Beta  occ. eigenvalues --   -1.01691  -0.94910  -0.93427  -0.82256  -0.71271
  Beta  occ. eigenvalues --   -0.70658  -0.66066  -0.62718  -0.60496  -0.59585
  Beta  occ. eigenvalues --   -0.56632  -0.54507  -0.51574  -0.46453  -0.45314
  Beta  occ. eigenvalues --   -0.42361  -0.41384  -0.40447  -0.39734  -0.39285
  Beta  occ. eigenvalues --   -0.37797  -0.36905  -0.36297  -0.35445  -0.34543
  Beta  occ. eigenvalues --   -0.33751  -0.32781  -0.32219  -0.30876  -0.30404
  Beta  occ. eigenvalues --   -0.29812  -0.28822  -0.27996  -0.27724  -0.27362
  Beta  occ. eigenvalues --   -0.26276  -0.25242  -0.24654  -0.24059  -0.23273
  Beta  occ. eigenvalues --   -0.22401  -0.21584  -0.19177  -0.17259  -0.14173
  Beta virt. eigenvalues --    0.06021   0.06467   0.07051   0.07497   0.07778
  Beta virt. eigenvalues --    0.08456   0.08767   0.09140   0.09583   0.09734
  Beta virt. eigenvalues --    0.10279   0.10557   0.11159   0.11533   0.11841

 Mulliken charges and spin densities:
               1          2
     1  C    0.903860  -1.391356
     2  C   -0.687602   0.944111
     3  C    0.462954  -1.117874
     4  O    0.065628   0.017021
     5  C   -0.681957   0.333694
     6  O   -0.207645   0.009118
     7  C    0.770164  -1.228879
     8  N   -0.060110   0.083676
     9  C   -0.488997  -0.362692
    10  C    0.544320  -0.191380
    11  C   -0.766238   0.293536
    12  C    0.107920  -0.383181
    13  C   -0.399196  -0.102818
    14  O   -0.161378   0.056431
    15  C    0.787455  -1.029236
    16  H    0.047022   0.135910
    17  H   -0.084340   0.221055
    18  H   -0.450225   0.612825
    19  H   -0.728032   0.937012
    20  H    0.051740   0.132536
    21  H    0.010767   0.140650
    22  H   -0.249843   0.406473
    23  H   -0.000912   0.210730
    24  H    0.071590   0.139378
    25  H    0.203802   0.022065
    26  H    0.027238   0.162805
    27  H   -0.088917   0.239814
    28  H   -0.041243   0.242957
    29  H    0.294383  -0.120076
    30  H    0.209373  -0.043970
    31  H    0.137917   0.041871
    32  H    0.123885   0.059517
    33  H    0.066367   0.065910
    34  H   -0.163639   0.294099
    35  H    0.193130  -0.039401
    36  H   -0.333089   0.459143
    37  H   -0.314814   0.440305
    38  H   -0.171337   0.308222
 Sum of Mulliken charges =  -1.00000   1.00000

 Dipole moment (field-independent basis, Debye):
    X=             -0.3982    Y=             -3.6190    Z=             -2.3453  Tot=              4.3308
 Quadrupole moment (field-independent basis, Debye-Ang):
   XX=           -214.9426   YY=           -142.5111   ZZ=           -129.0265
   XY=             -8.6422   XZ=              1.0261   YZ=             -2.1988

 Summary of Natural Population Analysis:

                                       Natural Population
                Natural  -----------------------------------------------
    Atom  No    Charge         Core      Valence    Rydberg      Total
 -----------------------------------------------------------------------
      C    1   -0.30101      0.99964     2.29508    0.00629     3.30101
      C    2    0.06249      0.99955     1.92412    0.01384     2.93751
      C    3   -0.30100      0.99964     2.29521    0.00616     3.30100
      O    4   -0.28356      0.99986     3.27367    0.01003     4.28356
      C    5    0.40251      0.99969     1.57055    0.02725     2.59749
      O    6   -0.31785      0.99987     3.31250    0.00549     4.31785
      C    7   -0.13389      0.99958     2.12270    0.01160     3.13389
      N    8   -0.33838      0.99976     2.82742    0.01119     3.83838
      C    9   -0.08863      0.99962     2.07711    0.01190     3.08863
      C   10   -0.20656      0.99962     2.19838    0.00856     3.20656
      C   11   -0.20031      0.99962     2.19251    0.00818     3.20031
      C   12   -0.19719      0.99962     2.18992    0.00765     3.19719
      C   13   -0.01014      0.99959     1.99757    0.01299     3.01014
      O   14   -0.30045      0.99988     3.29048    0.01009     4.30045
      C   15   -0.09630      0.99962     2.08738    0.00929     3.09630
      H   16    0.10858      0.00000     0.39045    0.00097     0.39142
      H   17    0.10272      0.00000     0.39607    0.00121     0.39728
      H   18    0.10599      0.00000     0.39244    0.00156     0.39401
      H   19    0.09453      0.00000     0.40285    0.00262     0.40547
      H   20    0.10908      0.00000     0.38985    0.00108     0.39092
      H   21    0.10337      0.00000     0.39553    0.00111     0.39663
      H   22    0.10510      0.00000     0.39383    0.00108     0.39490
      H   23    0.10574      0.00000     0.39326    0.00100     0.39426
      H   24    0.10487      0.00000     0.39393    0.00120     0.39513
      H   25    0.17750      0.00000     0.31958    0.00291     0.32250
      H   26    0.09247      0.00000     0.40627    0.00125     0.40753
      H   27    0.09195      0.00000     0.40705    0.00101     0.40805
      H   28    0.10167      0.00000     0.39699    0.00134     0.39833
      H   29    0.09831      0.00000     0.40019    0.00151     0.40169
      H   30    0.10397      0.00000     0.39440    0.00163     0.39603
      H   31    0.10585      0.00000     0.39270    0.00145     0.39415
      H   32    0.09962      0.00000     0.39931    0.00108     0.40038
      H   33    0.09497      0.00000     0.40404    0.00100     0.40503
      H   34    0.07967      0.00000     0.41893    0.00140     0.42033
      H   35    0.07738      0.00000     0.42090    0.00172     0.42262
      H   36    0.07778      0.00000     0.42018    0.00204     0.42222
      H   37    0.07916      0.00000     0.41901    0.00183     0.42084
      H   38    0.08998      0.00000     0.40889    0.00112     0.41002
 =======================================================================
   * Total *   -0.00000     14.99515    44.81124    0.19361    60.00000

 Normal termination of Gaussian 16 at Thu Dec 10 16:15:59 2020.
