 Gaussian 16, Revision A.03,

 -----------------------------------------------------------
 # opt freq B3LYP/6-31G(d) empiricaldispersion=gd3bj scf=xqc
 -----------------------------------------------------------

 -----------------------------
 CID_3646180_JID_7352_neutraal
 -----------------------------
 Symbolic Z-matrix:
 Charge =  0 Multiplicity = 1

 SCF Done:  E(RB3LYP) =  -802.068847956     A.U. after   18 cycles
 SCF Done:  E(RB3LYP) =  -802.071950892     A.U. after   15 cycles
 SCF Done:  E(RB3LYP) =  -802.068917576     A.U. after   15 cycles
 SCF Done:  E(RB3LYP) =  -802.070071557     A.U. after   15 cycles
 SCF Done:  E(RB3LYP) =  -802.073186521     A.U. after   11 cycles
 SCF Done:  E(RB3LYP) =  -802.074337365     A.U. after   14 cycles
 SCF Done:  E(RB3LYP) =  -802.073872428     A.U. after   15 cycles
 SCF Done:  E(RB3LYP) =  -802.074713597     A.U. after   13 cycles
 SCF Done:  E(RB3LYP) =  -802.074753659     A.U. after   13 cycles
 SCF Done:  E(RB3LYP) =  -802.074789763     A.U. after   11 cycles
 SCF Done:  E(RB3LYP) =  -802.074842599     A.U. after   11 cycles
 SCF Done:  E(RB3LYP) =  -802.074848816     A.U. after   11 cycles
 SCF Done:  E(RB3LYP) =  -802.074854146     A.U. after   10 cycles
 SCF Done:  E(RB3LYP) =  -802.074854163     A.U. after   10 cycles
 SCF Done:  E(RB3LYP) =  -802.074854548     A.U. after    8 cycles
 Optimization completed.
    -- Stationary point found.
 Normal termination of Gaussian 16 at Sun Dec 13 12:37:22 2020.

 --------------------------------------------------------------------
 #N Geom=AllCheck Guess=TCheck SCRF=Check GenChk RB3LYP/6-31G(d) Freq
 --------------------------------------------------------------------

 Structure from the checkpoint file:  "JID_7352.chk"
 -----------------------------
 CID_3646180_JID_7352_neutraal
 -----------------------------
 Charge =  0 Multiplicity = 1

 SCF Done:  E(RB3LYP) =  -802.074854548     A.U. after    1 cycles

  Exact polarizability: 180.104  -1.144 148.776   9.895  -4.649 110.242
 Approx polarizability: 259.808  -6.641 257.967  24.042  -8.085 179.152

                      1                      2                      3
                      A                      A                      A
 Frequencies --     23.8938                37.7179                51.0944
 Red. masses --      3.1735                 5.7022                 9.4398
 Frc consts  --      0.0011                 0.0048                 0.0145
 IR Inten    --      0.1098                 0.9991                 0.2671

                      4                      5                      6
                      A                      A                      A
 Frequencies --     64.7997                93.0139               119.3119
 Red. masses --      4.7099                 3.1142                 3.9562
 Frc consts  --      0.0117                 0.0159                 0.0332
 IR Inten    --      0.7917                 0.7592                 1.8710

                      7                      8                      9
                      A                      A                      A
 Frequencies --    158.3692               204.8398               208.7126
 Red. masses --      7.7745                 1.5995                 1.7470
 Frc consts  --      0.1149                 0.0395                 0.0448
 IR Inten    --      1.8905                 0.3789                 2.0956

                     10                     11                     12
                      A                      A                      A
 Frequencies --    231.6772               246.0760               257.2866
 Red. masses --      2.5082                 1.2634                 3.0249
 Frc consts  --      0.0793                 0.0451                 0.1180
 IR Inten    --      3.3294                 0.3596                 1.2007

                     13                     14                     15
                      A                      A                      A
 Frequencies --    283.7035               290.8057               301.9435
 Red. masses --      2.7423                 1.5185                 1.1020
 Frc consts  --      0.1300                 0.0757                 0.0592
 IR Inten    --      1.3903                 1.2145                 0.1835

                     16                     17                     18
                      A                      A                      A
 Frequencies --    344.1523               354.5412               374.4039
 Red. masses --      3.4143                 2.5312                 3.8381
 Frc consts  --      0.2383                 0.1875                 0.3170
 IR Inten    --      5.3849                 0.7472                 4.2661

                     19                     20                     21
                      A                      A                      A
 Frequencies --    380.8203               383.5981               425.5716
 Red. masses --      2.8284                 3.4338                 4.7996
 Frc consts  --      0.2417                 0.2977                 0.5121
 IR Inten    --      0.8926                 1.7502                 0.6957

                     22                     23                     24
                      A                      A                      A
 Frequencies --    462.2057               479.9820               511.4820
 Red. masses --      3.0119                 3.8102                 3.4696
 Frc consts  --      0.3791                 0.5172                 0.5348
 IR Inten    --      3.0775                 2.1773                 1.4102

                     25                     26                     27
                      A                      A                      A
 Frequencies --    539.4935               573.9864               597.0011
 Red. masses --      3.4693                 3.5702                 1.7576
 Frc consts  --      0.5949                 0.6930                 0.3691
 IR Inten    --      9.2377                12.8821                28.0788

                     28                     29                     30
                      A                      A                      A
 Frequencies --    621.6427               646.5047               737.8740
 Red. masses --      3.8283                 4.3089                 2.3651
 Frc consts  --      0.8716                 1.0611                 0.7587
 IR Inten    --     27.9047                 5.3470                18.9729

                     31                     32                     33
                      A                      A                      A
 Frequencies --    752.0439               770.3807               774.9346
 Red. masses --      5.5419                 5.0311                 7.1368
 Frc consts  --      1.8467                 1.7592                 2.5251
 IR Inten    --     21.4824                24.1175                13.8750

                     34                     35                     36
                      A                      A                      A
 Frequencies --    805.1400               828.0659               834.5004
 Red. masses --      3.6127                 4.3737                 2.0031
 Frc consts  --      1.3798                 1.7670                 0.8219
 IR Inten    --      4.1918                 0.7201                15.4842

                     37                     38                     39
                      A                      A                      A
 Frequencies --    892.2890               935.7364               939.3077
 Red. masses --      5.7571                 1.7130                 1.7848
 Frc consts  --      2.7007                 0.8837                 0.9278
 IR Inten    --     21.6235                 1.4022                 6.5255

                     40                     41                     42
                      A                      A                      A
 Frequencies --    951.4108               979.7726               988.1602
 Red. masses --      1.3806                 1.1964                 1.3069
 Frc consts  --      0.7363                 0.6766                 0.7519
 IR Inten    --      1.2281                 0.0214                 2.9033

                     43                     44                     45
                      A                      A                      A
 Frequencies --    995.0377              1066.3584              1066.5125
 Red. masses --      2.0741                 1.6440                 1.3894
 Frc consts  --      1.2099                 1.1015                 0.9312
 IR Inten    --     20.8453                 2.1926                 1.0120

                     46                     47                     48
                      A                      A                      A
 Frequencies --   1074.5528              1078.3383              1114.4640
 Red. masses --      1.4615                 1.5084                 2.1630
 Frc consts  --      0.9942                 1.0334                 1.5828
 IR Inten    --      2.4914                 0.8492                 4.3481

                     49                     50                     51
                      A                      A                      A
 Frequencies --   1171.1990              1193.8742              1232.3598
 Red. masses --      6.7910                 1.2273                 2.6526
 Frc consts  --      5.4884                 1.0306                 2.3735
 IR Inten    --     22.3520                 1.3447                10.2015

                     52                     53                     54
                      A                      A                      A
 Frequencies --   1245.2693              1262.8202              1266.3872
 Red. masses --      2.2325                 1.7272                 2.7395
 Frc consts  --      2.0397                 1.6228                 2.5886
 IR Inten    --     40.1548                 6.8689                 9.2931

                     55                     56                     57
                      A                      A                      A
 Frequencies --   1282.3744              1345.7567              1399.1402
 Red. masses --      3.1779                 7.2265                 9.4858
 Frc consts  --      3.0791                 7.7110                10.9407
 IR Inten    --     39.8677                32.6673               382.4575

                     58                     59                     60
                      A                      A                      A
 Frequencies --   1407.8484              1427.9153              1428.6233
 Red. masses --      4.4590                 1.2455                 1.2439
 Frc consts  --      5.2071                 1.4962                 1.4958
 IR Inten    --    122.6353                 5.5492                 7.3459

                     61                     62                     63
                      A                      A                      A
 Frequencies --   1446.7358              1454.7035              1480.9123
 Red. masses --      1.2042                 1.2742                 2.1495
 Frc consts  --      1.4850                 1.5887                 2.7775
 IR Inten    --      5.7180                37.8182                16.8993

                     64                     65                     66
                      A                      A                      A
 Frequencies --   1485.8503              1497.8923              1507.5052
 Red. masses --      1.4475                 1.6924                 1.0658
 Frc consts  --      1.8828                 2.2372                 1.4271
 IR Inten    --      9.0163                54.1548                 0.2965

                     67                     68                     69
                      A                      A                      A
 Frequencies --   1517.2096              1520.5919              1522.4075
 Red. masses --      1.4731                 1.0490                 1.0830
 Frc consts  --      1.9979                 1.4291                 1.4790
 IR Inten    --      3.4185                 1.4311                 4.1803

                     70                     71                     72
                      A                      A                      A
 Frequencies --   1532.4629              1536.1946              1538.7945
 Red. masses --      1.1433                 1.1035                 1.0547
 Frc consts  --      1.5820                 1.5344                 1.4715
 IR Inten    --     10.0781                 6.5730                 2.1455

                     73                     74                     75
                      A                      A                      A
 Frequencies --   1554.1955              1625.3448              1631.8263
 Red. masses --      1.0606                 8.5503                 5.9931
 Frc consts  --      1.5095                13.3082                 9.4026
 IR Inten    --     15.5442                96.7768                50.8651

                     76                     77                     78
                      A                      A                      A
 Frequencies --   1669.0418              1755.9950              3050.0361
 Red. masses --      7.9227                 7.7259                 1.0362
 Frc consts  --     13.0034                14.0362                 5.6792
 IR Inten    --     76.2452               347.7130                18.5887

                     79                     80                     81
                      A                      A                      A
 Frequencies --   3059.3295              3066.0443              3081.8947
 Red. masses --      1.0371                 1.0380                 1.0401
 Frc consts  --      5.7190                 5.7490                 5.8207
 IR Inten    --     21.1276                10.6268                 5.8230

                     82                     83                     84
                      A                      A                      A
 Frequencies --   3116.8558              3124.8850              3128.5997
 Red. masses --      1.1033                 1.1025                 1.1022
 Frc consts  --      6.3151                 6.3431                 6.3566
 IR Inten    --     16.7489                16.6678                16.0410

                     85                     86                     87
                      A                      A                      A
 Frequencies --   3140.2222              3145.9756              3154.1638
 Red. masses --      1.1010                 1.0962                 1.1003
 Frc consts  --      6.3969                 6.3919                 6.4498
 IR Inten    --     40.8956                 5.5267                 7.2204

                     88                     89                     90
                      A                      A                      A
 Frequencies --   3157.7195              3179.5377              3203.9909
 Red. masses --      1.0998                 1.1032                 1.0878
 Frc consts  --      6.4613                 6.5711                 6.5792
 IR Inten    --     33.3102                 4.9509                 3.5069

                     91                     92                     93
                      A                      A                      A
 Frequencies --   3219.5993              3252.6354              3570.2904
 Red. masses --      1.0944                 1.0929                 1.0753
 Frc consts  --      6.6837                 6.8126                 8.0757
 IR Inten    --      9.6027                 1.2321                23.2166

 - Thermochemistry -
 -------------------
 Temperature   298.150 Kelvin.  Pressure   1.00000 Atm.
 Atom     1 has atomic number  6 and mass  12.00000

 Molecular mass:   236.11609 amu.
 Principal axes and moments of inertia in atomic units:
                           1         2         3
     Eigenvalues --  2184.184286200.300706441.00901
           X            0.99970  -0.00939  -0.02268
           Y            0.00797   0.99804  -0.06203
           Z            0.02322   0.06183   0.99782
 This molecule is an asymmetric top.
 Rotational symmetry number  1.
 Warning -- assumption of classical behavior for rotation
           may cause significant error
 Rotational temperatures (Kelvin)      0.03966     0.01397     0.01345
 Rotational constants (GHZ):           0.82628     0.29107     0.28020
 Zero-point vibrational energy     714448.9 (Joules/Mol)
                                  170.75738 (Kcal/Mol)
 Warning -- explicit consideration of  27 degrees of freedom as
           vibrations may cause significant error
 Vibrational temperatures:     34.38    54.27    73.51    93.23   133.83
          (Kelvin)            171.66   227.86   294.72   300.29   333.33
                              354.05   370.18   408.19   418.40   434.43
                              495.16   510.11   538.68   547.92   551.91
                              612.30   665.01   690.59   735.91   776.21
                              825.84   858.95   894.41   930.18  1061.64
                             1082.02  1108.41  1114.96  1158.42  1191.40
                             1200.66  1283.80  1346.32  1351.45  1368.87
                             1409.67  1421.74  1431.64  1534.25  1534.47
                             1546.04  1551.49  1603.47  1685.09  1717.72
                             1773.09  1791.66  1816.92  1822.05  1845.05
                             1936.24  2013.05  2025.58  2054.45  2055.47
                             2081.53  2092.99  2130.70  2137.81  2155.13
                             2168.96  2182.93  2187.79  2190.40  2204.87
                             2210.24  2213.98  2236.14  2338.51  2347.83
                             2401.38  2526.49  4388.32  4401.69  4411.35
                             4434.16  4484.46  4496.01  4501.36  4518.08
                             4526.36  4538.14  4543.25  4574.65  4609.83
                             4632.29  4679.82  5136.85

 Zero-point correction=                           0.272119 (Hartree/Particle)
 Thermal correction to Energy=                    0.289051
 Thermal correction to Enthalpy=                  0.289995
 Thermal correction to Gibbs Free Energy=         0.226852
 Sum of electronic and zero-point Energies=           -801.802735
 Sum of electronic and thermal Energies=              -801.785804
 Sum of electronic and thermal Enthalpies=            -801.784860
 Sum of electronic and thermal Free Energies=         -801.848003

                     E (Thermal)             CV                S
                      KCal/Mol        Cal/Mol-Kelvin    Cal/Mol-Kelvin
 Total                  181.382             64.037            132.896
 Electronic               0.000              0.000              0.000
 Translational            0.889              2.981             42.279
 Rotational               0.889              2.981             32.834
 Vibrational            179.605             58.076             57.783
 Vibration     1          0.593              1.985              6.281
 Vibration     2          0.594              1.982              5.375
 Vibration     3          0.595              1.977              4.775
 Vibration     4          0.597              1.971              4.305
 Vibration     5          0.602              1.954              3.596
 Vibration     6          0.609              1.933              3.111
 Vibration     7          0.621              1.893              2.569
 Vibration     8          0.640              1.833              2.089
 Vibration     9          0.642              1.827              2.055
 Vibration    10          0.653              1.793              1.866
 Vibration    11          0.661              1.769              1.759
 Vibration    12          0.667              1.750              1.680
 Vibration    13          0.682              1.704              1.511
 Vibration    14          0.687              1.691              1.469
 Vibration    15          0.694              1.670              1.406
 Vibration    16          0.723              1.587              1.193
 Vibration    17          0.730              1.566              1.146
 Vibration    18          0.746              1.525              1.062
 Vibration    19          0.751              1.511              1.036
 Vibration    20          0.753              1.505              1.025
 Vibration    21          0.787              1.415              0.873
 Vibration    22          0.820              1.334              0.760
 Vibration    23          0.836              1.294              0.710
 Vibration    24          0.867              1.225              0.630
 Vibration    25          0.895              1.163              0.566
 Vibration    26          0.930              1.088              0.497
 Vibration    27          0.955              1.038              0.455

                           ! Non-Optimized Parameters !
 Normal termination of Gaussian 16 at Sun Dec 13 12:50:16 2020.

 ----------------------------------------------------------------------
 # B3LYP/6-311++G(d,p) empiricaldispersion=gd3bj scf=xqc pop=npa geom=c
 heck
 ----------------------------------------------------------------------

 -------------------------------------
 CID_3646180_JID_7352_Energie_neutraal
 -------------------------------------
 Structure from the checkpoint file:  "JID_7352.chk"
 Charge =  0 Multiplicity = 1

 SCF Done:  E(RB3LYP) =  -802.304164364     A.U. after   19 cycles
 Normal termination of Gaussian 16 at Sun Dec 13 12:58:02 2020.

 ----------------------------------------------------------------------
 # B3LYP/6-311++G(d,p) empiricaldispersion=gd3bj scf=xqc pop=npa geom=c
 heck
 ----------------------------------------------------------------------

 -----------------------------------
 CID_3646180_JID_7352_Energie_kation
 -----------------------------------
 Structure from the checkpoint file:  "JID_7352.chk"
 Charge =  1 Multiplicity = 2

 SCF Done:  E(UB3LYP) =  -801.975252215     A.U. after   33 cycles
 SCF Done:  E(UB3LYP) =  -801.975252215     a.u. after    1 cycles
 Normal termination of Gaussian 16 at Sun Dec 13 13:18:00 2020.
 Gaussian 16:  ES64L-G16RevA.03 25-Dec-2016

 ----------------------------------------------------------------------
 # B3LYP/6-311++G(d,p) empiricaldispersion=gd3bj scf=xqc pop=npa geom=c
 heck
 ----------------------------------------------------------------------

 ----------------------------------
 CID_3646180_JID_7352_Energie_anion
 ----------------------------------
 Structure from the checkpoint file:  "JID_7352.chk"
 Charge = -1 Multiplicity = 2

                         Standard orientation:
 ---------------------------------------------------------------------
 Center     Atomic      Atomic             Coordinates (Angstroms)
 Number     Number       Type             X           Y           Z
 ---------------------------------------------------------------------
      1          6           0       -0.912154   -1.842216    0.798530
      2          6           0       -1.009201   -0.370285    0.481093
      3          6           0        0.074839    0.487888    0.756237
      4          6           0       -0.007317    1.862606    0.521056
      5          6           0       -1.165570    2.430840   -0.006157
      6          6           0       -2.243432    1.611688   -0.310219
      7          6           0       -2.144526    0.238540   -0.081739
      8          7           0       -3.319207   -0.557386   -0.475633
      9          8           0       -4.411150    0.010821   -0.490385
     10          8           0       -3.144368   -1.734225   -0.792544
     11          6           0        1.311884   -0.034495    1.445714
     12          8           0        1.277141   -0.299243    2.644422
     13          7           0        2.471972   -0.149478    0.733905
     14          6           0        2.771087   -0.163561   -0.720967
     15          6           0        4.196236   -0.729472   -0.829234
     16          6           0        1.805674   -1.080906   -1.488197
     17          6           0        2.747170    1.255308   -1.312730
     18          1           0       -0.700072   -2.422581   -0.104570
     19          1           0       -0.124162   -2.013455    1.532068
     20          1           0       -1.850729   -2.227695    1.200445
     21          1           0        0.842671    2.490627    0.768609
     22          1           0       -1.226349    3.500532   -0.177891
     23          1           0       -3.163548    2.007057   -0.721115
     24          1           0        3.220411   -0.477781    1.334522
     25          1           0        4.245439   -1.746444   -0.423747
     26          1           0        4.509336   -0.765851   -1.876499
     27          1           0        4.910028   -0.100341   -0.284601
     28          1           0        1.788829   -2.081336   -1.044383
     29          1           0        0.788165   -0.684613   -1.491750
     30          1           0        2.131647   -1.171441   -2.529882
     31          1           0        1.736250    1.668196   -1.320222
     32          1           0        3.393026    1.924130   -0.734421
     33          1           0        3.108559    1.234617   -2.346721
 ---------------------------------------------------------------------

 SCF Done:  E(UB3LYP) =  -802.339445340     A.U. after   25 cycles

 The electronic state is 2-A.
 Alpha  occ. eigenvalues --  -18.98168 -18.93818 -18.93804 -14.31466 -14.23766
 Alpha  occ. eigenvalues --  -10.16776 -10.14482 -10.09650 -10.07591 -10.07187
 Alpha  occ. eigenvalues --  -10.06186 -10.05750 -10.05601 -10.04572 -10.03939
 Alpha  occ. eigenvalues --  -10.03468 -10.03246  -1.01982  -0.93326  -0.84814
 Alpha  occ. eigenvalues --   -0.83067  -0.73708  -0.71164  -0.64823  -0.64624
 Alpha  occ. eigenvalues --   -0.61956  -0.60724  -0.57429  -0.52961  -0.52256
 Alpha  occ. eigenvalues --   -0.49729  -0.45043  -0.43369  -0.40382  -0.38257
 Alpha  occ. eigenvalues --   -0.37545  -0.36144  -0.35775  -0.34503  -0.34220
 Alpha  occ. eigenvalues --   -0.33515  -0.32515  -0.31833  -0.31407  -0.30899
 Alpha  occ. eigenvalues --   -0.29476  -0.29270  -0.28687  -0.28248  -0.28149
 Alpha  occ. eigenvalues --   -0.26313  -0.25775  -0.25471  -0.23293  -0.22853
 Alpha  occ. eigenvalues --   -0.22474  -0.16078  -0.15531  -0.13299  -0.12961
 Alpha  occ. eigenvalues --   -0.12258  -0.11475  -0.09347   0.03166
 Alpha virt. eigenvalues --    0.05674   0.08087   0.08213   0.09108   0.09833
 Alpha virt. eigenvalues --    0.10178   0.10916   0.10992   0.11445   0.11791
 Alpha virt. eigenvalues --    0.12168   0.13018   0.13605   0.13695   0.14593

  Beta  occ. eigenvalues --  -18.98172 -18.93351 -18.93267 -14.30822 -14.23763
  Beta  occ. eigenvalues --  -10.16769 -10.14483 -10.09650 -10.07584 -10.07184
  Beta  occ. eigenvalues --  -10.06090 -10.05662 -10.05598 -10.04639 -10.03649
  Beta  occ. eigenvalues --  -10.03303 -10.03256  -1.00898  -0.93330  -0.83869
  Beta  occ. eigenvalues --   -0.83065  -0.73420  -0.71155  -0.64574  -0.64161
  Beta  occ. eigenvalues --   -0.61916  -0.60713  -0.57190  -0.52770  -0.51546
  Beta  occ. eigenvalues --   -0.49609  -0.44897  -0.43033  -0.40338  -0.37890
  Beta  occ. eigenvalues --   -0.37486  -0.35884  -0.35284  -0.34357  -0.33829
  Beta  occ. eigenvalues --   -0.32503  -0.31817  -0.31342  -0.31190  -0.30419
  Beta  occ. eigenvalues --   -0.29326  -0.29044  -0.28586  -0.28150  -0.27824
  Beta  occ. eigenvalues --   -0.26232  -0.25735  -0.25411  -0.23124  -0.22509
  Beta  occ. eigenvalues --   -0.22053  -0.16072  -0.15419  -0.12025  -0.11664
  Beta  occ. eigenvalues --   -0.10993  -0.09662  -0.08679
  Beta virt. eigenvalues --    0.05662   0.08058   0.08190   0.09086   0.09752
  Beta virt. eigenvalues --    0.09828   0.10709   0.10908   0.11056   0.11462
  Beta virt. eigenvalues --    0.11825   0.12469   0.13012   0.13624   0.14589

 Mulliken charges and spin densities:
               1          2
     1  C   -0.609625  -0.014713
     2  C    1.321617   0.100478
     3  C    0.788004  -0.027809
     4  C   -0.667933   0.209329
     5  C   -0.535295  -0.028602
     6  C   -0.098144   0.179341
     7  C   -0.709439  -0.040504
     8  N   -0.243245   0.223393
     9  O   -0.164695   0.177606
    10  O   -0.191507   0.195610
    11  C   -0.726174   0.024390
    12  O   -0.274595   0.001121
    13  N   -0.175999  -0.001992
    14  C    0.315215  -0.016323
    15  C   -0.518704  -0.000612
    16  C   -0.572978   0.011488
    17  C   -0.635362  -0.000953
    18  H    0.158038   0.003761
    19  H    0.172339   0.000013
    20  H    0.189379   0.007693
    21  H    0.129765  -0.016911
    22  H    0.125714   0.005392
    23  H    0.209737   0.000610
    24  H    0.312662  -0.000282
    25  H    0.152238  -0.000105
    26  H    0.139304   0.000640
    27  H    0.136124   0.000117
    28  H    0.155767  -0.001464
    29  H    0.223168   0.007078
    30  H    0.133275   0.002490
    31  H    0.188932   0.000058
    32  H    0.159080  -0.000915
    33  H    0.113337   0.000577
 Sum of Mulliken charges =  -1.00000   1.00000

 Dipole moment (field-independent basis, Debye):
    X=             13.2813    Y=              1.7003    Z=             -2.1385  Tot=             13.5594
 Quadrupole moment (field-independent basis, Debye-Ang):
   XX=           -159.5150   YY=           -115.0602   ZZ=           -123.3581
   XY=             -9.9014   XZ=            -13.0193   YZ=             -3.0346

 Summary of Natural Population Analysis:

                                       Natural Population
                Natural  -----------------------------------------------
    Atom  No    Charge         Core      Valence    Rydberg      Total
 -----------------------------------------------------------------------
      C    1   -0.29767      0.99963     2.29304    0.00500     3.29767
      C    2    0.01915      0.99945     1.97021    0.01120     2.98085
      C    3   -0.08538      0.99942     2.07324    0.01273     3.08538
      C    4   -0.04888      0.99953     2.04095    0.00840     3.04888
      C    5   -0.12685      0.99957     2.11846    0.00882     3.12685
      C    6   -0.06048      0.99953     2.05208    0.00888     3.06048
      C    7    0.05870      0.99936     1.92750    0.01444     2.94130
      N    8    0.30611      0.99972     2.16543    0.02875     3.19389
      O    9   -0.19771      0.99990     3.19019    0.00762     4.19771
      O   10   -0.18693      0.99990     3.17918    0.00786     4.18693
      C   11    0.35173      0.99961     1.62508    0.02358     2.64827
      O   12   -0.32391      0.99988     3.31812    0.00592     4.32391
      N   13   -0.32986      0.99964     2.81744    0.01279     3.82986
      C   14    0.05942      0.99960     1.93230    0.00867     2.94058
      C   15   -0.28649      0.99963     2.28144    0.00542     3.28649
      C   16   -0.29169      0.99962     2.28643    0.00564     3.29169
      C   17   -0.28976      0.99962     2.28446    0.00567     3.28976
      H   18    0.10797      0.00000     0.39092    0.00111     0.39203
      H   19    0.09862      0.00000     0.40039    0.00099     0.40138
      H   20    0.11517      0.00000     0.38366    0.00117     0.38483
      H   21    0.09110      0.00000     0.40755    0.00135     0.40890
      H   22    0.09330      0.00000     0.40569    0.00101     0.40670
      H   23    0.11195      0.00000     0.38684    0.00120     0.38805
      H   24    0.18856      0.00000     0.30968    0.00176     0.31144
      H   25    0.10027      0.00000     0.39887    0.00086     0.39973
      H   26    0.10133      0.00000     0.39799    0.00069     0.39867
      H   27    0.09810      0.00000     0.40106    0.00084     0.40190
      H   28    0.10191      0.00000     0.39731    0.00078     0.39809
      H   29    0.11839      0.00000     0.38077    0.00084     0.38161
      H   30    0.09554      0.00000     0.40370    0.00076     0.40446
      H   31    0.11647      0.00000     0.38268    0.00085     0.38353
      H   32    0.09771      0.00000     0.40147    0.00083     0.40229
      H   33    0.09413      0.00000     0.40510    0.00077     0.40587
 =======================================================================
   * Total *    0.00000     16.99358    45.80922    0.19720    63.00000

 Normal termination of Gaussian 16 at Sun Dec 13 13:32:47 2020.
