 Gaussian 16, Revision A.03,

 -----------------------------------------------------------
 # opt freq B3LYP/6-31G(d) empiricaldispersion=gd3bj scf=xqc
 -----------------------------------------------------------

 -------------------------------
 CID_139889572_JID_1499_neutraal
 -------------------------------
 Symbolic Z-matrix:
 Charge =  0 Multiplicity = 1

 SCF Done:  E(RB3LYP) =  -535.166265438     A.U. after   14 cycles
 SCF Done:  E(RB3LYP) =  -535.170335428     A.U. after   12 cycles
 SCF Done:  E(RB3LYP) =  -535.171197911     A.U. after   11 cycles
 SCF Done:  E(RB3LYP) =  -535.172387210     A.U. after   12 cycles
 SCF Done:  E(RB3LYP) =  -535.173398113     A.U. after   12 cycles
 SCF Done:  E(RB3LYP) =  -535.174317655     A.U. after   11 cycles
 SCF Done:  E(RB3LYP) =  -535.174725486     A.U. after   11 cycles
 SCF Done:  E(RB3LYP) =  -535.174829647     A.U. after   11 cycles
 SCF Done:  E(RB3LYP) =  -535.174883753     A.U. after   10 cycles
 SCF Done:  E(RB3LYP) =  -535.174921762     A.U. after   10 cycles
 SCF Done:  E(RB3LYP) =  -535.174930241     A.U. after    9 cycles
 SCF Done:  E(RB3LYP) =  -535.174933231     A.U. after    8 cycles
 SCF Done:  E(RB3LYP) =  -535.174935751     A.U. after    8 cycles
 SCF Done:  E(RB3LYP) =  -535.174936358     A.U. after    7 cycles
 Optimization completed.
    -- Stationary point found.
 Normal termination of Gaussian 16 at Tue Dec  8 20:11:55 2020.

 --------------------------------------------------------------------
 #N Geom=AllCheck Guess=TCheck SCRF=Check GenChk RB3LYP/6-31G(d) Freq
 --------------------------------------------------------------------

 Structure from the checkpoint file:  "JID_1499.chk"
 -------------------------------
 CID_139889572_JID_1499_neutraal
 -------------------------------
 Charge =  0 Multiplicity = 1

 SCF Done:  E(RB3LYP) =  -535.174936358     A.U. after    1 cycles

  Exact polarizability: 111.972  -4.974  83.259  -4.696  -2.280  74.702
 Approx polarizability: 138.969 -14.100 123.442  -8.045  -8.165 110.548

                      1                      2                      3
                      A                      A                      A
 Frequencies --     36.3888                60.8079                79.7625
 Red. masses --      3.6542                 3.6625                 3.6887
 Frc consts  --      0.0029                 0.0080                 0.0138
 IR Inten    --      0.7911                 0.5326                 1.8281

                      4                      5                      6
                      A                      A                      A
 Frequencies --    109.0085               184.0504               230.6050
 Red. masses --      4.5401                 4.4556                 1.1945
 Frc consts  --      0.0318                 0.0889                 0.0374
 IR Inten    --      1.8953                 3.6792                 2.7752

                      7                      8                      9
                      A                      A                      A
 Frequencies --    242.8741               272.5484               298.6682
 Red. masses --      2.1989                 1.0847                 2.5317
 Frc consts  --      0.0764                 0.0475                 0.1331
 IR Inten    --      6.7095                 0.2852                 5.1307

                     10                     11                     12
                      A                      A                      A
 Frequencies --    368.3249               374.8097               424.6839
 Red. masses --      2.8229                 2.4803                 2.2142
 Frc consts  --      0.2256                 0.2053                 0.2353
 IR Inten    --      4.8992                 2.9886                 3.9435

                     13                     14                     15
                      A                      A                      A
 Frequencies --    439.6595               490.4198               527.6331
 Red. masses --      4.1720                 2.0954                 1.4753
 Frc consts  --      0.4751                 0.2969                 0.2420
 IR Inten    --      0.7409               102.8385               156.2756

                     16                     17                     18
                      A                      A                      A
 Frequencies --    553.7641               565.4487               726.0866
 Red. masses --      1.6220                 2.2085                 4.3806
 Frc consts  --      0.2930                 0.4160                 1.3607
 IR Inten    --     16.0058                 1.9323                11.3464

                     19                     20                     21
                      A                      A                      A
 Frequencies --    753.0015               761.4278               808.0055
 Red. masses --      3.1729                10.3962                 3.1359
 Frc consts  --      1.0600                 3.5513                 1.2063
 IR Inten    --     23.4519                45.4460                 3.6211

                     22                     23                     24
                      A                      A                      A
 Frequencies --    865.7430               929.7802               937.5266
 Red. masses --      2.9613                 1.5210                 2.1814
 Frc consts  --      1.3077                 0.7747                 1.1297
 IR Inten    --      0.6910                 3.1086                12.5996

                     25                     26                     27
                      A                      A                      A
 Frequencies --    948.7018               970.9537               978.5006
 Red. masses --      1.2808                 2.1310                 2.4633
 Frc consts  --      0.6792                 1.1837                 1.3896
 IR Inten    --      0.4960                 4.9618                 8.7324

                     28                     29                     30
                      A                      A                      A
 Frequencies --   1043.9237              1063.1485              1081.2498
 Red. masses --      2.2545                 2.2553                 2.1947
 Frc consts  --      1.4476                 1.5019                 1.5117
 IR Inten    --     26.7318                18.6872                39.9105

                     31                     32                     33
                      A                      A                      A
 Frequencies --   1127.5715              1148.5474              1156.8721
 Red. masses --      2.2999                 1.8666                 2.0898
 Frc consts  --      1.7229                 1.4507                 1.6479
 IR Inten    --     50.1494                 2.2659                11.4636

                     34                     35                     36
                      A                      A                      A
 Frequencies --   1195.3462              1209.3110              1234.8343
 Red. masses --      2.5282                 1.9659                 1.2272
 Frc consts  --      2.1284                 1.6939                 1.1025
 IR Inten    --    188.6422                15.5931                 3.3829

                     37                     38                     39
                      A                      A                      A
 Frequencies --   1272.6135              1287.4026              1329.0537
 Red. masses --      1.8458                 1.8012                 1.3411
 Frc consts  --      1.7613                 1.7589                 1.3957
 IR Inten    --     93.3010                52.6187                16.9553

                     40                     41                     42
                      A                      A                      A
 Frequencies --   1365.6338              1381.3792              1388.0573
 Red. masses --      1.2213                 1.3283                 1.5256
 Frc consts  --      1.3420                 1.4934                 1.7318
 IR Inten    --      5.4038                 7.2752                 1.4971

                     43                     44                     45
                      A                      A                      A
 Frequencies --   1411.2385              1427.0037              1435.1626
 Red. masses --      1.2007                 1.3165                 1.3538
 Frc consts  --      1.4089                 1.5795                 1.6429
 IR Inten    --     12.6662                15.5213                 2.6330

                     46                     47                     48
                      A                      A                      A
 Frequencies --   1438.1625              1444.2340              1453.8203
 Red. masses --      2.0060                 1.2720                 1.7288
 Frc consts  --      2.4445                 1.5631                 2.1529
 IR Inten    --     75.8114                19.5186                10.3726

                     49                     50                     51
                      A                      A                      A
 Frequencies --   1514.7688              1517.5080              1522.7350
 Red. masses --      1.0480                 1.0603                 1.0555
 Frc consts  --      1.4168                 1.4386                 1.4420
 IR Inten    --      1.1038                 1.1182                 2.5195

                     52                     53                     54
                      A                      A                      A
 Frequencies --   1537.8510              1538.6215              1558.2670
 Red. masses --      1.0685                 1.0532                 1.1024
 Frc consts  --      1.4889                 1.4689                 1.5772
 IR Inten    --      8.5824                 4.7114                16.8033

                     55                     56                     57
                      A                      A                      A
 Frequencies --   1858.6101              3023.3121              3038.3062
 Red. masses --      9.5550                 1.0716                 1.0565
 Frc consts  --     19.4473                 5.7710                 5.7460
 IR Inten    --    590.1163                58.2910                18.5526

                     58                     59                     60
                      A                      A                      A
 Frequencies --   3050.3742              3057.0851              3066.6722
 Red. masses --      1.0356                 1.0380                 1.0858
 Frc consts  --      5.6772                 5.7154                 6.0163
 IR Inten    --     14.3218                15.4465                16.7880

                     61                     62                     63
                      A                      A                      A
 Frequencies --   3080.7358              3099.7437              3114.3072
 Red. masses --      1.0991                 1.0945                 1.1016
 Frc consts  --      6.1462                 6.1960                 6.2951
 IR Inten    --      6.9331                77.5763                 0.2761

                     64                     65                     66
                      A                      A                      A
 Frequencies --   3123.8410              3127.1195              3130.7281
 Red. masses --      1.1006                 1.0946                 1.1029
 Frc consts  --      6.3276                 6.3066                 6.3693
 IR Inten    --     74.4056                16.7887                25.5430

                     67                     68                     69
                      A                      A                      A
 Frequencies --   3136.3549              3619.6153              3637.0896
 Red. masses --      1.1029                 1.0772                 1.0776
 Frc consts  --      6.3921                 8.3149                 8.3991
 IR Inten    --     26.5751                18.5718                29.9882

 - Thermochemistry -
 -------------------
 Temperature   298.150 Kelvin.  Pressure   1.00000 Atm.
 Atom     1 has atomic number  6 and mass  12.00000

 Molecular mass:   158.10553 amu.
 Principal axes and moments of inertia in atomic units:
                           1         2         3
     Eigenvalues --   663.203393573.981183649.98167
           X            0.99983   0.01799  -0.00426
           Y           -0.01749   0.99516   0.09673
           Z            0.00598  -0.09664   0.99530
 This molecule is an asymmetric top.
 Rotational symmetry number  1.
 Warning -- assumption of classical behavior for rotation
           may cause significant error
 Rotational temperatures (Kelvin)      0.13060     0.02423     0.02373
 Rotational constants (GHZ):           2.72125     0.50497     0.49445
 Zero-point vibrational energy     575328.4 (Joules/Mol)
                                  137.50679 (Kcal/Mol)
 Warning -- explicit consideration of  17 degrees of freedom as
           vibrations may cause significant error
 Vibrational temperatures:     52.36    87.49   114.76   156.84   264.81
          (Kelvin)            331.79   349.44   392.14   429.72   529.94
                              539.27   611.03   632.57   705.60   759.15
                              796.74   813.55  1044.68  1083.40  1095.52
                             1162.54  1245.61  1337.75  1348.89  1364.97
                             1396.99  1407.84  1501.97  1529.63  1555.68
                             1622.32  1652.50  1664.48  1719.84  1739.93
                             1776.65  1831.01  1852.29  1912.21  1964.84
                             1987.50  1997.10  2030.46  2053.14  2064.88
                             2069.20  2077.93  2091.72  2179.41  2183.36
                             2190.88  2212.62  2213.73  2242.00  2674.13
                             4349.87  4371.44  4388.81  4398.46  4412.26
                             4432.49  4459.84  4480.79  4494.51  4499.23
                             4504.42  4512.52  5207.82  5232.96

 Zero-point correction=                           0.219131 (Hartree/Particle)
 Thermal correction to Energy=                    0.230610
 Thermal correction to Enthalpy=                  0.231554
 Thermal correction to Gibbs Free Energy=         0.181052
 Sum of electronic and zero-point Energies=           -534.955805
 Sum of electronic and thermal Energies=              -534.944326
 Sum of electronic and thermal Enthalpies=            -534.943382
 Sum of electronic and thermal Free Energies=         -534.993884

                     E (Thermal)             CV                S
                      KCal/Mol        Cal/Mol-Kelvin    Cal/Mol-Kelvin
 Total                  144.710             42.830            106.290
 Electronic               0.000              0.000              0.000
 Translational            0.889              2.981             41.083
 Rotational               0.889              2.981             30.537
 Vibrational            142.933             36.868             34.669
 Vibration     1          0.594              1.982              5.447
 Vibration     2          0.597              1.973              4.431
 Vibration     3          0.600              1.963              3.897
 Vibration     4          0.606              1.942              3.286
 Vibration     5          0.631              1.862              2.287
 Vibration     6          0.652              1.794              1.874
 Vibration     7          0.659              1.775              1.782
 Vibration     8          0.676              1.724              1.580
 Vibration     9          0.692              1.676              1.424
 Vibration    10          0.741              1.537              1.087
 Vibration    11          0.746              1.524              1.060
 Vibration    12          0.787              1.417              0.876
 Vibration    13          0.800              1.384              0.828
 Vibration    14          0.846              1.271              0.683
 Vibration    15          0.883              1.189              0.593
 Vibration    16          0.909              1.131              0.536
 Vibration    17          0.921              1.106              0.513

                           ! Non-Optimized Parameters !
 Normal termination of Gaussian 16 at Tue Dec  8 20:17:22 2020.

 ----------------------------------------------------------------------
 # B3LYP/6-311++G(d,p) empiricaldispersion=gd3bj scf=xqc pop=npa geom=c
 heck
 ----------------------------------------------------------------------

 ---------------------------------------
 CID_139889572_JID_1499_Energie_neutraal
 ---------------------------------------
 Structure from the checkpoint file:  "JID_1499.chk"
 Charge =  0 Multiplicity = 1

 SCF Done:  E(RB3LYP) =  -535.339519445     A.U. after   14 cycles
 Normal termination of Gaussian 16 at Tue Dec  8 20:20:09 2020.

 ----------------------------------------------------------------------
 # B3LYP/6-311++G(d,p) empiricaldispersion=gd3bj scf=xqc pop=npa geom=c
 heck
 ----------------------------------------------------------------------

 -------------------------------------
 CID_139889572_JID_1499_Energie_kation
 -------------------------------------
 Structure from the checkpoint file:  "JID_1499.chk"
 Charge =  1 Multiplicity = 2

 SCF Done:  E(UB3LYP) =  -535.017661232     A.U. after   25 cycles
 Normal termination of Gaussian 16 at Tue Dec  8 20:27:20 2020.
 Gaussian 16:  ES64L-G16RevA.03 25-Dec-2016

 ----------------------------------------------------------------------
 # B3LYP/6-311++G(d,p) empiricaldispersion=gd3bj scf=xqc pop=npa geom=c
 heck
 ----------------------------------------------------------------------

 ------------------------------------
 CID_139889572_JID_1499_Energie_anion
 ------------------------------------
 Structure from the checkpoint file:  "JID_1499.chk"
 Charge = -1 Multiplicity = 2

                         Standard orientation:
 ---------------------------------------------------------------------
 Center     Atomic      Atomic             Coordinates (Angstroms)
 Number     Number       Type             X           Y           Z
 ---------------------------------------------------------------------
      1          6           0       -3.429559   -1.030370   -0.739533
      2          6           0       -2.801067    0.262138   -0.214892
      3          6           0       -2.844669    0.362072    1.311302
      4          8           0       -1.485528    0.467968   -0.748019
      5          6           0       -0.461150   -0.425860   -0.341937
      6          6           0        0.542426    0.286489    0.577942
      7          6           0        1.268853    1.439567   -0.150348
      8          7           0        2.414509    0.737713   -0.716282
      9          6           0        2.731130   -0.384866    0.039215
     10          8           0        3.727850   -1.076850   -0.055934
     11          7           0        1.673021   -0.565275    0.931220
     12          1           0       -2.932059   -1.919058   -0.334768
     13          1           0       -3.363218   -1.065564   -1.831138
     14          1           0       -4.485532   -1.084336   -0.452379
     15          1           0       -3.361360    1.107845   -0.629146
     16          1           0       -2.303922   -0.463847    1.787906
     17          1           0       -2.403967    1.305850    1.647694
     18          1           0       -3.881266    0.321422    1.663457
     19          1           0       -0.861955   -1.310661    0.169075
     20          1           0        0.063592   -0.772349   -1.240586
     21          1           0        0.025334    0.652234    1.469874
     22          1           0        1.569810    2.219916    0.563425
     23          1           0        0.630779    1.884807   -0.917377
     24          1           0        3.186575    1.239344   -1.131788
     25          1           0        1.530120   -1.506638    1.272319
 ---------------------------------------------------------------------

 SCF Done:  E(UB3LYP) =  -535.328881348     A.U. after   31 cycles

 The electronic state is 2-A.
 Alpha  occ. eigenvalues --  -19.02363 -18.98807 -14.23359 -14.23238 -10.19446
 Alpha  occ. eigenvalues --  -10.12403 -10.11849 -10.11772 -10.11168 -10.05978
 Alpha  occ. eigenvalues --  -10.05755  -0.95373  -0.93527  -0.86823  -0.78708
 Alpha  occ. eigenvalues --   -0.69011  -0.65566  -0.59177  -0.59042  -0.52386
 Alpha  occ. eigenvalues --   -0.52255  -0.47174  -0.41807  -0.41314  -0.39047
 Alpha  occ. eigenvalues --   -0.38265  -0.37057  -0.35250  -0.33162  -0.32124
 Alpha  occ. eigenvalues --   -0.31283  -0.30689  -0.30292  -0.29543  -0.28746
 Alpha  occ. eigenvalues --   -0.27406  -0.25658  -0.25003  -0.20633  -0.18347
 Alpha  occ. eigenvalues --   -0.17212  -0.16346  -0.14697   0.04249
 Alpha virt. eigenvalues --    0.06478   0.07300   0.07821   0.09052   0.09539
 Alpha virt. eigenvalues --    0.10372   0.10786   0.11355   0.11912   0.12396
 Alpha virt. eigenvalues --    0.13155   0.13714   0.14353   0.14816   0.15702

  Beta  occ. eigenvalues --  -19.02361 -18.98804 -14.23342 -14.23217 -10.19446
  Beta  occ. eigenvalues --  -10.12390 -10.11825 -10.11760 -10.11144 -10.05939
  Beta  occ. eigenvalues --  -10.05704  -0.95362  -0.93515  -0.86804  -0.78668
  Beta  occ. eigenvalues --   -0.68972  -0.65521  -0.59094  -0.58985  -0.52338
  Beta  occ. eigenvalues --   -0.52204  -0.47102  -0.41762  -0.41266  -0.39015
  Beta  occ. eigenvalues --   -0.38227  -0.37003  -0.35205  -0.33111  -0.32103
  Beta  occ. eigenvalues --   -0.31250  -0.30644  -0.30271  -0.29495  -0.28699
  Beta  occ. eigenvalues --   -0.27368  -0.25612  -0.24953  -0.20597  -0.18331
  Beta  occ. eigenvalues --   -0.17196  -0.16329  -0.14675
  Beta virt. eigenvalues --    0.06696   0.07509   0.08271   0.08495   0.09769
  Beta virt. eigenvalues --    0.10056   0.10837   0.11239   0.11857   0.12413
  Beta virt. eigenvalues --    0.12955   0.13526   0.13784   0.14560   0.15262

 Mulliken charges and spin densities:
               1          2
     1  C    1.287143  -1.765131
     2  C   -1.888745   1.854199
     3  C    1.703934  -2.178753
     4  O   -0.083119   0.003424
     5  C    0.742790  -1.107048
     6  C   -1.367310   1.174446
     7  C    1.136685  -1.641432
     8  N   -0.296120   0.097582
     9  C    0.464780  -0.225799
    10  O   -0.445273   0.023138
    11  N   -0.021007  -0.120401
    12  H   -0.367524   0.503831
    13  H   -0.028226   0.169616
    14  H   -0.341939   0.490600
    15  H   -0.365416   0.533677
    16  H   -0.575387   0.735348
    17  H   -0.111523   0.259355
    18  H   -0.421069   0.575510
    19  H    0.244423  -0.087300
    20  H    0.123027   0.068558
    21  H    0.097055   0.179114
    22  H   -0.513093   0.688836
    23  H   -0.029191   0.231118
    24  H    0.151533   0.153104
    25  H   -0.096429   0.384407
 Sum of Mulliken charges =  -1.00000   1.00000

 Dipole moment (field-independent basis, Debye):
    X=              2.5231    Y=              0.8585    Z=             -2.7820  Tot=              3.8527
 Quadrupole moment (field-independent basis, Debye-Ang):
   XX=           -150.9920   YY=           -104.9941   ZZ=           -100.0792
   XY=              1.6577   XZ=              4.5603   YZ=             -0.6388

 Summary of Natural Population Analysis:

                                       Natural Population
                Natural  -----------------------------------------------
    Atom  No    Charge         Core      Valence    Rydberg      Total
 -----------------------------------------------------------------------
      C    1   -0.29994      0.99964     2.29468    0.00562     3.29994
      C    2    0.06848      0.99956     1.91810    0.01385     2.93152
      C    3   -0.30258      0.99964     2.29687    0.00606     3.30258
      O    4   -0.30927      0.99988     3.29952    0.00987     4.30927
      C    5   -0.01928      0.99953     2.00641    0.01334     3.01928
      C    6   -0.02266      0.99960     2.00966    0.01341     3.02266
      C    7   -0.08614      0.99961     2.07535    0.01118     3.08614
      N    8   -0.33633      0.99969     2.82721    0.00943     3.83633
      C    9    0.40512      0.99970     1.57119    0.02399     2.59488
      O   10   -0.33312      0.99987     3.32748    0.00577     4.33312
      N   11   -0.33555      0.99968     2.82541    0.01046     3.83555
      H   12    0.09850      0.00000     0.40013    0.00136     0.40150
      H   13    0.10123      0.00000     0.39773    0.00104     0.39877
      H   14    0.10422      0.00000     0.39437    0.00141     0.39578
      H   15    0.08844      0.00000     0.41007    0.00150     0.41156
      H   16    0.09942      0.00000     0.39843    0.00215     0.40058
      H   17    0.10283      0.00000     0.39556    0.00161     0.39717
      H   18    0.10581      0.00000     0.39243    0.00176     0.39419
      H   19    0.08856      0.00000     0.40960    0.00184     0.41144
      H   20    0.08928      0.00000     0.40909    0.00163     0.41072
      H   21    0.10232      0.00000     0.39539    0.00229     0.39768
      H   22    0.09199      0.00000     0.40594    0.00207     0.40801
      H   23    0.10469      0.00000     0.39362    0.00169     0.39531
      H   24    0.19573      0.00000     0.30241    0.00186     0.30427
      H   25    0.19824      0.00000     0.29944    0.00231     0.30176
 =======================================================================
   * Total *   -0.00000     10.99642    31.85608    0.14750    43.00000

 Normal termination of Gaussian 16 at Tue Dec  8 20:37:07 2020.
