 Gaussian 16, Revision A.03,

 -----------------------------------------------------------
 # opt freq B3LYP/6-31G(d) empiricaldispersion=gd3bj scf=xqc
 -----------------------------------------------------------

 ------------------------------
 CID_23006459_JID_6326_neutraal
 ------------------------------
 Symbolic Z-matrix:
 Charge =  0 Multiplicity = 1

 SCF Done:  E(RB3LYP) =  -1078.10104231     A.U. after   15 cycles
 SCF Done:  E(RB3LYP) =  -1078.10784807     A.U. after   12 cycles
 SCF Done:  E(RB3LYP) =  -1078.10897395     A.U. after   12 cycles
 SCF Done:  E(RB3LYP) =  -1078.10934312     A.U. after   12 cycles
 SCF Done:  E(RB3LYP) =  -1078.10974463     A.U. after   12 cycles
 SCF Done:  E(RB3LYP) =  -1078.10981457     A.U. after   12 cycles
 SCF Done:  E(RB3LYP) =  -1078.11016391     A.U. after   11 cycles
 SCF Done:  E(RB3LYP) =  -1078.11115040     A.U. after   13 cycles
 SCF Done:  E(RB3LYP) =  -1078.11136903     A.U. after   12 cycles
 SCF Done:  E(RB3LYP) =  -1078.11149397     A.U. after   12 cycles
 SCF Done:  E(RB3LYP) =  -1078.11154435     A.U. after    8 cycles
 SCF Done:  E(RB3LYP) =  -1078.11154485     A.U. after    8 cycles
 SCF Done:  E(RB3LYP) =  -1078.11154519     A.U. after    8 cycles
 SCF Done:  E(RB3LYP) =  -1078.11154549     A.U. after    8 cycles
 SCF Done:  E(RB3LYP) =  -1078.11154566     A.U. after    8 cycles
 SCF Done:  E(RB3LYP) =  -1078.11154572     A.U. after    7 cycles
 Optimization completed.
    -- Stationary point found.
 Normal termination of Gaussian 16 at Thu Dec 10 22:19:54 2020.

 --------------------------------------------------------------------
 #N Geom=AllCheck Guess=TCheck SCRF=Check GenChk RB3LYP/6-31G(d) Freq
 --------------------------------------------------------------------

 Structure from the checkpoint file:  "JID_6326.chk"
 ------------------------------
 CID_23006459_JID_6326_neutraal
 ------------------------------
 Charge =  0 Multiplicity = 1

 SCF Done:  E(RB3LYP) =  -1078.11154572     A.U. after    1 cycles

  Exact polarizability: 233.325  -8.607 154.404   1.837   1.612  84.464
 Approx polarizability: 314.040 -10.996 262.475   3.503   5.612 126.143

                      1                      2                      3
                      A                      A                      A
 Frequencies --     24.3005                42.0107                54.5994
 Red. masses --      3.2185                 3.9635                 5.0035
 Frc consts  --      0.0011                 0.0041                 0.0088
 IR Inten    --      0.1595                 1.9685                 0.2802

                      4                      5                      6
                      A                      A                      A
 Frequencies --     70.3039               114.2159               149.6026
 Red. masses --      5.0998                 3.8067                 1.3997
 Frc consts  --      0.0149                 0.0293                 0.0185
 IR Inten    --      0.7542                 5.1229                 2.6045

                      7                      8                      9
                      A                      A                      A
 Frequencies --    161.9315               182.0119               199.2407
 Red. masses --      1.6533                 1.8950                 1.8479
 Frc consts  --      0.0255                 0.0370                 0.0432
 IR Inten    --     25.6332                35.1020                26.3716

                     10                     11                     12
                      A                      A                      A
 Frequencies --    222.4496               235.6663               252.9280
 Red. masses --      1.0493                 3.5135                 3.4839
 Frc consts  --      0.0306                 0.1150                 0.1313
 IR Inten    --      0.4539                 1.9054                 6.4864

                     13                     14                     15
                      A                      A                      A
 Frequencies --    255.4011               262.3132               280.6789
 Red. masses --      1.3480                 5.1982                 3.5154
 Frc consts  --      0.0518                 0.2107                 0.1632
 IR Inten    --      3.2238                 0.2345                 2.4926

                     16                     17                     18
                      A                      A                      A
 Frequencies --    296.9715               362.0359               370.1726
 Red. masses --      4.8307                 6.2166                 3.7137
 Frc consts  --      0.2510                 0.4801                 0.2998
 IR Inten    --      1.3404                 4.1836                 2.8593

                     19                     20                     21
                      A                      A                      A
 Frequencies --    405.0349               443.4611               503.5204
 Red. masses --      3.2247                 3.5347                 1.4383
 Frc consts  --      0.3117                 0.4096                 0.2149
 IR Inten    --      2.8012                 0.8430                77.6906

                     22                     23                     24
                      A                      A                      A
 Frequencies --    510.0868               544.3119               614.1677
 Red. masses --      4.2131                 4.0949                 4.6936
 Frc consts  --      0.6459                 0.7148                 1.0431
 IR Inten    --      2.0297                 9.2841                 9.8605

                     25                     26                     27
                      A                      A                      A
 Frequencies --    646.1789               659.9603               662.1853
 Red. masses --      4.1565                 5.0867                 4.0874
 Frc consts  --      1.0225                 1.3053                 1.0560
 IR Inten    --      9.7624                 1.2820                 8.5039

                     28                     29                     30
                      A                      A                      A
 Frequencies --    682.9921               727.5621               732.9036
 Red. masses --      8.4626                 7.1305                 4.9455
 Frc consts  --      2.3259                 2.2239                 1.5651
 IR Inten    --     11.4745                 0.5009                10.0245

                     31                     32                     33
                      A                      A                      A
 Frequencies --    765.2266               814.2688               902.0698
 Red. masses --      3.6726                 1.4139                 2.4973
 Frc consts  --      1.2671                 0.5524                 1.1973
 IR Inten    --      2.9763                19.3877                 2.9075

                     34                     35                     36
                      A                      A                      A
 Frequencies --    947.7914               964.5824               965.9933
 Red. masses --      1.1587                 1.5215                 5.8585
 Frc consts  --      0.6133                 0.8341                 3.2210
 IR Inten    --      0.8213                 0.1116                57.7874

                     37                     38                     39
                      A                      A                      A
 Frequencies --   1006.0213              1033.0479              1050.7071
 Red. masses --      1.7627                 3.2725                 1.5897
 Frc consts  --      1.0511                 2.0576                 1.0340
 IR Inten    --      6.9982                15.4209                97.4695

                     40                     41                     42
                      A                      A                      A
 Frequencies --   1078.8044              1107.7214              1132.1270
 Red. masses --      1.4615                 1.9008                 2.5878
 Frc consts  --      1.0022                 1.3742                 1.9542
 IR Inten    --      1.5926                 6.5273                18.3754

                     43                     44                     45
                      A                      A                      A
 Frequencies --   1136.4785              1158.8714              1163.0737
 Red. masses --      2.0670                 3.1677                 2.3534
 Frc consts  --      1.5729                 2.5065                 1.8757
 IR Inten    --     32.7569                 8.3578                 4.4274

                     46                     47                     48
                      A                      A                      A
 Frequencies --   1218.8824              1227.6594              1269.5945
 Red. masses --      2.6284                 2.5801                 3.3272
 Frc consts  --      2.3007                 2.2910                 3.1598
 IR Inten    --      6.0899                25.3102                16.3758

                     49                     50                     51
                      A                      A                      A
 Frequencies --   1289.2826              1305.3195              1366.2708
 Red. masses --      2.6591                 4.1645                 1.3755
 Frc consts  --      2.6043                 4.1807                 1.5128
 IR Inten    --    289.4146                37.5074                 3.6065

                     52                     53                     54
                      A                      A                      A
 Frequencies --   1392.5189              1419.5127              1427.1553
 Red. masses --      3.4079                 5.3419                 1.2662
 Frc consts  --      3.8935                 6.3420                 1.5195
 IR Inten    --     16.7681                22.5843                 8.6711

                     55                     56                     57
                      A                      A                      A
 Frequencies --   1435.6965              1446.3380              1449.9482
 Red. masses --      1.8599                 1.2597                 1.4148
 Frc consts  --      2.2588                 1.5525                 1.7525
 IR Inten    --     17.5413                 0.9558                 4.3074

                     58                     59                     60
                      A                      A                      A
 Frequencies --   1463.7498              1477.8669              1510.6262
 Red. masses --      1.6475                 3.1543                 1.0431
 Frc consts  --      2.0798                 4.0590                 1.4025
 IR Inten    --     30.9359                59.5133                 1.5444

                     61                     62                     63
                      A                      A                      A
 Frequencies --   1514.2863              1520.0113              1522.7951
 Red. masses --      1.0430                 1.0501                 1.5639
 Frc consts  --      1.4092                 1.4294                 2.1366
 IR Inten    --      8.8416                 2.6906                21.5499

                     64                     65                     66
                      A                      A                      A
 Frequencies --   1524.5620              1526.9609              1541.8594
 Red. masses --      1.6021                 1.4109                 1.0793
 Frc consts  --      2.1940                 1.9383                 1.5117
 IR Inten    --     86.9864               136.8276                 0.5496

                     67                     68                     69
                      A                      A                      A
 Frequencies --   1548.2949              1595.3203              1652.5247
 Red. masses --      3.4372                 5.3354                 4.4646
 Frc consts  --      4.8547                 8.0004                 7.1834
 IR Inten    --     66.9723                63.7934                26.0551

                     70                     71                     72
                      A                      A                      A
 Frequencies --   1676.8264              3048.7434              3062.0816
 Red. masses --      1.2424                 1.0394                 1.0348
 Frc consts  --      2.0582                 5.6920                 5.7167
 IR Inten    --     65.3406                24.5295                18.6867

                     73                     74                     75
                      A                      A                      A
 Frequencies --   3066.3831              3097.0198              3100.1042
 Red. masses --      1.0356                 1.0850                 1.1017
 Frc consts  --      5.7370                 6.1316                 6.2384
 IR Inten    --     14.5077                12.8737                13.4520

                     76                     77                     78
                      A                      A                      A
 Frequencies --   3132.6013              3136.2088              3146.4253
 Red. masses --      1.1035                 1.1033                 1.1031
 Frc consts  --      6.3802                 6.3938                 6.4344
 IR Inten    --     13.2321                38.2725                 3.8202

                     79                     80                     81
                      A                      A                      A
 Frequencies --   3147.0959              3153.0066              3291.5843
 Red. masses --      1.0987                 1.1017                 1.0980
 Frc consts  --      6.4115                 6.4528                 7.0090
 IR Inten    --      9.0198                35.5063                 0.3419

                     82                     83                     84
                      A                      A                      A
 Frequencies --   3396.6491              3537.8218              3682.7358
 Red. masses --      1.0531                 1.0907                 1.0822
 Frc consts  --      7.1583                 8.0429                 8.6473
 IR Inten    --     24.9667                30.7900               115.6981

 - Thermochemistry -
 -------------------
 Temperature   298.150 Kelvin.  Pressure   1.00000 Atm.
 Atom     1 has atomic number  6 and mass  12.00000

 Molecular mass:   238.10007 amu.
 Principal axes and moments of inertia in atomic units:
                           1         2         3
     Eigenvalues --  1790.696237279.413498605.61273
           X            0.99996   0.00934   0.00012
           Y           -0.00934   0.99993  -0.00668
           Z           -0.00018   0.00667   0.99998
 This molecule is an asymmetric top.
 Rotational symmetry number  1.
 Warning -- assumption of classical behavior for rotation
           may cause significant error
 Rotational temperatures (Kelvin)      0.04837     0.01190     0.01006
 Rotational constants (GHZ):           1.00784     0.24792     0.20972
 Zero-point vibrational energy     641307.9 (Joules/Mol)
                                  153.27627 (Kcal/Mol)
 Warning -- explicit consideration of  24 degrees of freedom as
           vibrations may cause significant error
 Vibrational temperatures:     34.96    60.44    78.56   101.15   164.33
          (Kelvin)            215.24   232.98   261.87   286.66   320.06
                              339.07   363.91   367.47   377.41   403.83
                              427.28   520.89   532.60   582.75   638.04
                              724.45   733.90   783.14   883.65   929.71
                              949.54   952.74   982.67  1046.80  1054.48
                             1100.99  1171.55  1297.88  1363.66  1387.82
                             1389.85  1447.44  1486.33  1511.73  1552.16
                             1593.76  1628.88  1635.14  1667.36  1673.40
                             1753.70  1766.33  1826.66  1854.99  1878.06
                             1965.76  2003.52  2042.36  2053.36  2065.65
                             2080.96  2086.15  2106.01  2126.32  2173.45
                             2178.72  2186.96  2190.96  2193.50  2196.96
                             2218.39  2227.65  2295.31  2377.61  2412.58
                             4386.46  4405.65  4411.84  4455.92  4460.36
                             4507.11  4512.30  4527.00  4527.97  4536.47
                             4735.86  4887.02  5090.14  5298.64

 Zero-point correction=                           0.244261 (Hartree/Particle)
 Thermal correction to Energy=                    0.260423
 Thermal correction to Enthalpy=                  0.261367
 Thermal correction to Gibbs Free Energy=         0.199461
 Sum of electronic and zero-point Energies=          -1077.867284
 Sum of electronic and thermal Energies=             -1077.851123
 Sum of electronic and thermal Enthalpies=           -1077.850179
 Sum of electronic and thermal Free Energies=        -1077.912085

                     E (Thermal)             CV                S
                      KCal/Mol        Cal/Mol-Kelvin    Cal/Mol-Kelvin
 Total                  163.418             59.311            130.292
 Electronic               0.000              0.000              0.000
 Translational            0.889              2.981             42.304
 Rotational               0.889              2.981             33.083
 Vibrational            161.640             53.349             54.904
 Vibration     1          0.593              1.985              6.248
 Vibration     2          0.595              1.980              5.162
 Vibration     3          0.596              1.976              4.643
 Vibration     4          0.598              1.968              4.145
 Vibration     5          0.607              1.938              3.196
 Vibration     6          0.618              1.903              2.677
 Vibration     7          0.622              1.889              2.527
 Vibration     8          0.630              1.864              2.308
 Vibration     9          0.637              1.841              2.140
 Vibration    10          0.648              1.807              1.939
 Vibration    11          0.655              1.786              1.835
 Vibration    12          0.664              1.758              1.710
 Vibration    13          0.666              1.754              1.693
 Vibration    14          0.670              1.742              1.646
 Vibration    15          0.680              1.709              1.530
 Vibration    16          0.691              1.679              1.434
 Vibration    17          0.736              1.550              1.113
 Vibration    18          0.742              1.533              1.079
 Vibration    19          0.770              1.459              0.944
 Vibration    20          0.803              1.375              0.816
 Vibration    21          0.859              1.242              0.649
 Vibration    22          0.865              1.228              0.633
 Vibration    23          0.899              1.152              0.556
 Vibration    24          0.974              1.002              0.426

                           ! Non-Optimized Parameters !
 Normal termination of Gaussian 16 at Thu Dec 10 22:29:55 2020.

 ----------------------------------------------------------------------
 # B3LYP/6-311++G(d,p) empiricaldispersion=gd3bj scf=xqc pop=npa geom=c
 heck
 ----------------------------------------------------------------------

 --------------------------------------
 CID_23006459_JID_6326_Energie_neutraal
 --------------------------------------
 Structure from the checkpoint file:  "JID_6326.chk"
 Charge =  0 Multiplicity = 1

 SCF Done:  E(RB3LYP) =  -1078.32417362     A.U. after   15 cycles
 Normal termination of Gaussian 16 at Thu Dec 10 22:33:59 2020.

 ----------------------------------------------------------------------
 # B3LYP/6-311++G(d,p) empiricaldispersion=gd3bj scf=xqc pop=npa geom=c
 heck
 ----------------------------------------------------------------------

 ------------------------------------
 CID_23006459_JID_6326_Energie_kation
 ------------------------------------
 Structure from the checkpoint file:  "JID_6326.chk"
 Charge =  1 Multiplicity = 2

 SCF Done:  E(UB3LYP) =  -1078.05298816     A.U. after   24 cycles
 Normal termination of Gaussian 16 at Thu Dec 10 22:44:00 2020.
 Gaussian 16:  ES64L-G16RevA.03 25-Dec-2016

 ----------------------------------------------------------------------
 # B3LYP/6-311++G(d,p) empiricaldispersion=gd3bj scf=xqc pop=npa geom=c
 heck
 ----------------------------------------------------------------------

 -----------------------------------
 CID_23006459_JID_6326_Energie_anion
 -----------------------------------
 Structure from the checkpoint file:  "JID_6326.chk"
 Charge = -1 Multiplicity = 2

                         Standard orientation:
 ---------------------------------------------------------------------
 Center     Atomic      Atomic             Coordinates (Angstroms)
 Number     Number       Type             X           Y           Z
 ---------------------------------------------------------------------
      1          6           0       -3.809692    2.017728   -0.225892
      2          6           0       -2.471710    1.360766   -0.118058
      3          6           0       -1.200702    1.904133   -0.166090
      4          6           0       -0.327910    0.802103   -0.024274
      5          7           0       -1.005879   -0.345026    0.110090
      6          7           0       -2.303963    0.012547    0.052170
      7          6           0       -3.330374   -1.034421    0.116287
      8          6           0       -3.227057   -1.941682   -1.112379
      9          6           0       -3.214979   -1.805942    1.432395
     10          6           0        1.120653    0.815124    0.020274
     11          7           0        1.856429    1.881444    0.243971
     12          7           0        3.136889    1.402462    0.236266
     13          6           0        3.237726    0.058953    0.047243
     14         16           0        4.582221   -0.936603   -0.016821
     15          7           0        1.915404   -0.305557   -0.094924
     16          7           0        1.511176   -1.584420   -0.509113
     17          1           0       -4.420821    1.855823    0.670043
     18          1           0       -4.379361    1.651330   -1.088321
     19          1           0       -3.676860    3.095265   -0.348096
     20          1           0       -0.932800    2.942498   -0.287785
     21          1           0       -4.287400   -0.505373    0.094848
     22          1           0       -2.249870   -2.432129   -1.136074
     23          1           0       -4.007555   -2.708917   -1.082505
     24          1           0       -3.341535   -1.363264   -2.034625
     25          1           0       -3.303047   -1.131164    2.289648
     26          1           0       -4.007896   -2.557969    1.496687
     27          1           0       -2.247274   -2.311405    1.490780
     28          1           0        3.915523    2.023389    0.394050
     29          1           0        2.367103   -2.145971   -0.447639
     30          1           0        0.830135   -1.917187    0.171863
 ---------------------------------------------------------------------

 SCF Done:  E(UB3LYP) =  -1078.31956291     A.U. after   32 cycles

 The electronic state is 2-A.
 Alpha  occ. eigenvalues --  -88.71196 -14.32579 -14.31131 -14.29068 -14.26815
 Alpha  occ. eigenvalues --  -14.25663 -14.23331 -10.19925 -10.16390 -10.12617
 Alpha  occ. eigenvalues --  -10.12088 -10.11112 -10.08118 -10.07100 -10.07043
 Alpha  occ. eigenvalues --  -10.06809  -7.79934  -5.76393  -5.75669  -5.75516
 Alpha  occ. eigenvalues --   -1.01693  -0.95883  -0.91716  -0.79004  -0.75815
 Alpha  occ. eigenvalues --   -0.75630  -0.71741  -0.66851  -0.64011  -0.61499
 Alpha  occ. eigenvalues --   -0.60059  -0.59202  -0.54887  -0.52509  -0.50376
 Alpha  occ. eigenvalues --   -0.48450  -0.43725  -0.43050  -0.42183  -0.41497
 Alpha  occ. eigenvalues --   -0.38841  -0.37533  -0.36825  -0.35917  -0.34091
 Alpha  occ. eigenvalues --   -0.32286  -0.31855  -0.30892  -0.30733  -0.29705
 Alpha  occ. eigenvalues --   -0.29342  -0.29079  -0.28065  -0.26380  -0.25636
 Alpha  occ. eigenvalues --   -0.24029  -0.23657  -0.20693  -0.18802  -0.15379
 Alpha  occ. eigenvalues --   -0.15326  -0.14267  -0.12010   0.03877
 Alpha virt. eigenvalues --    0.05666   0.06840   0.06900   0.07831   0.07991
 Alpha virt. eigenvalues --    0.08195   0.08920   0.09855   0.10200   0.10814
 Alpha virt. eigenvalues --    0.11115   0.11451   0.12121   0.12755   0.13133

  Beta  occ. eigenvalues --  -88.71197 -14.32556 -14.31103 -14.29021 -14.26812
  Beta  occ. eigenvalues --  -14.25531 -14.23195 -10.19937 -10.16328 -10.12601
  Beta  occ. eigenvalues --  -10.12100 -10.11096 -10.08055 -10.07086 -10.07015
  Beta  occ. eigenvalues --  -10.06772  -7.79935  -5.76393  -5.75675  -5.75517
  Beta  occ. eigenvalues --   -1.01612  -0.95754  -0.91646  -0.78885  -0.75728
  Beta  occ. eigenvalues --   -0.75565  -0.71677  -0.66777  -0.63974  -0.61395
  Beta  occ. eigenvalues --   -0.59992  -0.59072  -0.54857  -0.52457  -0.50326
  Beta  occ. eigenvalues --   -0.48386  -0.43691  -0.42978  -0.42074  -0.41424
  Beta  occ. eigenvalues --   -0.38708  -0.37359  -0.36748  -0.35853  -0.34038
  Beta  occ. eigenvalues --   -0.32225  -0.31799  -0.30800  -0.30671  -0.29629
  Beta  occ. eigenvalues --   -0.29252  -0.28923  -0.28009  -0.26292  -0.25575
  Beta  occ. eigenvalues --   -0.23855  -0.23368  -0.20528  -0.18666  -0.15221
  Beta  occ. eigenvalues --   -0.14992  -0.14261  -0.11782
  Beta virt. eigenvalues --    0.06429   0.06815   0.06958   0.07386   0.08029
  Beta virt. eigenvalues --    0.08418   0.08662   0.09509   0.10318   0.10633
  Beta virt. eigenvalues --    0.11006   0.11430   0.11771   0.12194   0.12811

 Mulliken charges and spin densities:
               1          2
     1  C    2.393235  -2.986407
     2  C   -2.150311   2.043309
     3  C    0.240079  -0.442096
     4  C    0.770179  -0.875764
     5  N   -0.494058   0.299108
     6  N    0.720831  -0.146645
     7  C   -1.466559   1.363814
     8  C    0.934250  -1.439051
     9  C    0.545963  -1.043393
    10  C    0.133030  -0.148613
    11  N   -0.175037   0.076928
    12  N    0.017576  -0.013194
    13  C    0.247034   0.066009
    14  S   -0.852618   0.014150
    15  N    0.141876  -0.009790
    16  N   -0.443309  -0.007385
    17  H   -0.471294   0.658938
    18  H   -0.525055   0.714877
    19  H   -0.239347   0.397002
    20  H   -0.018215   0.212656
    21  H   -0.496149   0.674229
    22  H    0.141739   0.027678
    23  H   -0.374507   0.521190
    24  H   -0.098569   0.250051
    25  H   -0.105257   0.257571
    26  H   -0.300095   0.445991
    27  H    0.083906   0.072559
    28  H    0.342509   0.009625
    29  H    0.187943   0.027259
    30  H    0.310233  -0.020605
 Sum of Mulliken charges =  -1.00000   1.00000

 Dipole moment (field-independent basis, Debye):
    X=              8.1303    Y=              0.4179    Z=              0.9484  Tot=              8.1961
 Quadrupole moment (field-independent basis, Debye-Ang):
   XX=           -223.5991   YY=           -137.7291   ZZ=           -132.3380
   XY=             10.0845   XZ=              0.1163   YZ=             -1.9583

 Summary of Natural Population Analysis:

                                       Natural Population
                Natural  -----------------------------------------------
    Atom  No    Charge         Core      Valence    Rydberg      Total
 -----------------------------------------------------------------------
      C    1   -0.30475      0.99963     2.29938    0.00574     3.30475
      C    2    0.09358      0.99953     1.89554    0.01135     2.90642
      C    3   -0.14411      0.99947     2.13587    0.00877     3.14411
      C    4    0.03871      0.99956     1.94844    0.01329     2.96129
      N    5   -0.13845      0.99970     2.62862    0.01013     3.63845
      N    6   -0.10154      0.99962     2.58643    0.01550     3.60154
      C    7   -0.00743      0.99960     1.99459    0.01324     3.00743
      C    8   -0.28645      0.99964     2.28056    0.00625     3.28645
      C    9   -0.28530      0.99964     2.27947    0.00618     3.28530
      C   10    0.19464      0.99956     1.79018    0.01562     2.80536
      N   11   -0.13399      0.99970     2.62293    0.01135     3.63399
      N   12   -0.18757      0.99963     2.67577    0.01217     3.68757
      C   13    0.10426      0.99963     1.87641    0.01970     2.89574
      S   14   -0.16537      4.99962     3.15088    0.01487     8.16537
      N   15   -0.12645      0.99952     2.61507    0.01186     3.62645
      N   16   -0.30042      0.99976     2.78894    0.01172     3.80042
      H   17    0.11082      0.00000     0.38733    0.00185     0.38918
      H   18    0.11261      0.00000     0.38477    0.00262     0.38739
      H   19    0.11045      0.00000     0.38847    0.00108     0.38955
      H   20    0.11233      0.00000     0.38641    0.00126     0.38767
      H   21    0.10560      0.00000     0.39025    0.00415     0.39440
      H   22    0.10377      0.00000     0.39507    0.00115     0.39623
      H   23    0.10280      0.00000     0.39602    0.00119     0.39720
      H   24    0.10401      0.00000     0.39488    0.00111     0.39599
      H   25    0.10327      0.00000     0.39567    0.00106     0.39673
      H   26    0.10245      0.00000     0.39659    0.00096     0.39755
      H   27    0.10242      0.00000     0.39629    0.00129     0.39758
      H   28    0.20294      0.00000     0.29525    0.00182     0.29706
      H   29    0.18777      0.00000     0.31006    0.00217     0.31223
      H   30    0.18939      0.00000     0.30872    0.00189     0.31061
 =======================================================================
   * Total *    0.00000     19.99381    42.79486    0.21134    63.00000

 Normal termination of Gaussian 16 at Thu Dec 10 22:59:36 2020.
