 Gaussian 16, Revision A.03,

 -----------------------------------------------------------
 # opt freq B3LYP/6-31G(d) empiricaldispersion=gd3bj scf=xqc
 -----------------------------------------------------------

 ------------------------------
 CID_62602307_JID_6631_neutraal
 ------------------------------
 Symbolic Z-matrix:
 Charge =  0 Multiplicity = 1

 SCF Done:  E(RB3LYP) =  -672.335725444     A.U. after   14 cycles
 SCF Done:  E(RB3LYP) =  -672.334454942     A.U. after   13 cycles
 SCF Done:  E(RB3LYP) =  -672.341298046     A.U. after   12 cycles
 SCF Done:  E(RB3LYP) =  -672.342350863     A.U. after   12 cycles
 SCF Done:  E(RB3LYP) =  -672.339914769     A.U. after   12 cycles
 SCF Done:  E(RB3LYP) =  -672.341624495     A.U. after   12 cycles
 SCF Done:  E(RB3LYP) =  -672.342573715     A.U. after    9 cycles
 SCF Done:  E(RB3LYP) =  -672.342755793     A.U. after   11 cycles
 SCF Done:  E(RB3LYP) =  -672.342809792     A.U. after   11 cycles
 SCF Done:  E(RB3LYP) =  -672.342842018     A.U. after   10 cycles
 SCF Done:  E(RB3LYP) =  -672.342848989     A.U. after    9 cycles
 SCF Done:  E(RB3LYP) =  -672.342849631     A.U. after    8 cycles
 SCF Done:  E(RB3LYP) =  -672.342849708     A.U. after    7 cycles
 SCF Done:  E(RB3LYP) =  -672.342849704     A.U. after    7 cycles
 Optimization completed.
    -- Stationary point found.
 Normal termination of Gaussian 16 at Fri Dec 11 00:01:42 2020.

 --------------------------------------------------------------------
 #N Geom=AllCheck Guess=TCheck SCRF=Check GenChk RB3LYP/6-31G(d) Freq
 --------------------------------------------------------------------

 Structure from the checkpoint file:  "JID_6631.chk"
 ------------------------------
 CID_62602307_JID_6631_neutraal
 ------------------------------
 Charge =  0 Multiplicity = 1

 SCF Done:  E(RB3LYP) =  -672.342849704     A.U. after    1 cycles

  Exact polarizability: 169.662 -19.093 134.187   4.339   7.909 136.922
 Approx polarizability: 229.492 -32.356 195.748   8.004  16.222 229.593

                      1                      2                      3
                      A                      A                      A
 Frequencies --     42.6688                64.7317                70.8538
 Red. masses --      3.9501                 3.8398                 4.8598
 Frc consts  --      0.0042                 0.0095                 0.0144
 IR Inten    --      0.1231                 0.3930                 1.2451

                      4                      5                      6
                      A                      A                      A
 Frequencies --    129.0013               137.7212               162.1589
 Red. masses --      3.1998                 2.9630                 3.5606
 Frc consts  --      0.0314                 0.0331                 0.0552
 IR Inten    --      0.8458                 1.3462                 2.0205

                      7                      8                      9
                      A                      A                      A
 Frequencies --    167.6845               186.4557               196.6948
 Red. masses --      2.7743                 1.8443                 3.4691
 Frc consts  --      0.0460                 0.0378                 0.0791
 IR Inten    --      2.0774                 0.7822                 3.9899

                     10                     11                     12
                      A                      A                      A
 Frequencies --    238.1833               278.1368               295.1323
 Red. masses --      1.4816                 2.2444                 2.1483
 Frc consts  --      0.0495                 0.1023                 0.1102
 IR Inten    --      0.6064                 1.0902                 0.4601

                     13                     14                     15
                      A                      A                      A
 Frequencies --    347.3995               375.6420               399.8316
 Red. masses --      3.4382                 2.1927                 1.9280
 Frc consts  --      0.2445                 0.1823                 0.1816
 IR Inten    --      2.1745                 0.6949                 1.2661

                     16                     17                     18
                      A                      A                      A
 Frequencies --    412.7196               414.4447               437.7458
 Red. masses --      3.6057                 3.6915                 2.6751
 Frc consts  --      0.3619                 0.3736                 0.3020
 IR Inten    --      0.7854                 0.3568                 0.0348

                     19                     20                     21
                      A                      A                      A
 Frequencies --    472.5970               496.4935               574.8352
 Red. masses --      2.2684                 2.4495                 2.9550
 Frc consts  --      0.2985                 0.3558                 0.5753
 IR Inten    --      0.7458                 0.4290                28.0860

                     22                     23                     24
                      A                      A                      A
 Frequencies --    622.3468               649.9301               678.8011
 Red. masses --      1.8637                 7.5045                 2.3190
 Frc consts  --      0.4253                 1.8677                 0.6296
 IR Inten    --     33.7971                 7.3322                32.6319

                     25                     26                     27
                      A                      A                      A
 Frequencies --    692.1868               743.9024               788.6705
 Red. masses --      2.4808                 2.7716                 1.5212
 Frc consts  --      0.7003                 0.9037                 0.5575
 IR Inten    --     38.4397                26.8101                 0.1458

                     28                     29                     30
                      A                      A                      A
 Frequencies --    796.0541               821.1186               834.0287
 Red. masses --      3.2477                 1.4369                 2.5393
 Frc consts  --      1.2126                 0.5708                 1.0407
 IR Inten    --     20.7732                 3.6420                 5.1644

                     31                     32                     33
                      A                      A                      A
 Frequencies --    840.7412               875.5240               889.0257
 Red. masses --      2.7760                 2.7853                 2.6125
 Frc consts  --      1.1561                 1.2579                 1.2166
 IR Inten    --      3.0606                 3.0287                 0.3296

                     34                     35                     36
                      A                      A                      A
 Frequencies --    896.0096               943.6038               968.4773
 Red. masses --      1.6173                 1.5736                 1.8933
 Frc consts  --      0.7650                 0.8255                 1.0463
 IR Inten    --      7.9664                 1.7050                 4.7279

                     37                     38                     39
                      A                      A                      A
 Frequencies --    998.0753               998.2893              1008.0595
 Red. masses --      1.4080                 1.4366                 2.7391
 Frc consts  --      0.8264                 0.8435                 1.6399
 IR Inten    --      0.2342                 0.1585                 1.7972

                     40                     41                     42
                      A                      A                      A
 Frequencies --   1016.6791              1041.1830              1052.6541
 Red. masses --      5.6231                 2.2905                 1.9222
 Frc consts  --      3.4245                 1.4629                 1.2549
 IR Inten    --      2.1715                 5.2311                 1.6268

                     43                     44                     45
                      A                      A                      A
 Frequencies --   1071.9398              1082.5502              1105.9382
 Red. masses --      1.7982                 2.1807                 2.3969
 Frc consts  --      1.2174                 1.5057                 1.7273
 IR Inten    --      2.6060                 3.9228                 0.2347

                     46                     47                     48
                      A                      A                      A
 Frequencies --   1122.2234              1123.8593              1151.2100
 Red. masses --      1.5091                 1.9066                 1.0513
 Frc consts  --      1.1198                 1.4189                 0.8209
 IR Inten    --      0.2128                 0.4862                 0.0524

                     49                     50                     51
                      A                      A                      A
 Frequencies --   1159.5751              1168.7695              1173.7822
 Red. masses --      1.4490                 1.4308                 1.9093
 Frc consts  --      1.1479                 1.1515                 1.5499
 IR Inten    --      0.1982                 4.4786                27.0310

                     52                     53                     54
                      A                      A                      A
 Frequencies --   1176.1948              1226.0058              1252.7380
 Red. masses --      1.8312                 2.5309                 3.9266
 Frc consts  --      1.4926                 2.2414                 3.6307
 IR Inten    --      1.3052                38.3255                 3.7902

                     55                     56                     57
                      A                      A                      A
 Frequencies --   1269.9920              1289.5274              1301.5553
 Red. masses --      1.3466                 1.7570                 1.2817
 Frc consts  --      1.2796                 1.7214                 1.2792
 IR Inten    --      0.3158                 7.1696                 5.8952

                     58                     59                     60
                      A                      A                      A
 Frequencies --   1309.4565              1320.1168              1332.1314
 Red. masses --      1.2987                 1.7026                 1.4268
 Frc consts  --      1.3121                 1.7482                 1.4918
 IR Inten    --      0.3524                 3.1305                 1.3667

                     61                     62                     63
                      A                      A                      A
 Frequencies --   1340.4432              1367.6058              1374.5773
 Red. masses --      1.2284                 1.4661                 1.4135
 Frc consts  --      1.3004                 1.6156                 1.5736
 IR Inten    --      1.2615                 0.1558                 0.7980

                     64                     65                     66
                      A                      A                      A
 Frequencies --   1388.0679              1396.9010              1401.8026
 Red. masses --      1.4327                 1.4940                 1.4182
 Frc consts  --      1.6264                 1.7177                 1.6420
 IR Inten    --      0.9895                13.3999                 1.8603

                     67                     68                     69
                      A                      A                      A
 Frequencies --   1407.6542              1416.2075              1423.3298
 Red. masses --      1.3931                 1.3965                 1.3516
 Frc consts  --      1.6264                 1.6502                 1.6133
 IR Inten    --      5.5670                 0.1831                 5.6234

                     70                     71                     72
                      A                      A                      A
 Frequencies --   1431.7710              1474.3879              1480.5323
 Red. masses --      1.3236                 2.3121                 1.7021
 Frc consts  --      1.5986                 2.9613                 2.1982
 IR Inten    --     14.6430               102.1057                14.7858

                     73                     74                     75
                      A                      A                      A
 Frequencies --   1483.4425              1503.0973              1509.2059
 Red. masses --      1.3058                 1.1069                 1.0944
 Frc consts  --      1.6930                 1.4734                 1.4687
 IR Inten    --      2.1608                 9.4864                10.7388

                     76                     77                     78
                      A                      A                      A
 Frequencies --   1513.7370              1518.6023              1522.1063
 Red. masses --      1.1646                 1.1462                 1.0961
 Frc consts  --      1.5722                 1.5573                 1.4962
 IR Inten    --      8.1021                11.4914                 1.4512

                     79                     80                     81
                      A                      A                      A
 Frequencies --   1525.4498              1533.1395              1542.0481
 Red. masses --      1.1227                 1.0971                 1.0958
 Frc consts  --      1.5392                 1.5194                 1.5353
 IR Inten    --      0.1033                23.5425                 0.8426

                     82                     83                     84
                      A                      A                      A
 Frequencies --   1552.3056              1616.5263              1637.3011
 Red. masses --      1.0517                 6.1140                 5.2043
 Frc consts  --      1.4932                 9.4133                 8.2199
 IR Inten    --      8.3027                71.2220                92.3788

                     85                     86                     87
                      A                      A                      A
 Frequencies --   2983.0736              2994.4771              2998.9065
 Red. masses --      1.0560                 1.0805                 1.0804
 Frc consts  --      5.5364                 5.7085                 5.7250
 IR Inten    --     78.7260                17.9369                 5.0380

                     88                     89                     90
                      A                      A                      A
 Frequencies --   3017.9697              3018.8752              3028.1890
 Red. masses --      1.0668                 1.0664                 1.0703
 Frc consts  --      5.7247                 5.7262                 5.7827
 IR Inten    --     18.2282                23.0774                68.9861

                     91                     92                     93
                      A                      A                      A
 Frequencies --   3044.8619              3048.1270              3049.5297
 Red. masses --      1.0696                 1.0681                 1.0701
 Frc consts  --      5.8424                 5.8468                 5.8633
 IR Inten    --     65.0692                35.7990                34.7918

                     94                     95                     96
                      A                      A                      A
 Frequencies --   3061.0606              3064.7789              3068.6610
 Red. masses --      1.0813                 1.0927                 1.0941
 Frc consts  --      5.9695                 6.0472                 6.0701
 IR Inten    --     91.7926                33.3962                50.2269

                     97                     98                     99
                      A                      A                      A
 Frequencies --   3078.3186              3087.1943              3100.4932
 Red. masses --      1.0936                 1.0990                 1.0958
 Frc consts  --      6.1057                 6.1715                 6.2065
 IR Inten    --     27.2909                33.3324                34.8327

                    100                    101                    102
                      A                      A                      A
 Frequencies --   3111.6316              3113.1188              3172.4304
 Red. masses --      1.1008                 1.0936                 1.0901
 Frc consts  --      6.2795                 6.2443                 6.4640
 IR Inten    --     29.3279                47.1060                22.1172

                    103                    104                    105
                      A                      A                      A
 Frequencies --   3176.2047              3226.5874              3568.6289
 Red. masses --      1.0912                 1.0960                 1.0741
 Frc consts  --      6.4857                 6.7228                 8.0595
 IR Inten    --     27.2672                14.9092                 1.6230

 - Thermochemistry -
 -------------------
 Temperature   298.150 Kelvin.  Pressure   1.00000 Atm.
 Atom     1 has atomic number  6 and mass  12.00000

 Molecular mass:   219.17355 amu.
 Principal axes and moments of inertia in atomic units:
                           1         2         3
     Eigenvalues --  2263.242044341.949804966.99823
           X            0.99989  -0.01406   0.00350
           Y            0.01403   0.99986   0.00938
           Z           -0.00364  -0.00933   0.99995
 This molecule is an asymmetric top.
 Rotational symmetry number  1.
 Warning -- assumption of classical behavior for rotation
           may cause significant error
 Rotational temperatures (Kelvin)      0.03827     0.01995     0.01744
 Rotational constants (GHZ):           0.79741     0.41565     0.36335
 Zero-point vibrational energy     873677.2 (Joules/Mol)
                                  208.81386 (Kcal/Mol)
 Warning -- explicit consideration of  21 degrees of freedom as
           vibrations may cause significant error
 Vibrational temperatures:     61.39    93.13   101.94   185.60   198.15
          (Kelvin)            233.31   241.26   268.27   283.00   342.69
                              400.18   424.63   499.83   540.46   575.27
                              593.81   596.29   629.82   679.96   714.34
                              827.06   895.42   935.10   976.64   995.90
                             1070.31  1134.72  1145.34  1181.41  1199.98
                             1209.64  1259.68  1279.11  1289.16  1357.64
                             1393.42  1436.01  1436.32  1450.37  1462.77
                             1498.03  1514.53  1542.28  1557.55  1591.20
                             1614.63  1616.98  1656.33  1668.37  1681.60
                             1688.81  1692.28  1763.95  1802.41  1827.24
                             1855.34  1872.65  1884.02  1899.35  1916.64
                             1928.60  1967.68  1977.71  1997.12  2009.83
                             2016.88  2025.30  2037.61  2047.85  2060.00
                             2121.32  2130.16  2134.34  2162.62  2171.41
                             2177.93  2184.93  2189.97  2194.78  2205.85
                             2218.66  2233.42  2325.82  2355.71  4291.98
                             4308.38  4314.76  4342.19  4343.49  4356.89
                             4380.88  4385.57  4387.59  4404.18  4409.53
                             4415.12  4429.01  4441.78  4460.92  4476.94
                             4479.08  4564.42  4569.85  4642.34  5134.46

 Zero-point correction=                           0.332766 (Hartree/Particle)
 Thermal correction to Energy=                    0.347577
 Thermal correction to Enthalpy=                  0.348521
 Thermal correction to Gibbs Free Energy=         0.291213
 Sum of electronic and zero-point Energies=           -672.010084
 Sum of electronic and thermal Energies=              -671.995273
 Sum of electronic and thermal Enthalpies=            -671.994328
 Sum of electronic and thermal Free Energies=         -672.051636

                     E (Thermal)             CV                S
                      KCal/Mol        Cal/Mol-Kelvin    Cal/Mol-Kelvin
 Total                  218.108             58.745            120.615
 Electronic               0.000              0.000              0.000
 Translational            0.889              2.981             42.057
 Rotational               0.889              2.981             32.257
 Vibrational            216.330             52.784             46.301
 Vibration     1          0.595              1.980              5.131
 Vibration     2          0.597              1.971              4.307
 Vibration     3          0.598              1.968              4.129
 Vibration     4          0.611              1.924              2.961
 Vibration     5          0.614              1.916              2.835
 Vibration     6          0.622              1.889              2.524
 Vibration     7          0.624              1.882              2.461
 Vibration     8          0.632              1.858              2.263
 Vibration     9          0.636              1.844              2.164
 Vibration    10          0.656              1.782              1.816
 Vibration    11          0.679              1.714              1.545
 Vibration    12          0.689              1.683              1.444
 Vibration    13          0.725              1.581              1.178
 Vibration    14          0.746              1.522              1.057
 Vibration    15          0.766              1.470              0.963
 Vibration    16          0.776              1.443              0.917
 Vibration    17          0.778              1.439              0.911
 Vibration    18          0.798              1.388              0.834
 Vibration    19          0.829              1.311              0.730
 Vibration    20          0.852              1.258              0.667
 Vibration    21          0.931              1.086              0.495

 Optimization completed.
    -- Stationary point found.
 Normal termination of Gaussian 16 at Fri Dec 11 00:16:03 2020.

 ----------------------------------------------------------------------
 # B3LYP/6-311++G(d,p) empiricaldispersion=gd3bj scf=xqc pop=npa geom=c
 heck
 ----------------------------------------------------------------------

 --------------------------------------
 CID_62602307_JID_6631_Energie_neutraal
 --------------------------------------
 Structure from the checkpoint file:  "JID_6631.chk"
 Charge =  0 Multiplicity = 1

 SCF Done:  E(RB3LYP) =  -672.522042332     A.U. after   16 cycles
 Normal termination of Gaussian 16 at Fri Dec 11 00:22:35 2020.

 ----------------------------------------------------------------------
 # B3LYP/6-311++G(d,p) empiricaldispersion=gd3bj scf=xqc pop=npa geom=c
 heck
 ----------------------------------------------------------------------

 ------------------------------------
 CID_62602307_JID_6631_Energie_kation
 ------------------------------------
 Structure from the checkpoint file:  "JID_6631.chk"
 Charge =  1 Multiplicity = 2

 SCF Done:  E(UB3LYP) =  -672.234674007     A.U. after   23 cycles
 Normal termination of Gaussian 16 at Fri Dec 11 00:35:12 2020.
 Gaussian 16:  ES64L-G16RevA.03 25-Dec-2016

 ----------------------------------------------------------------------
 # B3LYP/6-311++G(d,p) empiricaldispersion=gd3bj scf=xqc pop=npa geom=c
 heck
 ----------------------------------------------------------------------

 -----------------------------------
 CID_62602307_JID_6631_Energie_anion
 -----------------------------------
 Structure from the checkpoint file:  "JID_6631.chk"
 Charge = -1 Multiplicity = 2

                         Standard orientation:
 ---------------------------------------------------------------------
 Center     Atomic      Atomic             Coordinates (Angstroms)
 Number     Number       Type             X           Y           Z
 ---------------------------------------------------------------------
      1          6           0       -1.498875    2.757225   -0.887204
      2          7           0       -0.360347    1.864313   -0.975949
      3          6           0        0.262008    1.507767    0.283353
      4          6           0       -0.609868    0.967370    1.462276
      5          6           0       -1.437061   -0.347729    1.442537
      6          6           0       -2.844846   -0.254345    0.805261
      7          6           0       -2.916677   -0.565105   -0.694074
      8          6           0       -2.271478   -1.920600   -0.999933
      9          6           0       -0.813983   -1.931025   -0.528516
     10          6           0       -0.700412   -1.625502    0.973053
     11          6           0        1.486503    0.641674    0.044077
     12          7           0        2.307833    0.483033    1.096776
     13          6           0        3.392976   -0.268606    0.904590
     14          6           0        3.679014   -0.871843   -0.319710
     15          6           0        2.761945   -0.646168   -1.340003
     16          7           0        1.669455    0.107469   -1.169767
     17          1           0       -1.189581    3.682974   -0.385363
     18          1           0       -2.373624    2.362794   -0.342528
     19          1           0       -1.824679    3.022334   -1.898513
     20          1           0       -0.537377    1.047483   -1.549332
     21          1           0        0.667416    2.444505    0.697850
     22          1           0        0.097387    0.885829    2.295449
     23          1           0       -1.300566    1.774794    1.737746
     24          1           0       -1.630210   -0.498815    2.513963
     25          1           0       -3.486805   -0.984911    1.318858
     26          1           0       -3.279349    0.731074    1.016384
     27          1           0       -2.403128    0.213480   -1.268847
     28          1           0       -3.964296   -0.552972   -1.020569
     29          1           0       -2.325692   -2.138471   -2.073953
     30          1           0       -2.834122   -2.715011   -0.486996
     31          1           0       -0.247382   -1.198804   -1.111635
     32          1           0       -0.352518   -2.906401   -0.731683
     33          1           0        0.352389   -1.582143    1.276442
     34          1           0       -1.137816   -2.476233    1.515279
     35          1           0        4.054603   -0.390792    1.760802
     36          1           0        4.563883   -1.481395   -0.466573
     37          1           0        2.897396   -1.081704   -2.328459
 ---------------------------------------------------------------------

 SCF Done:  E(UB3LYP) =  -672.515041343     A.U. after   33 cycles
 SCF Done:  E(UB3LYP) =  -672.515041343     a.u. after    1 cycles

 The electronic state is 2-A.
 Alpha  occ. eigenvalues --  -14.17859 -14.16326 -14.16317 -10.10569 -10.08400
 Alpha  occ. eigenvalues --  -10.08159 -10.06739 -10.06679 -10.05969 -10.05248
 Alpha  occ. eigenvalues --  -10.05212 -10.05039 -10.05035 -10.04841 -10.04607
 Alpha  occ. eigenvalues --  -10.04041  -0.84660  -0.79069  -0.74477  -0.71827
 Alpha  occ. eigenvalues --   -0.66935  -0.64817  -0.62650  -0.60691  -0.56405
 Alpha  occ. eigenvalues --   -0.52803  -0.51465  -0.49609  -0.49076  -0.46521
 Alpha  occ. eigenvalues --   -0.41446  -0.40008  -0.37860  -0.36926  -0.35779
 Alpha  occ. eigenvalues --   -0.35060  -0.33850  -0.32878  -0.31981  -0.30927
 Alpha  occ. eigenvalues --   -0.30502  -0.29356  -0.29172  -0.27589  -0.27425
 Alpha  occ. eigenvalues --   -0.26385  -0.26292  -0.25742  -0.24016  -0.23830
 Alpha  occ. eigenvalues --   -0.21961  -0.21891  -0.19670  -0.18704  -0.18342
 Alpha  occ. eigenvalues --   -0.17771  -0.16469  -0.14447  -0.11427  -0.10187
 Alpha  occ. eigenvalues --    0.05000
 Alpha virt. eigenvalues --    0.06570   0.07820   0.08094   0.08130   0.09165
 Alpha virt. eigenvalues --    0.09926   0.10017   0.10232   0.10655   0.11048
 Alpha virt. eigenvalues --    0.11717   0.11841   0.12900   0.13075   0.13324

  Beta  occ. eigenvalues --  -14.17854 -14.16058 -14.16054 -10.10625 -10.08400
  Beta  occ. eigenvalues --  -10.08151 -10.06434 -10.06373 -10.05966 -10.05233
  Beta  occ. eigenvalues --  -10.05201 -10.05140 -10.05022 -10.04836 -10.04601
  Beta  occ. eigenvalues --  -10.04038  -0.84255  -0.79025  -0.73850  -0.71807
  Beta  occ. eigenvalues --   -0.66786  -0.64688  -0.62627  -0.60619  -0.56366
  Beta  occ. eigenvalues --   -0.52704  -0.50828  -0.49577  -0.49003  -0.46467
  Beta  occ. eigenvalues --   -0.41376  -0.39901  -0.37639  -0.36888  -0.35715
  Beta  occ. eigenvalues --   -0.35014  -0.33760  -0.32845  -0.31887  -0.30842
  Beta  occ. eigenvalues --   -0.30390  -0.29265  -0.28941  -0.27244  -0.27137
  Beta  occ. eigenvalues --   -0.26288  -0.26267  -0.25566  -0.23960  -0.23762
  Beta  occ. eigenvalues --   -0.21877  -0.21821  -0.19460  -0.18662  -0.18270
  Beta  occ. eigenvalues --   -0.16145  -0.16050  -0.13710  -0.11196  -0.10062
  Beta virt. eigenvalues --    0.06978   0.07912   0.08190   0.08395   0.09453
  Beta virt. eigenvalues --    0.09944   0.10091   0.10360   0.10406   0.10800
  Beta virt. eigenvalues --    0.11149   0.11813   0.11977   0.12916   0.13130

 Mulliken charges and spin densities:
               1          2
     1  C   -0.127592  -0.173614
     2  N   -0.048479   0.057667
     3  C    0.434099  -0.440233
     4  C   -0.625530  -0.120370
     5  C    0.279433   0.201417
     6  C    0.251465  -0.810272
     7  C   -0.260267   0.147972
     8  C    0.465816  -1.083208
     9  C   -0.299165   0.038629
    10  C   -0.451960   0.101282
    11  C   -1.060909   0.049287
    12  N   -0.019245   0.142928
    13  C   -0.067168   0.295564
    14  C   -0.061001  -0.252122
    15  C   -0.184626   0.465235
    16  N   -0.021526   0.106501
    17  H    0.047890   0.076553
    18  H    0.142785  -0.002374
    19  H    0.034885   0.095618
    20  H    0.180965   0.021898
    21  H    0.208560  -0.034375
    22  H    0.155999   0.035760
    23  H    0.097658   0.050206
    24  H    0.023577   0.168711
    25  H   -0.168646   0.307591
    26  H   -0.072764   0.190761
    27  H    0.203640  -0.124080
    28  H   -0.394675   0.575767
    29  H   -0.081191   0.250974
    30  H   -0.054777   0.169338
    31  H    0.155162  -0.064299
    32  H    0.012962   0.138017
    33  H    0.146305   0.017134
    34  H   -0.092052   0.266149
    35  H    0.112391   0.012301
    36  H    0.070495   0.060938
    37  H    0.067486   0.060752
 Sum of Mulliken charges =  -1.00000   1.00000

 Dipole moment (field-independent basis, Debye):
    X=              1.0541    Y=              1.3519    Z=              0.3924  Tot=              1.7586
 Quadrupole moment (field-independent basis, Debye-Ang):
   XX=           -155.7225   YY=           -128.8662   ZZ=           -125.7779
   XY=            -10.1766   XZ=              0.1844   YZ=              0.0478

 Summary of Natural Population Analysis:

                                       Natural Population
                Natural  -----------------------------------------------
    Atom  No    Charge         Core      Valence    Rydberg      Total
 -----------------------------------------------------------------------
      C    1   -0.17840      0.99966     2.17195    0.00679     3.17840
      N    2   -0.33852      0.99973     2.82800    0.01079     3.83852
      C    3   -0.02579      0.99954     2.01257    0.01368     3.02579
      C    4   -0.19521      0.99958     2.18503    0.01060     3.19521
      C    5   -0.11056      0.99958     2.09984    0.01114     3.11056
      C    6   -0.18854      0.99961     2.17903    0.00991     3.18854
      C    7   -0.19281      0.99962     2.18424    0.00895     3.19281
      C    8   -0.18748      0.99963     2.17976    0.00809     3.18748
      C    9   -0.20052      0.99961     2.19198    0.00892     3.20052
      C   10   -0.19180      0.99961     2.18374    0.00846     3.19180
      C   11    0.21363      0.99957     1.76824    0.01856     2.78637
      N   12   -0.23259      0.99967     2.72216    0.01076     3.73259
      C   13    0.08906      0.99960     1.89670    0.01464     2.91094
      C   14   -0.17238      0.99956     2.16432    0.00850     3.17238
      C   15    0.09268      0.99959     1.89346    0.01426     2.90732
      N   16   -0.23478      0.99966     2.72413    0.01099     3.73478
      H   17    0.08786      0.00000     0.41116    0.00097     0.41214
      H   18    0.07850      0.00000     0.41986    0.00165     0.42150
      H   19    0.09136      0.00000     0.40774    0.00089     0.40864
      H   20    0.18244      0.00000     0.31418    0.00338     0.31756
      H   21    0.09654      0.00000     0.40167    0.00179     0.40346
      H   22    0.11062      0.00000     0.38800    0.00138     0.38938
      H   23    0.09256      0.00000     0.40636    0.00108     0.40744
      H   24    0.09533      0.00000     0.40319    0.00148     0.40467
      H   25    0.09508      0.00000     0.40353    0.00139     0.40492
      H   26    0.09525      0.00000     0.40357    0.00118     0.40475
      H   27    0.09051      0.00000     0.40714    0.00234     0.40949
      H   28    0.09558      0.00000     0.40330    0.00112     0.40442
      H   29    0.09531      0.00000     0.40378    0.00091     0.40469
      H   30    0.08985      0.00000     0.40877    0.00137     0.41015
      H   31    0.10742      0.00000     0.39005    0.00253     0.39258
      H   32    0.09493      0.00000     0.40414    0.00093     0.40507
      H   33    0.10601      0.00000     0.39232    0.00168     0.39399
      H   34    0.09217      0.00000     0.40674    0.00109     0.40783
      H   35    0.07878      0.00000     0.42015    0.00107     0.42122
      H   36    0.09773      0.00000     0.40136    0.00091     0.40227
      H   37    0.08020      0.00000     0.41877    0.00104     0.41980
 =======================================================================
   * Total *    0.00000     15.99383    43.80093    0.20524    60.00000

 Normal termination of Gaussian 16 at Fri Dec 11 00:54:52 2020.
