 Gaussian 16, Revision A.03,

 -----------------------------------------------------------
 # opt freq B3LYP/6-31G(d) empiricaldispersion=gd3bj scf=xqc
 -----------------------------------------------------------

 -----------------------------
 CID_17935141_JID_691_neutraal
 -----------------------------
 Symbolic Z-matrix:
 Charge =  0 Multiplicity = 1

 SCF Done:  E(RB3LYP) =  -532.902238292     A.U. after   14 cycles
 SCF Done:  E(RB3LYP) =  -532.906549931     A.U. after   12 cycles
 SCF Done:  E(RB3LYP) =  -532.908043894     A.U. after   12 cycles
 SCF Done:  E(RB3LYP) =  -532.909024786     A.U. after   15 cycles
 SCF Done:  E(RB3LYP) =  -532.910130127     A.U. after   12 cycles
 SCF Done:  E(RB3LYP) =  -532.910194285     A.U. after   12 cycles
 SCF Done:  E(RB3LYP) =  -532.908523510     A.U. after   14 cycles
 SCF Done:  E(RB3LYP) =  -532.910441363     A.U. after   11 cycles
 SCF Done:  E(RB3LYP) =  -532.910595108     A.U. after   11 cycles
 SCF Done:  E(RB3LYP) =  -532.910619819     A.U. after   11 cycles
 SCF Done:  E(RB3LYP) =  -532.910663034     A.U. after   10 cycles
 SCF Done:  E(RB3LYP) =  -532.910675680     A.U. after   10 cycles
 SCF Done:  E(RB3LYP) =  -532.910680741     A.U. after    9 cycles
 SCF Done:  E(RB3LYP) =  -532.910681682     A.U. after    8 cycles
 SCF Done:  E(RB3LYP) =  -532.910681914     A.U. after    7 cycles
 Optimization completed.
    -- Stationary point found.
 Normal termination of Gaussian 16 at Tue Dec  8 12:25:05 2020.

 --------------------------------------------------------------------
 #N Geom=AllCheck Guess=TCheck SCRF=Check GenChk RB3LYP/6-31G(d) Freq
 --------------------------------------------------------------------

 Structure from the checkpoint file:  "JID_691.chk"
 -----------------------------
 CID_17935141_JID_691_neutraal
 -----------------------------
 Charge =  0 Multiplicity = 1

 SCF Done:  E(RB3LYP) =  -532.910681914     A.U. after    1 cycles

  Exact polarizability:  93.014   5.029  72.545   0.039   5.097  64.125
 Approx polarizability: 118.594   7.498 102.367   0.375  14.612  95.897

                      1                      2                      3
                      A                      A                      A
 Frequencies --     49.7796                55.6227                91.3887
 Red. masses --      5.0623                 4.4671                 3.8399
 Frc consts  --      0.0074                 0.0081                 0.0189
 IR Inten    --      2.6623                 1.5600                 0.9141

                      4                      5                      6
                      A                      A                      A
 Frequencies --    113.8977               128.9883               178.5293
 Red. masses --      3.5285                 3.7220                 2.7195
 Frc consts  --      0.0270                 0.0365                 0.0511
 IR Inten    --      0.3564                 4.2155                 9.3397

                      7                      8                      9
                      A                      A                      A
 Frequencies --    212.5459               264.7013               276.9351
 Red. masses --      1.5831                 3.3548                 1.5089
 Frc consts  --      0.0421                 0.1385                 0.0682
 IR Inten    --      7.0810                 3.5004                 1.9729

                     10                     11                     12
                      A                      A                      A
 Frequencies --    335.8239               405.7379               411.9200
 Red. masses --      4.2150                 2.8814                 3.6349
 Frc consts  --      0.2801                 0.2795                 0.3634
 IR Inten    --     16.2305                 3.2812                 5.1314

                     13                     14                     15
                      A                      A                      A
 Frequencies --    484.2399               514.5241               571.8975
 Red. masses --      1.2944                 1.0953                 2.8981
 Frc consts  --      0.1788                 0.1708                 0.5585
 IR Inten    --    104.8105               116.8790                12.0657

                     16                     17                     18
                      A                      A                      A
 Frequencies --    590.8840               685.2905               751.0279
 Red. masses --      2.9509                 3.4447                 9.5329
 Frc consts  --      0.6070                 0.9531                 3.1680
 IR Inten    --      7.0051                 3.7365                45.6753

                     19                     20                     21
                      A                      A                      A
 Frequencies --    801.9411               816.1147               850.7855
 Red. masses --      1.3053                 1.6087                 3.6517
 Frc consts  --      0.4946                 0.6313                 1.5573
 IR Inten    --      5.8449                14.0092                16.0987

                     22                     23                     24
                      A                      A                      A
 Frequencies --    865.5320               922.9832               949.3261
 Red. masses --      2.7896                 2.6758                 2.5944
 Frc consts  --      1.2313                 1.3431                 1.3776
 IR Inten    --      8.7560                 8.5520                45.0223

                     25                     26                     27
                      A                      A                      A
 Frequencies --   1040.6651              1052.3250              1088.6836
 Red. masses --      1.5152                 3.2093                 2.4990
 Frc consts  --      0.9668                 2.0939                 1.7451
 IR Inten    --     33.4882                44.4635                66.9715

                     28                     29                     30
                      A                      A                      A
 Frequencies --   1092.1768              1121.7858              1165.1425
 Red. masses --      3.5457                 1.7984                 1.6006
 Frc consts  --      2.4920                 1.3334                 1.2803
 IR Inten    --     45.0458                31.9011                29.4268

                     31                     32                     33
                      A                      A                      A
 Frequencies --   1197.4550              1242.8020              1318.8670
 Red. masses --      2.3331                 1.3371                 1.4628
 Frc consts  --      1.9711                 1.2168                 1.4991
 IR Inten    --     15.7406                33.3786               171.1818

                     34                     35                     36
                      A                      A                      A
 Frequencies --   1325.1992              1359.9937              1392.6032
 Red. masses --      1.3438                 1.5309                 1.4028
 Frc consts  --      1.3905                 1.6682                 1.6029
 IR Inten    --     21.2260               140.3221                13.5728

                     37                     38                     39
                      A                      A                      A
 Frequencies --   1411.9452              1425.2593              1434.2585
 Red. masses --      1.2139                 1.3868                 1.3662
 Frc consts  --      1.4258                 1.6597                 1.6559
 IR Inten    --     23.5309                59.3712                42.2084

                     40                     41                     42
                      A                      A                      A
 Frequencies --   1440.5930              1487.9718              1507.5939
 Red. masses --      1.2630                 1.4257                 1.0814
 Frc consts  --      1.5443                 1.8598                 1.4482
 IR Inten    --     15.8070                27.9608                 6.8034

                     43                     44                     45
                      A                      A                      A
 Frequencies --   1518.7419              1523.6760              1533.5328
 Red. masses --      1.0794                 1.0904                 1.0822
 Frc consts  --      1.4669                 1.4915                 1.4995
 IR Inten    --     17.4690                 3.2191                 3.1299

                     46                     47                     48
                      A                      A                      A
 Frequencies --   1539.3101              1542.3908              1853.4703
 Red. masses --      1.0732                 1.1270                 9.3256
 Frc consts  --      1.4982                 1.5797                18.8756
 IR Inten    --      2.6603                33.7429               411.0902

                     49                     50                     51
                      A                      A                      A
 Frequencies --   3033.2550              3056.7243              3069.7962
 Red. masses --      1.0691                 1.0360                 1.0653
 Frc consts  --      5.7953                 5.7031                 5.9151
 IR Inten    --     38.5063                18.0884                20.1696

                     52                     53                     54
                      A                      A                      A
 Frequencies --   3078.4514              3111.6435              3116.5141
 Red. masses --      1.0640                 1.0961                 1.1028
 Frc consts  --      5.9408                 6.2530                 6.3108
 IR Inten    --     30.7579                46.1823                 4.3119

                     55                     56                     57
                      A                      A                      A
 Frequencies --   3128.3703              3140.7586              3142.4214
 Red. masses --      1.0999                 1.1011                 1.1041
 Frc consts  --      6.3421                 6.3994                 6.4235
 IR Inten    --     28.9316                10.5778                43.8165

                     58                     59                     60
                      A                      A                      A
 Frequencies --   3479.5476              3635.4077              3737.3576
 Red. masses --      1.0752                 1.0768                 1.0655
 Frc consts  --      7.6699                 8.3844                 8.7684
 IR Inten    --      1.6441                38.4196                29.2681

 - Thermochemistry -
 -------------------
 Temperature   298.150 Kelvin.  Pressure   1.00000 Atm.
 Atom     1 has atomic number  6 and mass  12.00000

 Molecular mass:   148.08479 amu.
 Principal axes and moments of inertia in atomic units:
                           1         2         3
     Eigenvalues --  1059.720041759.662762418.80302
           X            0.99829   0.05813   0.00609
           Y           -0.05806   0.99825  -0.01100
           Z           -0.00671   0.01063   0.99992
 This molecule is an asymmetric top.
 Rotational symmetry number  1.
 Warning -- assumption of classical behavior for rotation
           may cause significant error
 Rotational temperatures (Kelvin)      0.08173     0.04922     0.03581
 Rotational constants (GHZ):           1.70304     1.02562     0.74613
 Zero-point vibrational energy     494518.9 (Joules/Mol)
                                  118.19286 (Kcal/Mol)
 Warning -- explicit consideration of  16 degrees of freedom as
           vibrations may cause significant error
 Vibrational temperatures:     71.62    80.03   131.49   163.87   185.59
          (Kelvin)            256.86   305.81   380.85   398.45   483.18
                              583.77   592.66   696.71   740.29   822.83
                              850.15   985.98  1080.56  1153.81  1174.21
                             1224.09  1245.31  1327.97  1365.87  1497.28
                             1514.06  1566.37  1571.40  1614.00  1676.38
                             1722.87  1788.11  1897.56  1906.67  1956.73
                             2003.65  2031.47  2050.63  2063.58  2072.69
                             2140.86  2169.09  2185.13  2192.23  2206.41
                             2214.72  2219.16  2666.73  4364.18  4397.94
                             4416.75  4429.20  4476.96  4483.97  4501.03
                             4518.85  4521.24  5006.29  5230.54  5377.22

 Zero-point correction=                           0.188352 (Hartree/Particle)
 Thermal correction to Energy=                    0.199673
 Thermal correction to Enthalpy=                  0.200617
 Thermal correction to Gibbs Free Energy=         0.150644
 Sum of electronic and zero-point Energies=           -532.722330
 Sum of electronic and thermal Energies=              -532.711009
 Sum of electronic and thermal Enthalpies=            -532.710065
 Sum of electronic and thermal Free Energies=         -532.760038

                     E (Thermal)             CV                S
                      KCal/Mol        Cal/Mol-Kelvin    Cal/Mol-Kelvin
 Total                  125.297             40.427            105.179
 Electronic               0.000              0.000              0.000
 Translational            0.889              2.981             40.888
 Rotational               0.889              2.981             29.890
 Vibrational            123.519             34.465             34.400
 Vibration     1          0.595              1.978              4.826
 Vibration     2          0.596              1.975              4.607
 Vibration     3          0.602              1.955              3.630
 Vibration     4          0.607              1.938              3.201
 Vibration     5          0.611              1.924              2.961
 Vibration     6          0.629              1.869              2.344
 Vibration     7          0.644              1.822              2.022
 Vibration     8          0.671              1.738              1.631
 Vibration     9          0.678              1.716              1.553
 Vibration    10          0.717              1.604              1.232
 Vibration    11          0.771              1.458              0.942
 Vibration    12          0.776              1.444              0.920
 Vibration    13          0.840              1.285              0.699
 Vibration    14          0.870              1.218              0.623
 Vibration    15          0.928              1.092              0.501
 Vibration    16          0.948              1.051              0.466

                           ! Non-Optimized Parameters !
 Normal termination of Gaussian 16 at Tue Dec  8 12:29:38 2020.

 ----------------------------------------------------------------------
 # B3LYP/6-311++G(d,p) empiricaldispersion=gd3bj scf=xqc pop=npa geom=c
 heck
 ----------------------------------------------------------------------

 -------------------------------------
 CID_17935141_JID_691_Energie_neutraal
 -------------------------------------
 Structure from the checkpoint file:  "JID_691.chk"
 Charge =  0 Multiplicity = 1

 SCF Done:  E(RB3LYP) =  -533.087105186     A.U. after   13 cycles
 Normal termination of Gaussian 16 at Tue Dec  8 12:32:30 2020.

 ----------------------------------------------------------------------
 # B3LYP/6-311++G(d,p) empiricaldispersion=gd3bj scf=xqc pop=npa geom=c
 heck
 ----------------------------------------------------------------------

 -----------------------------------
 CID_17935141_JID_691_Energie_kation
 -----------------------------------
 Structure from the checkpoint file:  "JID_691.chk"
 Charge =  1 Multiplicity = 2

 SCF Done:  E(UB3LYP) =  -532.753538388     A.U. after   22 cycles
 Normal termination of Gaussian 16 at Tue Dec  8 12:39:37 2020.
 Gaussian 16:  ES64L-G16RevA.03 25-Dec-2016

 ----------------------------------------------------------------------
 # B3LYP/6-311++G(d,p) empiricaldispersion=gd3bj scf=xqc pop=npa geom=c
 heck
 ----------------------------------------------------------------------

 ----------------------------------
 CID_17935141_JID_691_Energie_anion
 ----------------------------------
 Structure from the checkpoint file:  "JID_691.chk"
 Charge = -1 Multiplicity = 2

                         Standard orientation:
 ---------------------------------------------------------------------
 Center     Atomic      Atomic             Coordinates (Angstroms)
 Number     Number       Type             X           Y           Z
 ---------------------------------------------------------------------
      1          6           0       -2.109278   -1.736721    0.379709
      2          6           0       -2.468632   -0.496515   -0.444056
      3          7           0       -1.971182    0.755274    0.118411
      4          6           0       -0.676401    1.189679    0.081800
      5          8           0       -0.236248    2.136578    0.696963
      6          8           0        0.061408    0.376261   -0.744270
      7          7           0        1.422711    0.870892   -0.950953
      8          6           0        2.256953    0.484446    0.200233
      9          6           0        1.934511   -0.896482    0.789521
     10          8           0        1.748545   -1.886835   -0.215329
     11          1           0       -1.024897   -1.875700    0.432173
     12          1           0       -2.544330   -2.635684   -0.071496
     13          1           0       -2.489397   -1.651139    1.403581
     14          1           0       -2.081069   -0.587799   -1.461956
     15          1           0       -3.556130   -0.398837   -0.524715
     16          1           0       -2.517176    1.214388    0.833642
     17          1           0        1.681187    0.252851   -1.720807
     18          1           0        3.281890    0.507750   -0.189391
     19          1           0        2.159248    1.254847    0.968825
     20          1           0        2.768702   -1.232695    1.412829
     21          1           0        1.050434   -0.826067    1.438071
     22          1           0        0.898280   -1.679556   -0.635122
 ---------------------------------------------------------------------

 SCF Done:  E(UB3LYP) =  -533.074506602     A.U. after   28 cycles

 The electronic state is 2-A.
 Alpha  occ. eigenvalues --  -19.08537 -19.02617 -18.99226 -14.27084 -14.23110
 Alpha  occ. eigenvalues --  -10.21449 -10.12187 -10.10248 -10.09952 -10.05388
 Alpha  occ. eigenvalues --   -1.02138  -0.93279  -0.92220  -0.83058  -0.76580
 Alpha  occ. eigenvalues --   -0.64961  -0.63376  -0.54583  -0.53033  -0.48464
 Alpha  occ. eigenvalues --   -0.43338  -0.42061  -0.39846  -0.38567  -0.38080
 Alpha  occ. eigenvalues --   -0.35489  -0.34652  -0.33033  -0.31899  -0.30637
 Alpha  occ. eigenvalues --   -0.29728  -0.28510  -0.26830  -0.24817  -0.24445
 Alpha  occ. eigenvalues --   -0.22759  -0.19052  -0.18078  -0.16399  -0.14964
 Alpha  occ. eigenvalues --    0.04687
 Alpha virt. eigenvalues --    0.06693   0.07693   0.08711   0.09567   0.09915
 Alpha virt. eigenvalues --    0.11099   0.11747   0.12732   0.13365   0.13489
 Alpha virt. eigenvalues --    0.14232   0.14761   0.14987   0.16007   0.17333

  Beta  occ. eigenvalues --  -19.08515 -19.02591 -18.99219 -14.27060 -14.23082
  Beta  occ. eigenvalues --  -10.21442 -10.12168 -10.10238 -10.09906 -10.05334
  Beta  occ. eigenvalues --   -1.02104  -0.93243  -0.92185  -0.83007  -0.76524
  Beta  occ. eigenvalues --   -0.64882  -0.63322  -0.54507  -0.52931  -0.48383
  Beta  occ. eigenvalues --   -0.43295  -0.42013  -0.39770  -0.38503  -0.38020
  Beta  occ. eigenvalues --   -0.35446  -0.34602  -0.32987  -0.31862  -0.30590
  Beta  occ. eigenvalues --   -0.29662  -0.28473  -0.26746  -0.24765  -0.24415
  Beta  occ. eigenvalues --   -0.22727  -0.19018  -0.18060  -0.16365  -0.14928
  Beta virt. eigenvalues --    0.07050   0.08116   0.08311   0.09520   0.10407
  Beta virt. eigenvalues --    0.10561   0.11254   0.12278   0.13236   0.13733
  Beta virt. eigenvalues --    0.14049   0.14364   0.14750   0.15294   0.16179

 Mulliken charges and spin densities:
               1          2
     1  C    1.018550  -1.302014
     2  C    0.735706  -1.141767
     3  N   -0.447771   0.233935
     4  C    0.619962  -0.440989
     5  O   -0.352665   0.022575
     6  O   -0.046719   0.024803
     7  N   -0.161606  -0.134845
     8  C   -0.158044  -0.263694
     9  C    0.220613  -0.498204
    10  O   -0.220824  -0.020904
    11  H   -0.102142   0.194712
    12  H   -0.433901   0.571781
    13  H   -0.395495   0.542074
    14  H   -0.181773   0.366962
    15  H   -0.946005   1.130625
    16  H   -0.161592   0.471786
    17  H    0.089246   0.222756
    18  H   -0.222990   0.396644
    19  H    0.179141   0.009411
    20  H   -0.322020   0.488384
    21  H    0.051628   0.113372
    22  H    0.238700   0.012598
 Sum of Mulliken charges =  -1.00000   1.00000

 Dipole moment (field-independent basis, Debye):
    X=              5.7465    Y=              1.6485    Z=             -0.5175  Tot=              6.0007
 Quadrupole moment (field-independent basis, Debye-Ang):
   XX=           -127.2449   YY=           -103.8314   ZZ=            -86.7529
   XY=             -3.7562   XZ=              2.9312   YZ=             -2.2706

 Summary of Natural Population Analysis:

                                       Natural Population
                Natural  -----------------------------------------------
    Atom  No    Charge         Core      Valence    Rydberg      Total
 -----------------------------------------------------------------------
      C    1   -0.29049      0.99966     2.28467    0.00616     3.29049
      C    2   -0.09113      0.99963     2.07960    0.01190     3.09113
      N    3   -0.32455      0.99968     2.81356    0.01131     3.82455
      C    4    0.45939      0.99970     1.51451    0.02639     2.54061
      O    5   -0.32506      0.99987     3.31972    0.00547     4.32506
      O    6   -0.23971      0.99987     3.23008    0.00976     4.23971
      N    7   -0.15945      0.99974     2.64598    0.01373     3.65945
      C    8   -0.11384      0.99963     2.10449    0.00972     3.11384
      C    9   -0.02138      0.99960     2.01033    0.01144     3.02138
      O   10   -0.37280      0.99990     3.36570    0.00720     4.37280
      H   11    0.09354      0.00000     0.40426    0.00220     0.40646
      H   12    0.10340      0.00000     0.39446    0.00214     0.39660
      H   13    0.10083      0.00000     0.39695    0.00222     0.39917
      H   14    0.09910      0.00000     0.39893    0.00197     0.40090
      H   15    0.10214      0.00000     0.39227    0.00559     0.39786
      H   16    0.20096      0.00000     0.29598    0.00305     0.29904
      H   17    0.17206      0.00000     0.32528    0.00266     0.32794
      H   18    0.09695      0.00000     0.40150    0.00155     0.40305
      H   19    0.10481      0.00000     0.39393    0.00126     0.39519
      H   20    0.08898      0.00000     0.40963    0.00138     0.41102
      H   21    0.08135      0.00000     0.41690    0.00176     0.41865
      H   22    0.23488      0.00000     0.26145    0.00367     0.26512
 =======================================================================
   * Total *    0.00000      9.99729    29.86021    0.14251    40.00000

 Normal termination of Gaussian 16 at Tue Dec  8 12:49:34 2020.
