 Gaussian 16, Revision A.03,

 -----------------------------------------------------------
 # opt freq B3LYP/6-31G(d) empiricaldispersion=gd3bj scf=xqc
 -----------------------------------------------------------

 -------------------------------
 CID_108115123_JID_6310_neutraal
 -------------------------------
 Symbolic Z-matrix:
 Charge =  0 Multiplicity = 1

 SCF Done:  E(RB3LYP) =  -797.294176171     A.U. after   15 cycles
 SCF Done:  E(RB3LYP) =  -797.301784504     A.U. after   13 cycles
 SCF Done:  E(RB3LYP) =  -797.304319750     A.U. after   13 cycles
 SCF Done:  E(RB3LYP) =  -797.305173941     A.U. after   14 cycles
 SCF Done:  E(RB3LYP) =  -797.306041354     A.U. after   13 cycles
 SCF Done:  E(RB3LYP) =  -797.306519112     A.U. after   12 cycles
 SCF Done:  E(RB3LYP) =  -797.307320004     A.U. after   13 cycles
 SCF Done:  E(RB3LYP) =  -797.307900969     A.U. after   13 cycles
 SCF Done:  E(RB3LYP) =  -797.307297397     A.U. after   13 cycles
 SCF Done:  E(RB3LYP) =  -797.308312990     A.U. after   12 cycles
 SCF Done:  E(RB3LYP) =  -797.308803412     A.U. after   10 cycles
 SCF Done:  E(RB3LYP) =  -797.308809006     A.U. after   10 cycles
 SCF Done:  E(RB3LYP) =  -797.308809445     A.U. after    8 cycles
 SCF Done:  E(RB3LYP) =  -797.308809499     A.U. after    8 cycles
 SCF Done:  E(RB3LYP) =  -797.308809584     A.U. after    7 cycles
 Optimization completed.
    -- Stationary point found.
 Normal termination of Gaussian 16 at Thu Dec 10 22:14:01 2020.

 --------------------------------------------------------------------
 #N Geom=AllCheck Guess=TCheck SCRF=Check GenChk RB3LYP/6-31G(d) Freq
 --------------------------------------------------------------------

 Structure from the checkpoint file:  "JID_6310.chk"
 -------------------------------
 CID_108115123_JID_6310_neutraal
 -------------------------------
 Charge =  0 Multiplicity = 1

 SCF Done:  E(RB3LYP) =  -797.308809584     A.U. after    1 cycles

  Exact polarizability: 171.536   5.951 128.572   5.418  -3.699  91.807
 Approx polarizability: 212.266  16.422 218.834   8.156 -11.297 142.430

                      1                      2                      3
                      A                      A                      A
 Frequencies --     35.4417                38.2875                57.7242
 Red. masses --      4.8011                 3.9088                 5.5297
 Frc consts  --      0.0036                 0.0034                 0.0109
 IR Inten    --      0.4445                 0.7778                 0.5043

                      4                      5                      6
                      A                      A                      A
 Frequencies --     66.9636                81.2869               104.1423
 Red. masses --      6.1917                 6.4711                 3.6375
 Frc consts  --      0.0164                 0.0252                 0.0232
 IR Inten    --      3.4431                 0.3587                 2.0439

                      7                      8                      9
                      A                      A                      A
 Frequencies --    138.1209               162.7039               222.0878
 Red. masses --      4.3236                 3.1236                 4.7275
 Frc consts  --      0.0486                 0.0487                 0.1374
 IR Inten    --      1.9513                 2.4642                 0.5743

                     10                     11                     12
                      A                      A                      A
 Frequencies --    239.5270               257.7235               269.0395
 Red. masses --      1.3129                 2.3273                 3.5152
 Frc consts  --      0.0444                 0.0911                 0.1499
 IR Inten    --      1.3931                 4.3275                 4.9510

                     13                     14                     15
                      A                      A                      A
 Frequencies --    287.6362               297.9151               336.3284
 Red. masses --      2.6100                 1.3638                 3.8108
 Frc consts  --      0.1272                 0.0713                 0.2540
 IR Inten    --     35.1180                67.8670                 3.9741

                     16                     17                     18
                      A                      A                      A
 Frequencies --    349.2137               382.4093               395.6141
 Red. masses --      1.1533                 3.3018                 3.8663
 Frc consts  --      0.0829                 0.2845                 0.3565
 IR Inten    --     33.4595                 6.7203                 7.8886

                     19                     20                     21
                      A                      A                      A
 Frequencies --    412.1630               450.5199               463.1202
 Red. masses --      2.7004                 4.2833                 2.8906
 Frc consts  --      0.2703                 0.5122                 0.3653
 IR Inten    --      3.3973                19.8794                10.5419

                     22                     23                     24
                      A                      A                      A
 Frequencies --    517.8665               525.3697               566.4849
 Red. masses --      3.6687                 3.1766                 3.9673
 Frc consts  --      0.5797                 0.5166                 0.7501
 IR Inten    --      5.6675                 1.1841                61.7463

                     25                     26                     27
                      A                      A                      A
 Frequencies --    601.8512               610.2422               646.4883
 Red. masses --      2.3478                 3.5194                 2.1306
 Frc consts  --      0.5011                 0.7722                 0.5247
 IR Inten    --     37.8158                 8.8704                34.1065

                     28                     29                     30
                      A                      A                      A
 Frequencies --    683.8485               695.6787               746.5597
 Red. masses --      1.8226                 2.3539                 4.1440
 Frc consts  --      0.5022                 0.6712                 1.3608
 IR Inten    --     59.5661                24.5744                22.5512

                     31                     32                     33
                      A                      A                      A
 Frequencies --    765.4178               781.0974               793.1458
 Red. masses --      2.3301                 2.9826                 3.3510
 Frc consts  --      0.8043                 1.0722                 1.2420
 IR Inten    --     59.7289                18.9959                22.5766

                     34                     35                     36
                      A                      A                      A
 Frequencies --    803.5692               891.0746               930.7170
 Red. masses --      3.0166                 2.3155                 2.0703
 Frc consts  --      1.1477                 1.0833                 1.0566
 IR Inten    --     11.5374                24.4654                37.7202

                     37                     38                     39
                      A                      A                      A
 Frequencies --    974.2365               988.0233              1001.4680
 Red. masses --      2.5178                 1.5476                 2.0917
 Frc consts  --      1.4080                 0.8901                 1.2360
 IR Inten    --     13.4463               143.4205                39.3046

                     40                     41                     42
                      A                      A                      A
 Frequencies --   1015.1199              1043.4715              1048.0144
 Red. masses --      2.0343                 2.0732                 2.2022
 Frc consts  --      1.2351                 1.3300                 1.4251
 IR Inten    --     23.6107                 8.3947                11.9786

                     43                     44                     45
                      A                      A                      A
 Frequencies --   1098.1987              1103.3057              1129.6312
 Red. masses --      1.6588                 2.5615                 1.9849
 Frc consts  --      1.1787                 1.8371                 1.4923
 IR Inten    --     42.7236                12.8573                30.5085

                     46                     47                     48
                      A                      A                      A
 Frequencies --   1157.3074              1168.3853              1177.1516
 Red. masses --      4.2919                 1.9344                 2.0257
 Frc consts  --      3.3869                 1.5558                 1.6538
 IR Inten    --     74.6058                43.7047                27.4166

                     49                     50                     51
                      A                      A                      A
 Frequencies --   1195.7670              1240.6284              1256.3622
 Red. masses --      1.4630                 1.3069                 1.8651
 Frc consts  --      1.2325                 1.1851                 1.7345
 IR Inten    --     24.8026                36.1643               178.3217

                     52                     53                     54
                      A                      A                      A
 Frequencies --   1261.5019              1291.9566              1307.7327
 Red. masses --      1.3906                 1.2501                 2.2589
 Frc consts  --      1.3038                 1.2294                 2.2761
 IR Inten    --     18.1566                12.4921               137.0211

                     55                     56                     57
                      A                      A                      A
 Frequencies --   1355.1179              1357.9837              1385.5109
 Red. masses --      1.4838                 1.3772                 1.4175
 Frc consts  --      1.6053                 1.4964                 1.6032
 IR Inten    --     22.7158                 6.7290                26.2088

                     58                     59                     60
                      A                      A                      A
 Frequencies --   1386.4928              1403.5921              1425.7217
 Red. masses --      1.6183                 1.4531                 1.3097
 Frc consts  --      1.8329                 1.6867                 1.5686
 IR Inten    --      2.0812                13.7935                 8.6354

                     61                     62                     63
                      A                      A                      A
 Frequencies --   1439.1085              1449.8929              1458.4015
 Red. masses --      1.3424                 1.7095                 1.6126
 Frc consts  --      1.6380                 2.1173                 2.0209
 IR Inten    --     26.7652                 2.7163                 2.0587

                     64                     65                     66
                      A                      A                      A
 Frequencies --   1467.5255              1490.5380              1500.4185
 Red. masses --      1.6713                 1.0825                 1.0991
 Frc consts  --      2.1207                 1.4169                 1.4578
 IR Inten    --     93.9331                 8.5534                15.4356

                     67                     68                     69
                      A                      A                      A
 Frequencies --   1516.9611              1519.4542              1525.4693
 Red. masses --      1.1061                 1.8782                 1.0967
 Frc consts  --      1.4997                 2.5548                 1.5037
 IR Inten    --      5.1070                82.6249                12.7424

                     70                     71                     72
                      A                      A                      A
 Frequencies --   1536.0685              1690.9575              1716.0723
 Red. masses --      1.0765                 8.4403                 1.0830
 Frc consts  --      1.4965                14.2191                 1.8792
 IR Inten    --      6.9843                37.9958                29.9962

                     73                     74                     75
                      A                      A                      A
 Frequencies --   1750.5111              1819.3308              3025.0900
 Red. masses --      7.8355                 9.6012                 1.0722
 Frc consts  --     14.1465                18.7241                 5.7810
 IR Inten    --    389.9583               385.2482                 9.8283

                     76                     77                     78
                      A                      A                      A
 Frequencies --   3027.4200              3034.1528              3048.9670
 Red. masses --      1.0843                 1.0834                 1.0414
 Frc consts  --      5.8550                 5.8763                 5.7037
 IR Inten    --     20.1617                40.6364                 5.7092

                     79                     80                     81
                      A                      A                      A
 Frequencies --   3054.6015              3058.3908              3111.7581
 Red. masses --      1.0687                 1.0704                 1.1004
 Frc consts  --      5.8752                 5.8993                 6.2779
 IR Inten    --     12.1525                86.0645                31.4741

                     82                     83                     84
                      A                      A                      A
 Frequencies --   3132.5208              3139.3923              3155.2875
 Red. masses --      1.1019                 1.0946                 1.0909
 Frc consts  --      6.3707                 6.3561                 6.3991
 IR Inten    --     31.1491                 6.6408                 0.7598

                     85                     86                     87
                      A                      A                      A
 Frequencies --   3172.9815              3465.6528              3544.5537
 Red. masses --      1.0910                 1.0497                 1.0912
 Frc consts  --      6.4717                 7.4285                 8.0778
 IR Inten    --      6.5556                11.5533                20.1372

                     88                     89                     90
                      A                      A                      A
 Frequencies --   3572.7814              3610.3483              3759.0856
 Red. masses --      1.0751                 1.0783                 1.0665
 Frc consts  --      8.0859                 8.2809                 8.8792
 IR Inten    --    105.7990                36.2594                18.2853

 - Thermochemistry -
 -------------------
 Temperature   298.150 Kelvin.  Pressure   1.00000 Atm.
 Atom     1 has atomic number  6 and mass  12.00000

 Molecular mass:   228.12224 amu.
 Principal axes and moments of inertia in atomic units:
                           1         2         3
     Eigenvalues --  1557.809007032.322307944.58169
           X            0.99984  -0.01699   0.00495
           Y            0.01698   0.99986   0.00077
           Z           -0.00496  -0.00069   0.99999
 This molecule is an asymmetric top.
 Rotational symmetry number  1.
 Warning -- assumption of classical behavior for rotation
           may cause significant error
 Rotational temperatures (Kelvin)      0.05560     0.01232     0.01090
 Rotational constants (GHZ):           1.15851     0.25664     0.22717
 Zero-point vibrational energy     706836.0 (Joules/Mol)
                                  168.93786 (Kcal/Mol)
 Warning -- explicit consideration of  26 degrees of freedom as
           vibrations may cause significant error
 Vibrational temperatures:     50.99    55.09    83.05    96.35   116.95
          (Kelvin)            149.84   198.73   234.09   319.53   344.63
                              370.81   387.09   413.84   428.63   483.90
                              502.44   550.20   569.20   593.01   648.20
                              666.33   745.09   755.89   815.05   865.93
                              878.00   930.15   983.91  1000.93  1074.13
                             1101.27  1123.82  1141.16  1156.16  1282.06
                             1339.09  1401.71  1421.55  1440.89  1460.53
                             1501.32  1507.86  1580.06  1587.41  1625.29
                             1665.11  1681.05  1693.66  1720.44  1784.99
                             1807.62  1815.02  1858.84  1881.54  1949.71
                             1953.84  1993.44  1994.85  2019.46  2051.30
                             2070.56  2086.07  2098.31  2111.44  2144.55
                             2158.77  2182.57  2186.16  2194.81  2210.06
                             2432.91  2469.05  2518.60  2617.61  4352.43
                             4355.78  4365.47  4386.78  4394.89  4400.34
                             4477.13  4507.00  4516.89  4539.76  4565.21
                             4986.30  5099.82  5140.44  5194.49  5408.49

 Zero-point correction=                           0.269220 (Hartree/Particle)
 Thermal correction to Energy=                    0.285534
 Thermal correction to Enthalpy=                  0.286478
 Thermal correction to Gibbs Free Energy=         0.224539
 Sum of electronic and zero-point Energies=           -797.039590
 Sum of electronic and thermal Energies=              -797.023276
 Sum of electronic and thermal Enthalpies=            -797.022332
 Sum of electronic and thermal Free Energies=         -797.084270

                     E (Thermal)             CV                S
                      KCal/Mol        Cal/Mol-Kelvin    Cal/Mol-Kelvin
 Total                  179.175             61.205            130.361
 Electronic               0.000              0.000              0.000
 Translational            0.889              2.981             42.176
 Rotational               0.889              2.981             32.831
 Vibrational            177.398             55.243             55.353
 Vibration     1          0.594              1.982              5.499
 Vibration     2          0.594              1.982              5.346
 Vibration     3          0.596              1.974              4.534
 Vibration     4          0.598              1.970              4.241
 Vibration     5          0.600              1.962              3.860
 Vibration     6          0.605              1.946              3.375
 Vibration     7          0.614              1.915              2.830
 Vibration     8          0.623              1.888              2.518
 Vibration     9          0.648              1.807              1.942
 Vibration    10          0.657              1.780              1.806
 Vibration    11          0.667              1.750              1.677
 Vibration    12          0.673              1.730              1.602
 Vibration    13          0.685              1.697              1.488
 Vibration    14          0.691              1.678              1.429
 Vibration    15          0.717              1.603              1.230
 Vibration    16          0.726              1.577              1.170
 Vibration    17          0.752              1.508              1.030
 Vibration    18          0.762              1.480              0.979
 Vibration    19          0.776              1.444              0.919
 Vibration    20          0.809              1.360              0.794
 Vibration    21          0.821              1.332              0.757
 Vibration    22          0.873              1.210              0.615
 Vibration    23          0.880              1.194              0.598
 Vibration    24          0.922              1.104              0.511
 Vibration    25          0.960              1.028              0.446
 Vibration    26          0.969              1.010              0.432

 Optimization completed.
    -- Stationary point found.
 Normal termination of Gaussian 16 at Thu Dec 10 22:24:31 2020.

 ----------------------------------------------------------------------
 # B3LYP/6-311++G(d,p) empiricaldispersion=gd3bj scf=xqc pop=npa geom=c
 heck
 ----------------------------------------------------------------------

 ---------------------------------------
 CID_108115123_JID_6310_Energie_neutraal
 ---------------------------------------
 Structure from the checkpoint file:  "JID_6310.chk"
 Charge =  0 Multiplicity = 1

 SCF Done:  E(RB3LYP) =  -797.561561407     A.U. after   15 cycles
 Normal termination of Gaussian 16 at Thu Dec 10 22:28:47 2020.

 ----------------------------------------------------------------------
 # B3LYP/6-311++G(d,p) empiricaldispersion=gd3bj scf=xqc pop=npa geom=c
 heck
 ----------------------------------------------------------------------

 -------------------------------------
 CID_108115123_JID_6310_Energie_kation
 -------------------------------------
 Structure from the checkpoint file:  "JID_6310.chk"
 Charge =  1 Multiplicity = 2

 SCF Done:  E(UB3LYP) =  -797.249430740     A.U. after   33 cycles
 SCF Done:  E(UB3LYP) =  -797.249430741     a.u. after    2 cycles
 Normal termination of Gaussian 16 at Thu Dec 10 22:53:51 2020.
 Gaussian 16:  ES64L-G16RevA.03 25-Dec-2016

 ----------------------------------------------------------------------
 # B3LYP/6-311++G(d,p) empiricaldispersion=gd3bj scf=xqc pop=npa geom=c
 heck
 ----------------------------------------------------------------------

 ------------------------------------
 CID_108115123_JID_6310_Energie_anion
 ------------------------------------
 Structure from the checkpoint file:  "JID_6310.chk"
 Charge = -1 Multiplicity = 2

                         Standard orientation:
 ---------------------------------------------------------------------
 Center     Atomic      Atomic             Coordinates (Angstroms)
 Number     Number       Type             X           Y           Z
 ---------------------------------------------------------------------
      1          6           0        4.652814   -0.628598    0.927229
      2          6           0        3.716615   -0.614063   -0.277755
      3          6           0        2.290310   -1.098810    0.018821
      4          6           0        1.519223   -0.176966    1.000863
      5          7           0        1.090676    1.070224    0.387958
      6          6           0       -0.139729    1.480451   -0.009820
      7          8           0       -0.318869    2.568256   -0.559111
      8          6           0       -1.356558    0.619567    0.229539
      9          7           0       -1.296680   -0.648139    0.011860
     10          7           0       -2.476338   -1.354084    0.123433
     11          6           0       -3.762231   -0.849928   -0.039818
     12          8           0       -4.719913   -1.598401   -0.105652
     13          6           0       -3.812580    0.658818   -0.163536
     14          6           0       -2.644982    1.318848    0.575270
     15          7           0        1.602842   -1.317311   -1.252111
     16          8           0        3.599507    0.716719   -0.816256
     17          1           0        4.310977    0.059714    1.706638
     18          1           0        5.662759   -0.320450    0.630645
     19          1           0        4.725771   -1.634599    1.355338
     20          1           0        4.110799   -1.283813   -1.055072
     21          1           0        2.393912   -2.070917    0.521434
     22          1           0        0.638010   -0.703453    1.363007
     23          1           0        2.140035    0.058807    1.873977
     24          1           0        1.841547    1.658262    0.040710
     25          1           0       -2.370751   -2.351980   -0.009315
     26          1           0       -3.761335    0.895424   -1.235238
     27          1           0       -4.783842    1.002506    0.198766
     28          1           0       -2.556683    2.377892    0.330543
     29          1           0       -2.796471    1.235776    1.662259
     30          1           0        0.610272   -1.463215   -1.068243
     31          1           0        1.658022   -0.451265   -1.787330
     32          1           0        4.470390    0.987976   -1.142703
 ---------------------------------------------------------------------

 SCF Done:  E(UB3LYP) =  -797.569813622     A.U. after   30 cycles

 The electronic state is 2-A.
 Alpha  occ. eigenvalues --  -19.03165 -18.97605 -18.95153 -14.25065 -14.20726
 Alpha  occ. eigenvalues --  -14.20660 -14.17575 -10.15170 -10.13770 -10.12725
 Alpha  occ. eigenvalues --  -10.09793 -10.09363 -10.07277 -10.07217 -10.07212
 Alpha  occ. eigenvalues --  -10.06410  -0.93524  -0.93269  -0.90655  -0.87884
 Alpha  occ. eigenvalues --   -0.80595  -0.76849  -0.71840  -0.68141  -0.67028
 Alpha  occ. eigenvalues --   -0.61155  -0.56430  -0.55485  -0.53245  -0.49149
 Alpha  occ. eigenvalues --   -0.47687  -0.43526  -0.41987  -0.39880  -0.38192
 Alpha  occ. eigenvalues --   -0.37349  -0.37121  -0.35082  -0.34102  -0.33885
 Alpha  occ. eigenvalues --   -0.33731  -0.33158  -0.30952  -0.30134  -0.29222
 Alpha  occ. eigenvalues --   -0.28905  -0.28867  -0.27546  -0.27393  -0.26739
 Alpha  occ. eigenvalues --   -0.25956  -0.25273  -0.22622  -0.22481  -0.19056
 Alpha  occ. eigenvalues --   -0.18278  -0.14624  -0.14448  -0.13093  -0.12237
 Alpha  occ. eigenvalues --   -0.12137   0.03664
 Alpha virt. eigenvalues --    0.05177   0.07590   0.08267   0.08902   0.09371
 Alpha virt. eigenvalues --    0.10213   0.10552   0.10780   0.11794   0.12104
 Alpha virt. eigenvalues --    0.12406   0.12877   0.13443   0.13884   0.14525

  Beta  occ. eigenvalues --  -19.03132 -18.97440 -18.94978 -14.25145 -14.20623
  Beta  occ. eigenvalues --  -14.20293 -14.17571 -10.15005 -10.13686 -10.12715
  Beta  occ. eigenvalues --  -10.09791 -10.09363 -10.07210 -10.07185 -10.07018
  Beta  occ. eigenvalues --  -10.06426  -0.93225  -0.93192  -0.90348  -0.87473
  Beta  occ. eigenvalues --   -0.80500  -0.76803  -0.71514  -0.67910  -0.66983
  Beta  occ. eigenvalues --   -0.61097  -0.56094  -0.55421  -0.52883  -0.48999
  Beta  occ. eigenvalues --   -0.47615  -0.43417  -0.41882  -0.39638  -0.38095
  Beta  occ. eigenvalues --   -0.37280  -0.36873  -0.34978  -0.33888  -0.33716
  Beta  occ. eigenvalues --   -0.33530  -0.33080  -0.30533  -0.29814  -0.28946
  Beta  occ. eigenvalues --   -0.28812  -0.28777  -0.27395  -0.27103  -0.26581
  Beta  occ. eigenvalues --   -0.25543  -0.24990  -0.22436  -0.21623  -0.19003
  Beta  occ. eigenvalues --   -0.17831  -0.14491  -0.14182  -0.12686  -0.11881
  Beta  occ. eigenvalues --   -0.11222
  Beta virt. eigenvalues --    0.06101   0.07956   0.08340   0.08646   0.09060
  Beta virt. eigenvalues --    0.09562   0.10314   0.10704   0.10947   0.11941
  Beta virt. eigenvalues --    0.12203   0.12333   0.13151   0.13409   0.14195

 Mulliken charges and spin densities:
               1          2
     1  C    0.620815  -1.223520
     2  C   -0.810597   0.511948
     3  C    0.159009  -0.162823
     4  C   -0.199560  -0.216884
     5  N   -0.217829   0.021719
     6  C   -0.248791   0.057564
     7  O   -0.366375   0.058583
     8  C   -0.074187   0.219060
     9  N    0.017968   0.183900
    10  N   -0.244012  -0.038361
    11  C    0.031670   0.090668
    12  O   -0.388656   0.059300
    13  C   -0.294646  -0.034806
    14  C   -0.268683  -0.016867
    15  N   -0.278822   0.004966
    16  O   -0.247625  -0.015882
    17  H    0.058593   0.103691
    18  H   -0.467733   0.607758
    19  H   -0.005265   0.129090
    20  H   -0.007306   0.203944
    21  H    0.106637   0.097687
    22  H    0.223951  -0.010199
    23  H    0.091119   0.034432
    24  H    0.389581  -0.030493
    25  H    0.287712   0.013527
    26  H    0.163081   0.004472
    27  H    0.140587   0.042379
    28  H    0.203479   0.004994
    29  H    0.133575   0.009165
    30  H    0.270667   0.005868
    31  H    0.214072   0.028230
    32  H    0.007571   0.256889
 Sum of Mulliken charges =  -1.00000   1.00000

 Dipole moment (field-independent basis, Debye):
    X=              0.1538    Y=             -0.7660    Z=              2.4648  Tot=              2.5857
 Quadrupole moment (field-independent basis, Debye-Ang):
   XX=           -184.7394   YY=           -126.7872   ZZ=           -109.9492
   XY=            -10.8080   XZ=              2.4666   YZ=              0.6595

 Summary of Natural Population Analysis:

                                       Natural Population
                Natural  -----------------------------------------------
    Atom  No    Charge         Core      Valence    Rydberg      Total
 -----------------------------------------------------------------------
      C    1   -0.29837      0.99964     2.29260    0.00612     3.29837
      C    2    0.05825      0.99954     1.92718    0.01503     2.94175
      C    3   -0.02260      0.99958     2.00933    0.01369     3.02260
      C    4   -0.09831      0.99959     2.08805    0.01067     3.09831
      N    5   -0.31538      0.99966     2.80517    0.01055     3.81538
      C    6    0.33482      0.99961     1.64273    0.02284     2.66518
      O    7   -0.31969      0.99988     3.31427    0.00554     4.31969
      C    8    0.11940      0.99956     1.86496    0.01608     2.88060
      N    9   -0.10718      0.99962     2.59239    0.01517     3.60718
      N   10   -0.24062      0.99967     2.72867    0.01228     3.74062
      C   11    0.35718      0.99968     1.62125    0.02189     2.64282
      O   12   -0.30944      0.99987     3.30224    0.00733     4.30944
      C   13   -0.23004      0.99960     2.22368    0.00676     3.23004
      C   14   -0.21954      0.99961     2.21269    0.00724     3.21954
      N   15   -0.43119      0.99977     2.92230    0.00912     3.93119
      O   16   -0.38419      0.99989     3.37750    0.00681     4.38419
      H   17    0.09944      0.00000     0.39943    0.00113     0.40056
      H   18    0.10071      0.00000     0.39766    0.00162     0.39929
      H   19    0.10045      0.00000     0.39848    0.00107     0.39955
      H   20    0.08455      0.00000     0.41385    0.00160     0.41545
      H   21    0.09107      0.00000     0.40776    0.00117     0.40893
      H   22    0.11174      0.00000     0.38676    0.00149     0.38826
      H   23    0.08972      0.00000     0.40912    0.00116     0.41028
      H   24    0.20104      0.00000     0.29575    0.00321     0.29896
      H   25    0.18958      0.00000     0.30813    0.00229     0.31042
      H   26    0.10933      0.00000     0.38959    0.00107     0.39067
      H   27    0.10752      0.00000     0.39133    0.00114     0.39248
      H   28    0.11890      0.00000     0.37985    0.00125     0.38110
      H   29    0.10114      0.00000     0.39771    0.00114     0.39886
      H   30    0.18952      0.00000     0.30837    0.00210     0.31048
      H   31    0.17829      0.00000     0.31930    0.00241     0.32171
      H   32    0.23389      0.00000     0.26214    0.00398     0.26611
 =======================================================================
   * Total *    0.00000     15.99478    44.79025    0.21497    61.00000

 Normal termination of Gaussian 16 at Thu Dec 10 23:08:54 2020.
