 Gaussian 16, Revision A.03,

 -----------------------------------------------------------
 # opt freq B3LYP/6-31G(d) empiricaldispersion=gd3bj scf=xqc
 -----------------------------------------------------------

 ------------------------------
 CID_138388911_JID_322_neutraal
 ------------------------------
 Symbolic Z-matrix:
 Charge =  0 Multiplicity = 1

 SCF Done:  E(RB3LYP) =  -474.795652834     A.U. after   14 cycles
 SCF Done:  E(RB3LYP) =  -474.803079067     A.U. after   12 cycles
 SCF Done:  E(RB3LYP) =  -474.804040958     A.U. after   12 cycles
 SCF Done:  E(RB3LYP) =  -474.804224852     A.U. after   12 cycles
 SCF Done:  E(RB3LYP) =  -474.804328979     A.U. after   11 cycles
 SCF Done:  E(RB3LYP) =  -474.804447915     A.U. after   11 cycles
 SCF Done:  E(RB3LYP) =  -474.804666261     A.U. after   11 cycles
 SCF Done:  E(RB3LYP) =  -474.804788749     A.U. after   12 cycles
 SCF Done:  E(RB3LYP) =  -474.804793180     A.U. after   11 cycles
 SCF Done:  E(RB3LYP) =  -474.804793002     A.U. after   11 cycles
 SCF Done:  E(RB3LYP) =  -474.804769269     A.U. after   11 cycles
 SCF Done:  E(RB3LYP) =  -474.804800800     A.U. after   11 cycles
 SCF Done:  E(RB3LYP) =  -474.804798068     A.U. after    9 cycles
 SCF Done:  E(RB3LYP) =  -474.804801923     A.U. after    9 cycles
 SCF Done:  E(RB3LYP) =  -474.804801919     A.U. after    8 cycles
 SCF Done:  E(RB3LYP) =  -474.804802073     A.U. after    8 cycles
 Optimization completed.
    -- Stationary point found.
 Normal termination of Gaussian 16 at Tue Dec  8 10:25:21 2020.

 --------------------------------------------------------------------
 #N Geom=AllCheck Guess=TCheck SCRF=Check GenChk RB3LYP/6-31G(d) Freq
 --------------------------------------------------------------------

 Structure from the checkpoint file:  "JID_322.chk"
 ------------------------------
 CID_138388911_JID_322_neutraal
 ------------------------------
 Charge =  0 Multiplicity = 1

 SCF Done:  E(RB3LYP) =  -474.804802073     A.U. after    1 cycles

  Exact polarizability:  99.174   5.467  81.672   5.816  -0.785  62.158
 Approx polarizability: 144.325  17.094 127.243  13.916  -1.148  87.715

                      1                      2                      3
                      A                      A                      A
 Frequencies --     81.1680               107.6652               137.0642
 Red. masses --      4.0165                 2.1285                 6.9477
 Frc consts  --      0.0156                 0.0145                 0.0769
 IR Inten    --      0.6072                 0.4290                 1.3994

                      4                      5                      6
                      A                      A                      A
 Frequencies --    202.3889               230.1516               270.7731
 Red. masses --      2.8479                 1.1002                 1.3406
 Frc consts  --      0.0687                 0.0343                 0.0579
 IR Inten    --      1.4298                 0.2923                 0.6674

                      7                      8                      9
                      A                      A                      A
 Frequencies --    288.3575               307.1402               377.0126
 Red. masses --      2.3949                 2.3732                 3.7744
 Frc consts  --      0.1173                 0.1319                 0.3161
 IR Inten    --      1.0183                 4.1982                 4.2850

                     10                     11                     12
                      A                      A                      A
 Frequencies --    390.9592               437.2431               489.7283
 Red. masses --      3.3149                 3.4274                 1.4095
 Frc consts  --      0.2985                 0.3861                 0.1992
 IR Inten    --      6.4998                 1.4074                80.1395

                     13                     14                     15
                      A                      A                      A
 Frequencies --    550.9787               576.0026               635.0933
 Red. masses --      1.2298                 2.4177                 4.2329
 Frc consts  --      0.2200                 0.4726                 1.0059
 IR Inten    --    142.9092                72.2491                 5.0571

                     16                     17                     18
                      A                      A                      A
 Frequencies --    659.7655               706.9754               746.0595
 Red. masses --      5.2571                 5.0972                 4.3471
 Frc consts  --      1.3483                 1.5010                 1.4256
 IR Inten    --      2.9330                 8.2438                26.6454

                     19                     20                     21
                      A                      A                      A
 Frequencies --    757.3975               809.0239               846.1280
 Red. masses --      5.8080                 1.3143                 1.1460
 Frc consts  --      1.9630                 0.5069                 0.4834
 IR Inten    --     15.4031                 5.0394                53.9439

                     22                     23                     24
                      A                      A                      A
 Frequencies --    905.5370               967.1397              1010.0655
 Red. masses --      1.8991                 1.9119                 2.7896
 Frc consts  --      0.9175                 1.0536                 1.6768
 IR Inten    --      2.5218                 2.8218                12.5819

                     25                     26                     27
                      A                      A                      A
 Frequencies --   1028.3646              1053.8383              1087.1572
 Red. masses --      1.8461                 1.6116                 1.9136
 Frc consts  --      1.1502                 1.0545                 1.3325
 IR Inten    --      6.5872                13.3532                 1.5221

                     28                     29                     30
                      A                      A                      A
 Frequencies --   1113.0027              1190.1724              1215.6974
 Red. masses --      1.5613                 2.2790                 2.8028
 Frc consts  --      1.1395                 1.9020                 2.4406
 IR Inten    --    128.6724                23.6902                40.5540

                     31                     32                     33
                      A                      A                      A
 Frequencies --   1226.3316              1307.5074              1333.2586
 Red. masses --      2.6915                 1.8351                 1.3091
 Frc consts  --      2.3848                 1.8484                 1.3711
 IR Inten    --      6.0925                17.1653                 2.5498

                     34                     35                     36
                      A                      A                      A
 Frequencies --   1376.3236              1387.4093              1413.3864
 Red. masses --      1.9888                 1.6105                 2.5268
 Frc consts  --      2.2197                 1.8266                 2.9740
 IR Inten    --     52.2384                25.3437               128.8601

                     37                     38                     39
                      A                      A                      A
 Frequencies --   1436.8036              1444.1215              1448.3361
 Red. masses --      1.5002                 1.2815                 1.9011
 Frc consts  --      1.8247                 1.5746                 2.3496
 IR Inten    --     27.3524                22.0111                31.1475

                     40                     41                     42
                      A                      A                      A
 Frequencies --   1510.1867              1523.0852              1527.4449
 Red. masses --      1.0690                 1.0617                 1.0651
 Frc consts  --      1.4365                 1.4512                 1.4641
 IR Inten    --      0.4080                 5.6197                 7.5029

                     43                     44                     45
                      A                      A                      A
 Frequencies --   1536.5075              1543.4712              1765.8420
 Red. masses --      1.0450                 1.0542                 8.3500
 Frc consts  --      1.4536                 1.4798                15.3405
 IR Inten    --      3.2811                 7.1864               326.2240

                     46                     47                     48
                      A                      A                      A
 Frequencies --   1876.6441              3034.3506              3059.5858
 Red. masses --     10.1555                 1.0638                 1.0362
 Frc consts  --     21.0725                 5.7709                 5.7151
 IR Inten    --    585.6269                25.6378                11.0365

                     49                     50                     51
                      A                      A                      A
 Frequencies --   3063.2717              3081.6396              3124.0538
 Red. masses --      1.0367                 1.0995                 1.1020
 Frc consts  --      5.7316                 6.1518                 6.3368
 IR Inten    --     21.5147                13.5055                26.9493

                     52                     53                     54
                      A                      A                      A
 Frequencies --   3130.1485              3136.0615              3150.8115
 Red. masses --      1.1006                 1.1028                 1.1031
 Frc consts  --      6.3535                 6.3903                 6.4523
 IR Inten    --     28.0395                19.4298                15.7463

                     55                     56                     57
                      A                      A                      A
 Frequencies --   3493.6299              3625.2412              3654.5401
 Red. masses --      1.0749                 1.0778                 1.0794
 Frc consts  --      7.7300                 8.3453                 8.4941
 IR Inten    --      0.6199                26.5950                64.1658

 - Thermochemistry -
 -------------------
 Temperature   298.150 Kelvin.  Pressure   1.00000 Atm.
 Atom     1 has atomic number  6 and mass  12.00000

 Molecular mass:   141.09021 amu.
 Principal axes and moments of inertia in atomic units:
                           1         2         3
     Eigenvalues --   852.490901712.536791942.49794
           X            0.99965  -0.02490  -0.00882
           Y            0.02483   0.99966  -0.00806
           Z            0.00902   0.00784   0.99993
 This molecule is an asymmetric top.
 Rotational symmetry number  1.
 Warning -- assumption of classical behavior for rotation
           may cause significant error
 Rotational temperatures (Kelvin)      0.10160     0.05058     0.04459
 Rotational constants (GHZ):           2.11702     1.05384     0.92908
 Zero-point vibrational energy     468864.6 (Joules/Mol)
                                  112.06134 (Kcal/Mol)
 Warning -- explicit consideration of  14 degrees of freedom as
           vibrations may cause significant error
 Vibrational temperatures:    116.78   154.91   197.20   291.19   331.14
          (Kelvin)            389.58   414.88   441.91   542.44   562.50
                              629.10   704.61   792.74   828.74   913.76
                              949.26  1017.18  1073.41  1089.73  1164.00
                             1217.39  1302.87  1391.50  1453.26  1479.59
                             1516.24  1564.18  1601.36  1712.39  1749.12
                             1764.42  1881.21  1918.26  1980.22  1996.17
                             2033.55  2067.24  2077.77  2083.83  2172.82
                             2191.38  2197.65  2210.69  2220.71  2540.65
                             2700.07  4365.75  4402.06  4407.36  4433.79
                             4494.82  4503.59  4512.09  4533.32  5026.55
                             5215.91  5258.07

 Zero-point correction=                           0.178581 (Hartree/Particle)
 Thermal correction to Energy=                    0.188556
 Thermal correction to Enthalpy=                  0.189500
 Thermal correction to Gibbs Free Energy=         0.143839
 Sum of electronic and zero-point Energies=           -474.626221
 Sum of electronic and thermal Energies=              -474.616246
 Sum of electronic and thermal Enthalpies=            -474.615302
 Sum of electronic and thermal Free Energies=         -474.660963

                     E (Thermal)             CV                S
                      KCal/Mol        Cal/Mol-Kelvin    Cal/Mol-Kelvin
 Total                  118.321             38.114             96.102
 Electronic               0.000              0.000              0.000
 Translational            0.889              2.981             40.744
 Rotational               0.889              2.981             29.429
 Vibrational            116.543             32.153             25.929
 Vibration     1          0.600              1.962              3.862
 Vibration     2          0.606              1.943              3.311
 Vibration     3          0.614              1.916              2.844
 Vibration     4          0.639              1.837              2.111
 Vibration     5          0.652              1.795              1.878
 Vibration     6          0.674              1.727              1.591
 Vibration     7          0.685              1.695              1.484
 Vibration     8          0.697              1.660              1.378
 Vibration     9          0.748              1.519              1.051
 Vibration    10          0.759              1.490              0.996
 Vibration    11          0.798              1.389              0.835
 Vibration    12          0.846              1.273              0.684
 Vibration    13          0.906              1.138              0.542
 Vibration    14          0.932              1.083              0.493

 Optimization completed.
    -- Stationary point found.
 Normal termination of Gaussian 16 at Tue Dec  8 10:29:22 2020.

 ----------------------------------------------------------------------
 # B3LYP/6-311++G(d,p) empiricaldispersion=gd3bj scf=xqc pop=npa geom=c
 heck
 ----------------------------------------------------------------------

 --------------------------------------
 CID_138388911_JID_322_Energie_neutraal
 --------------------------------------
 Structure from the checkpoint file:  "JID_322.chk"
 Charge =  0 Multiplicity = 1

 SCF Done:  E(RB3LYP) =  -474.951734919     A.U. after   14 cycles
 Normal termination of Gaussian 16 at Tue Dec  8 10:30:34 2020.

 ----------------------------------------------------------------------
 # B3LYP/6-311++G(d,p) empiricaldispersion=gd3bj scf=xqc pop=npa geom=c
 heck
 ----------------------------------------------------------------------

 ------------------------------------
 CID_138388911_JID_322_Energie_kation
 ------------------------------------
 Structure from the checkpoint file:  "JID_322.chk"
 Charge =  1 Multiplicity = 2

 SCF Done:  E(UB3LYP) =  -474.611466306     A.U. after   27 cycles
 Normal termination of Gaussian 16 at Tue Dec  8 10:35:34 2020.
 Gaussian 16:  ES64L-G16RevA.03 25-Dec-2016

 ----------------------------------------------------------------------
 # B3LYP/6-311++G(d,p) empiricaldispersion=gd3bj scf=xqc pop=npa geom=c
 heck
 ----------------------------------------------------------------------

 -----------------------------------
 CID_138388911_JID_322_Energie_anion
 -----------------------------------
 Structure from the checkpoint file:  "JID_322.chk"
 Charge = -1 Multiplicity = 2

                         Standard orientation:
 ---------------------------------------------------------------------
 Center     Atomic      Atomic             Coordinates (Angstroms)
 Number     Number       Type             X           Y           Z
 ---------------------------------------------------------------------
      1          6           0        2.615938   -0.316175   -1.051870
      2          6           0        1.242414   -0.950347   -0.824294
      3          6           0        0.417231   -0.384259    0.361017
      4          6           0        0.023223    1.082913    0.096475
      5          7           0        0.697325    2.160363    0.178085
      6          7           0       -1.300927    1.046951   -0.296366
      7          6           0       -1.893020   -0.211420   -0.146274
      8          8           0       -3.036972   -0.509658   -0.420958
      9          7           0       -0.906640   -1.019220    0.389558
     10          6           0        1.131965   -0.544448    1.704777
     11          1           0        2.528196    0.753561   -1.264830
     12          1           0        3.106833   -0.785231   -1.910653
     13          1           0        3.275456   -0.444306   -0.186990
     14          1           0        0.634857   -0.845283   -1.731153
     15          1           0        1.360304   -2.028430   -0.646842
     16          1           0        1.646840    1.964119    0.496613
     17          1           0       -1.837527    1.873902   -0.515656
     18          1           0       -1.006070   -2.017140    0.260856
     19          1           0        1.390156   -1.595759    1.873665
     20          1           0        2.057969    0.037449    1.736062
     21          1           0        0.483949   -0.209861    2.518671
 ---------------------------------------------------------------------

 SCF Done:  E(UB3LYP) =  -474.940810606     A.U. after   30 cycles

 The electronic state is 2-A.
 Alpha  occ. eigenvalues --  -19.00154 -14.25960 -14.23794 -14.19327 -10.21034
 Alpha  occ. eigenvalues --  -10.16110 -10.13695 -10.07453 -10.06395 -10.05585
 Alpha  occ. eigenvalues --   -0.97050  -0.89689  -0.82081  -0.78368  -0.69394
 Alpha  occ. eigenvalues --   -0.63331  -0.57378  -0.55029  -0.53091  -0.48107
 Alpha  occ. eigenvalues --   -0.41489  -0.40136  -0.39287  -0.36852  -0.36777
 Alpha  occ. eigenvalues --   -0.34145  -0.32930  -0.30521  -0.29095  -0.28640
 Alpha  occ. eigenvalues --   -0.27371  -0.26449  -0.25107  -0.24161  -0.19128
 Alpha  occ. eigenvalues --   -0.17638  -0.17469  -0.15829   0.04642
 Alpha virt. eigenvalues --    0.07877   0.08101   0.08252   0.09063   0.10457
 Alpha virt. eigenvalues --    0.10581   0.11501   0.12006   0.12267   0.13808
 Alpha virt. eigenvalues --    0.14038   0.15082   0.15405   0.16041   0.17008

  Beta  occ. eigenvalues --  -19.00149 -14.25950 -14.23769 -14.19306 -10.21031
  Beta  occ. eigenvalues --  -10.16107 -10.13695 -10.07412 -10.06331 -10.05534
  Beta  occ. eigenvalues --   -0.97037  -0.89677  -0.82051  -0.78341  -0.69338
  Beta  occ. eigenvalues --   -0.63255  -0.57302  -0.54984  -0.53012  -0.48021
  Beta  occ. eigenvalues --   -0.41453  -0.40089  -0.39247  -0.36803  -0.36736
  Beta  occ. eigenvalues --   -0.34130  -0.32881  -0.30457  -0.29028  -0.28585
  Beta  occ. eigenvalues --   -0.27289  -0.26416  -0.25036  -0.24108  -0.19110
  Beta  occ. eigenvalues --   -0.17609  -0.17448  -0.15801
  Beta virt. eigenvalues --    0.07402   0.08591   0.08900   0.09162   0.09311
  Beta virt. eigenvalues --    0.11228   0.11332   0.12069   0.12581   0.12855
  Beta virt. eigenvalues --    0.14292   0.14469   0.15316   0.15841   0.16294

 Mulliken charges and spin densities:
               1          2
     1  C    1.817857  -2.426029
     2  C   -2.190219   2.105775
     3  C   -0.666178   0.627557
     4  C    1.680120  -1.859260
     5  N   -0.473607   0.155019
     6  N   -0.340765   0.068357
     7  C    0.289572   0.020146
     8  O   -0.407711   0.006006
     9  N   -0.372924   0.284514
    10  C    2.404894  -2.887595
    11  H   -0.172083   0.296842
    12  H   -0.631372   0.785539
    13  H   -0.341463   0.508758
    14  H   -0.109026   0.274167
    15  H   -0.620304   0.798429
    16  H    0.099324   0.128656
    17  H    0.303310   0.040421
    18  H   -0.058043   0.362742
    19  H   -0.819824   1.005235
    20  H   -0.337076   0.474663
    21  H   -0.054482   0.230055
 Sum of Mulliken charges =  -1.00000   1.00000

 Dipole moment (field-independent basis, Debye):
    X=             -4.7457    Y=              4.5933    Z=             -0.5597  Tot=              6.6282
 Quadrupole moment (field-independent basis, Debye-Ang):
   XX=           -119.6616   YY=           -103.9327   ZZ=            -95.3537
   XY=              4.3713   XZ=             -0.3215   YZ=              1.2587

 Summary of Natural Population Analysis:

                                       Natural Population
                Natural  -----------------------------------------------
    Atom  No    Charge         Core      Valence    Rydberg      Total
 -----------------------------------------------------------------------
      C    1   -0.29034      0.99966     2.28455    0.00612     3.29034
      C    2   -0.18945      0.99959     2.17911    0.01075     3.18945
      C    3    0.03732      0.99952     1.94904    0.01412     2.96268
      C    4    0.23577      0.99959     1.74480    0.01984     2.76423
      N    5   -0.35036      0.99969     2.84263    0.00803     3.85036
      N    6   -0.32214      0.99962     2.81377    0.00875     3.82214
      C    7    0.40865      0.99970     1.56807    0.02358     2.59135
      O    8   -0.32349      0.99987     3.31790    0.00572     4.32349
      N    9   -0.32954      0.99966     2.81919    0.01069     3.82954
      C   10   -0.28789      0.99962     2.27988    0.00839     3.28789
      H   11    0.09775      0.00000     0.40084    0.00141     0.40225
      H   12    0.10606      0.00000     0.39216    0.00178     0.39394
      H   13    0.10204      0.00000     0.39575    0.00222     0.39796
      H   14    0.09901      0.00000     0.39914    0.00185     0.40099
      H   15    0.10610      0.00000     0.38968    0.00422     0.39390
      H   16    0.17251      0.00000     0.32485    0.00264     0.32749
      H   17    0.20388      0.00000     0.29410    0.00203     0.29612
      H   18    0.20245      0.00000     0.29455    0.00300     0.29755
      H   19    0.11099      0.00000     0.38540    0.00361     0.38901
      H   20    0.10524      0.00000     0.39281    0.00195     0.39476
      H   21    0.10544      0.00000     0.39312    0.00144     0.39456
 =======================================================================
   * Total *    0.00000      9.99653    27.86134    0.14214    38.00000

 Normal termination of Gaussian 16 at Tue Dec  8 10:44:36 2020.
