 Gaussian 16, Revision A.03,

 -----------------------------------------------------------
 # opt freq B3LYP/6-31G(d) empiricaldispersion=gd3bj scf=xqc
 -----------------------------------------------------------

 ------------------------------
 CID_57632767_JID_4233_neutraal
 ------------------------------
 Symbolic Z-matrix:
 Charge =  0 Multiplicity = 1

 SCF Done:  E(RB3LYP) =  -998.308641176     A.U. after   14 cycles
 SCF Done:  E(RB3LYP) =  -998.314024517     A.U. after   12 cycles
 SCF Done:  E(RB3LYP) =  -998.314566319     A.U. after   12 cycles
 SCF Done:  E(RB3LYP) =  -998.314958926     A.U. after   12 cycles
 SCF Done:  E(RB3LYP) =  -998.315052192     A.U. after   11 cycles
 SCF Done:  E(RB3LYP) =  -998.315085619     A.U. after   11 cycles
 SCF Done:  E(RB3LYP) =  -998.315092157     A.U. after   10 cycles
 SCF Done:  E(RB3LYP) =  -998.315095946     A.U. after   10 cycles
 SCF Done:  E(RB3LYP) =  -998.315096315     A.U. after    7 cycles
 SCF Done:  E(RB3LYP) =  -998.315096393     A.U. after    7 cycles
 Optimization completed.
    -- Stationary point found.
 Normal termination of Gaussian 16 at Thu Dec 10 09:21:02 2020.

 --------------------------------------------------------------------
 #N Geom=AllCheck Guess=TCheck SCRF=Check GenChk RB3LYP/6-31G(d) Freq
 --------------------------------------------------------------------

 Structure from the checkpoint file:  "JID_4233.chk"
 ------------------------------
 CID_57632767_JID_4233_neutraal
 ------------------------------
 Charge =  0 Multiplicity = 1

 SCF Done:  E(RB3LYP) =  -998.315096393     A.U. after    1 cycles

  Exact polarizability: 161.269   0.044 129.760  -1.223   2.275 120.531
 Approx polarizability: 199.290   1.186 190.868   0.621   6.089 189.622

                      1                      2                      3
                      A                      A                      A
 Frequencies --     20.0878                33.1573                56.3245
 Red. masses --      3.3926                 3.4021                 3.6606
 Frc consts  --      0.0008                 0.0022                 0.0068
 IR Inten    --      0.9485                 0.0413                 2.6327

                      4                      5                      6
                      A                      A                      A
 Frequencies --     66.6195                74.8659               102.6927
 Red. masses --      3.1906                 2.2461                 2.6343
 Frc consts  --      0.0083                 0.0074                 0.0164
 IR Inten    --      0.9753                 0.2892                 0.1938

                      7                      8                      9
                      A                      A                      A
 Frequencies --    138.7392               186.7112               205.1184
 Red. masses --      2.8496                 2.2473                 2.0320
 Frc consts  --      0.0323                 0.0462                 0.0504
 IR Inten    --      0.9153                 1.7995                 1.1980

                     10                     11                     12
                      A                      A                      A
 Frequencies --    221.7421               223.8281               236.9422
 Red. masses --      1.0585                 2.9126                 1.7352
 Frc consts  --      0.0307                 0.0860                 0.0574
 IR Inten    --      0.0334                 0.6602                 3.9660

                     13                     14                     15
                      A                      A                      A
 Frequencies --    258.9042               264.3085               270.4018
 Red. masses --      1.4653                 1.4020                 1.3250
 Frc consts  --      0.0579                 0.0577                 0.0571
 IR Inten    --      5.1809                 1.3714                 0.8116

                     16                     17                     18
                      A                      A                      A
 Frequencies --    294.1265               306.3342               310.9643
 Red. masses --      2.0497                 1.4703                 3.3959
 Frc consts  --      0.1045                 0.0813                 0.1935
 IR Inten    --      0.8339                 0.5917                 4.8148

                     19                     20                     21
                      A                      A                      A
 Frequencies --    315.5049               345.2014               357.0244
 Red. masses --      2.6466                 2.6609                 2.3865
 Frc consts  --      0.1552                 0.1868                 0.1792
 IR Inten    --      1.6069                 0.1391                 0.3839

                     22                     23                     24
                      A                      A                      A
 Frequencies --    399.9974               436.7504               447.5879
 Red. masses --      2.6613                 2.3709                 2.8383
 Frc consts  --      0.2509                 0.2665                 0.3350
 IR Inten    --      3.5144                 9.9858                 6.3540

                     25                     26                     27
                      A                      A                      A
 Frequencies --    451.9174               487.3585               519.2909
 Red. masses --      3.2301                 3.4009                 3.1438
 Frc consts  --      0.3887                 0.4759                 0.4995
 IR Inten    --      0.5456                11.8667                 7.0486

                     28                     29                     30
                      A                      A                      A
 Frequencies --    545.9555               640.2198               749.1975
 Red. masses --      3.5758                 6.1402                 2.9126
 Frc consts  --      0.6280                 1.4828                 0.9632
 IR Inten    --     29.2045                68.0028                49.3637

                     31                     32                     33
                      A                      A                      A
 Frequencies --    770.8496               788.6597               808.8286
 Red. masses --      2.2939                 1.2045                 2.8102
 Frc consts  --      0.8031                 0.4414                 1.0832
 IR Inten    --      2.2162                 0.0596                11.5326

                     34                     35                     36
                      A                      A                      A
 Frequencies --    816.7138               832.1483               919.5647
 Red. masses --      1.5338                 1.1951                 2.1247
 Frc consts  --      0.6028                 0.4876                 1.0586
 IR Inten    --     11.3855                 4.5533                 1.4791

                     37                     38                     39
                      A                      A                      A
 Frequencies --    958.9072               962.2760               976.0678
 Red. masses --      1.6874                 1.5659                 4.9058
 Frc consts  --      0.9142                 0.8543                 2.7537
 IR Inten    --      2.7941                 0.5976                59.3222

                     40                     41                     42
                      A                      A                      A
 Frequencies --    990.5583               996.3630              1031.9858
 Red. masses --      1.2043                 2.3560                 1.7053
 Frc consts  --      0.6962                 1.3780                 1.0700
 IR Inten    --      0.2449                 7.9161                11.9431

                     43                     44                     45
                      A                      A                      A
 Frequencies --   1054.5339              1054.9529              1082.5275
 Red. masses --      1.4666                 1.4519                 1.9956
 Frc consts  --      0.9609                 0.9521                 1.3778
 IR Inten    --      2.2592                 0.4478                 0.7439

                     46                     47                     48
                      A                      A                      A
 Frequencies --   1096.7671              1105.5576              1126.9212
 Red. masses --      8.9379                 2.3248                 1.6450
 Frc consts  --      6.3345                 1.6742                 1.2308
 IR Inten    --    127.7037                15.7061                13.1666

                     49                     50                     51
                      A                      A                      A
 Frequencies --   1147.6188              1173.5805              1231.8617
 Red. masses --      1.7635                 1.4282                 2.0608
 Frc consts  --      1.3684                 1.1589                 1.8425
 IR Inten    --     36.5799                 5.1925                22.7273

                     52                     53                     54
                      A                      A                      A
 Frequencies --   1258.0170              1261.9872              1267.4130
 Red. masses --      2.1473                 2.6622                 2.4246
 Frc consts  --      2.0023                 2.4980                 2.2947
 IR Inten    --     37.9139                 4.4945                83.7075

                     55                     56                     57
                      A                      A                      A
 Frequencies --   1273.1929              1278.2789              1292.4767
 Red. masses --      2.6672                 1.3563                 3.2496
 Frc consts  --      2.5474                 1.3058                 3.1984
 IR Inten    --      2.2145                17.4018                72.6901

                     58                     59                     60
                      A                      A                      A
 Frequencies --   1325.6103              1371.5310              1402.5355
 Red. masses --      1.1302                 1.3010                 1.3152
 Frc consts  --      1.1701                 1.4419                 1.5243
 IR Inten    --      6.2895                30.8739                23.6549

                     61                     62                     63
                      A                      A                      A
 Frequencies --   1409.5093              1424.7233              1427.8411
 Red. masses --      1.2973                 1.2209                 1.2549
 Frc consts  --      1.5185                 1.4601                 1.5073
 IR Inten    --     14.8025                 9.0537                 7.8021

                     64                     65                     66
                      A                      A                      A
 Frequencies --   1429.9155              1434.2137              1436.4882
 Red. masses --      1.2557                 1.2472                 1.1969
 Frc consts  --      1.5128                 1.5115                 1.4552
 IR Inten    --      0.7151                11.7988                11.5842

                     67                     68                     69
                      A                      A                      A
 Frequencies --   1451.0092              1456.5845              1481.7665
 Red. masses --      1.3561                 1.2115                 1.0851
 Frc consts  --      1.6822                 1.5144                 1.4037
 IR Inten    --     17.9470                 7.6108                 5.5876

                     70                     71                     72
                      A                      A                      A
 Frequencies --   1503.5553              1505.8556              1514.5821
 Red. masses --      1.0723                 1.0450                 1.0730
 Frc consts  --      1.4283                 1.3962                 1.4502
 IR Inten    --      2.4208                 0.1950                10.3096

                     73                     74                     75
                      A                      A                      A
 Frequencies --   1521.3847              1523.6680              1527.1655
 Red. masses --      1.0482                 1.0473                 1.0436
 Frc consts  --      1.4295                 1.4325                 1.4340
 IR Inten    --      0.0846                 0.7260                 3.4051

                     76                     77                     78
                      A                      A                      A
 Frequencies --   1529.6502              1531.3114              1532.6390
 Red. masses --      1.0484                 1.0545                 1.0497
 Frc consts  --      1.4454                 1.4568                 1.4528
 IR Inten    --      5.5428                 4.8322                 8.6412

                     79                     80                     81
                      A                      A                      A
 Frequencies --   1534.1724              1542.5516              1553.4218
 Red. masses --      1.0627                 1.0551                 1.0537
 Frc consts  --      1.4737                 1.4792                 1.4981
 IR Inten    --      3.9830                 4.8320                19.5415

                     82                     83                     84
                      A                      A                      A
 Frequencies --   1556.2595              2924.0359              3031.5597
 Red. masses --      1.0831                 1.0741                 1.0626
 Frc consts  --      1.5455                 5.4106                 5.7538
 IR Inten    --      0.8885                67.9259                47.1005

                     85                     86                     87
                      A                      A                      A
 Frequencies --   3053.6080              3055.8383              3055.9182
 Red. masses --      1.0370                 1.0468                 1.0600
 Frc consts  --      5.6969                 5.7596                 5.8325
 IR Inten    --     21.5500                13.9119                24.1612

                     88                     89                     90
                      A                      A                      A
 Frequencies --   3056.9261              3058.8922              3065.6023
 Red. masses --      1.0479                 1.0364                 1.0369
 Frc consts  --      5.7696                 5.7135                 5.7414
 IR Inten    --     28.3735                20.1056                22.8262

                     91                     92                     93
                      A                      A                      A
 Frequencies --   3073.7243              3090.1005              3108.5027
 Red. masses --      1.1020                 1.0600                 1.0630
 Frc consts  --      6.1344                 5.9636                 6.0518
 IR Inten    --     17.7423                11.1717                11.6412

                     94                     95                     96
                      A                      A                      A
 Frequencies --   3116.8180              3117.4668              3122.6315
 Red. masses --      1.1020                 1.0995                 1.0972
 Frc consts  --      6.3074                 6.2958                 6.3032
 IR Inten    --      6.5213                53.8472                47.1276

                     97                     98                     99
                      A                      A                      A
 Frequencies --   3125.4419              3130.0871              3130.6542
 Red. masses --      1.1023                 1.1012                 1.1044
 Frc consts  --      6.3442                 6.3567                 6.3773
 IR Inten    --     27.7244                43.2266                16.0800

                    100                    101                    102
                      A                      A                      A
 Frequencies --   3135.6065              3135.9162              3150.3021
 Red. masses --      1.1047                 1.1002                 1.1021
 Frc consts  --      6.3996                 6.3746                 6.4445
 IR Inten    --     13.9135                10.2717                 4.6651

                    103                    104                    105
                      A                      A                      A
 Frequencies --   3151.9188              3156.9156              3175.1855
 Red. masses --      1.1019                 1.1035                 1.1072
 Frc consts  --      6.4499                 6.4798                 6.5769
 IR Inten    --     12.2136                 9.2527                 8.8052

 - Thermochemistry -
 -------------------
 Temperature   298.150 Kelvin.  Pressure   1.00000 Atm.
 Atom     1 has atomic number  6 and mass  12.00000

 Molecular mass:   221.14495 amu.
 Principal axes and moments of inertia in atomic units:
                           1         2         3
     Eigenvalues --  1860.115245320.713475773.53852
           X            0.99997   0.00507  -0.00588
           Y           -0.00499   0.99990   0.01313
           Z            0.00595  -0.01310   0.99990
 This molecule is an asymmetric top.
 Rotational symmetry number  1.
 Warning -- assumption of classical behavior for rotation
           may cause significant error
 Rotational temperatures (Kelvin)      0.04656     0.01628     0.01500
 Rotational constants (GHZ):           0.97023     0.33919     0.31259
 Zero-point vibrational energy     871348.4 (Joules/Mol)
                                  208.25727 (Kcal/Mol)
 Warning -- explicit consideration of  28 degrees of freedom as
           vibrations may cause significant error
 Vibrational temperatures:     28.90    47.71    81.04    95.85   107.72
          (Kelvin)            147.75   199.61   268.64   295.12   319.04
                              322.04   340.91   372.51   380.28   389.05
                              423.18   440.75   447.41   453.94   496.67
                              513.68   575.51   628.39   643.98   650.21
                              701.20   747.14   785.51   921.13  1077.93
                             1109.08  1134.71  1163.72  1175.07  1197.28
                             1323.05  1379.65  1384.50  1404.34  1425.19
                             1433.54  1484.80  1517.24  1517.84  1557.52
                             1578.00  1590.65  1621.39  1651.17  1688.52
                             1772.37  1810.01  1815.72  1823.52  1831.84
                             1839.16  1859.59  1907.26  1973.33  2017.94
                             2027.97  2049.86  2054.34  2057.33  2063.51
                             2066.79  2087.68  2095.70  2131.93  2163.28
                             2166.59  2179.15  2188.93  2192.22  2197.25
                             2200.83  2203.22  2205.13  2207.33  2219.39
                             2235.03  2239.11  4207.04  4361.74  4393.46
                             4396.67  4396.78  4398.23  4401.06  4410.72
                             4422.40  4445.97  4472.44  4484.41  4485.34
                             4492.77  4496.81  4503.50  4504.31  4511.44
                             4511.88  4532.58  4534.91  4542.10  4568.38

 Zero-point correction=                           0.331879 (Hartree/Particle)
 Thermal correction to Energy=                    0.349821
 Thermal correction to Enthalpy=                  0.350765
 Thermal correction to Gibbs Free Energy=         0.285527
 Sum of electronic and zero-point Energies=           -997.983217
 Sum of electronic and thermal Energies=              -997.965275
 Sum of electronic and thermal Enthalpies=            -997.964331
 Sum of electronic and thermal Free Energies=         -998.029570

                     E (Thermal)             CV                S
                      KCal/Mol        Cal/Mol-Kelvin    Cal/Mol-Kelvin
 Total                  219.516             66.214            137.306
 Electronic               0.000              0.000              0.000
 Translational            0.889              2.981             42.084
 Rotational               0.889              2.981             32.413
 Vibrational            217.739             60.252             62.809
 Vibration     1          0.593              1.986              6.626
 Vibration     2          0.594              1.983              5.631
 Vibration     3          0.596              1.975              4.582
 Vibration     4          0.598              1.970              4.251
 Vibration     5          0.599              1.966              4.021
 Vibration     6          0.605              1.947              3.403
 Vibration     7          0.614              1.915              2.821
 Vibration     8          0.632              1.858              2.260
 Vibration     9          0.640              1.833              2.087
 Vibration    10          0.648              1.808              1.945
 Vibration    11          0.649              1.805              1.928
 Vibration    12          0.656              1.784              1.826
 Vibration    13          0.668              1.748              1.669
 Vibration    14          0.671              1.738              1.633
 Vibration    15          0.674              1.728              1.594
 Vibration    16          0.689              1.685              1.450
 Vibration    17          0.697              1.662              1.382
 Vibration    18          0.700              1.653              1.357
 Vibration    19          0.703              1.644              1.333
 Vibration    20          0.724              1.585              1.188
 Vibration    21          0.732              1.561              1.135
 Vibration    22          0.766              1.470              0.963
 Vibration    23          0.797              1.390              0.837
 Vibration    24          0.807              1.366              0.803
 Vibration    25          0.811              1.357              0.790
 Vibration    26          0.843              1.278              0.690
 Vibration    27          0.874              1.207              0.612
 Vibration    28          0.901              1.149              0.553

                           ! Non-Optimized Parameters !
 Normal termination of Gaussian 16 at Thu Dec 10 09:32:16 2020.

 ----------------------------------------------------------------------
 # B3LYP/6-311++G(d,p) empiricaldispersion=gd3bj scf=xqc pop=npa geom=c
 heck
 ----------------------------------------------------------------------

 --------------------------------------
 CID_57632767_JID_4233_Energie_neutraal
 --------------------------------------
 Structure from the checkpoint file:  "JID_4233.chk"
 Charge =  0 Multiplicity = 1

 SCF Done:  E(RB3LYP) =  -998.515769177     A.U. after   14 cycles
 Normal termination of Gaussian 16 at Thu Dec 10 09:38:20 2020.

 ----------------------------------------------------------------------
 # B3LYP/6-311++G(d,p) empiricaldispersion=gd3bj scf=xqc pop=npa geom=c
 heck
 ----------------------------------------------------------------------

 ------------------------------------
 CID_57632767_JID_4233_Energie_kation
 ------------------------------------
 Structure from the checkpoint file:  "JID_4233.chk"
 Charge =  1 Multiplicity = 2

 SCF Done:  E(UB3LYP) =  -998.228205151     A.U. after   19 cycles
 Normal termination of Gaussian 16 at Thu Dec 10 09:49:50 2020.
 Gaussian 16:  ES64L-G16RevA.03 25-Dec-2016

 ----------------------------------------------------------------------
 # B3LYP/6-311++G(d,p) empiricaldispersion=gd3bj scf=xqc pop=npa geom=c
 heck
 ----------------------------------------------------------------------

 -----------------------------------
 CID_57632767_JID_4233_Energie_anion
 -----------------------------------
 Structure from the checkpoint file:  "JID_4233.chk"
 Charge = -1 Multiplicity = 2

                         Standard orientation:
 ---------------------------------------------------------------------
 Center     Atomic      Atomic             Coordinates (Angstroms)
 Number     Number       Type             X           Y           Z
 ---------------------------------------------------------------------
      1          6           0        2.580143    2.344494    0.679601
      2          6           0        3.006865    0.881107    0.797150
      3          7           0        2.790019    0.120912   -0.428706
      4          6           0        3.465860   -1.170522   -0.469516
      5          6           0        3.053021   -2.233378    0.564762
      6          6           0        1.451049    0.175121   -0.982768
      7          6           0        0.320220   -0.365180   -0.065345
      8         16           0       -1.260204    0.350777   -0.595007
      9          8           0       -1.182830    1.803166   -0.325204
     10          8           0       -1.525839   -0.128434   -1.966657
     11          6           0       -2.573007   -0.354283    0.516882
     12          6           0       -2.626828   -1.871361    0.320434
     13          6           0       -2.255211    0.030772    1.964004
     14          6           0       -3.873312    0.309225    0.041863
     15          1           0        2.897696    2.894904    1.571708
     16          1           0        1.494494    2.455348    0.590993
     17          1           0        3.044327    2.808070   -0.197254
     18          1           0        4.082188    0.832517    1.010553
     19          1           0        2.505458    0.433810    1.677639
     20          1           0        3.334727   -1.578198   -1.479447
     21          1           0        4.539930   -0.973254   -0.350674
     22          1           0        2.021458   -2.569935    0.419990
     23          1           0        3.701999   -3.112453    0.476519
     24          1           0        3.145277   -1.855287    1.588674
     25          1           0        1.219691    1.215448   -1.225721
     26          1           0        1.437321   -0.379938   -1.924150
     27          1           0        0.231362   -1.451293   -0.110934
     28          1           0        0.473604   -0.056129    0.970630
     29          1           0       -1.719906   -2.364804    0.685272
     30          1           0       -3.472407   -2.273933    0.889457
     31          1           0       -2.765368   -2.124893   -0.733585
     32          1           0       -2.126065    1.111675    2.062173
     33          1           0       -3.087488   -0.279399    2.605847
     34          1           0       -1.352343   -0.467725    2.331912
     35          1           0       -3.818727    1.395817    0.147487
     36          1           0       -4.073889    0.069456   -1.005733
     37          1           0       -4.703661   -0.062446    0.652178
 ---------------------------------------------------------------------

 SCF Done:  E(UB3LYP) =  -998.507378603     A.U. after   27 cycles

 The electronic state is 2-A.
 Alpha  occ. eigenvalues --  -88.93879 -19.01383 -19.01371 -14.21477 -10.13194
 Alpha  occ. eigenvalues --  -10.11424 -10.11041 -10.10411 -10.10331 -10.07992
 Alpha  occ. eigenvalues --  -10.07819 -10.07763 -10.06987 -10.06356  -8.00483
 Alpha  occ. eigenvalues --   -5.96747  -5.96622  -5.96553  -1.00342  -0.90070
 Alpha  occ. eigenvalues --   -0.83813  -0.74707  -0.69724  -0.67326  -0.63700
 Alpha  occ. eigenvalues --   -0.61006  -0.60984  -0.58612  -0.54282  -0.53220
 Alpha  occ. eigenvalues --   -0.47295  -0.45899  -0.41865  -0.40672  -0.39460
 Alpha  occ. eigenvalues --   -0.38150  -0.37344  -0.36817  -0.35790  -0.35684
 Alpha  occ. eigenvalues --   -0.33567  -0.33126  -0.31910  -0.31214  -0.30938
 Alpha  occ. eigenvalues --   -0.30655  -0.30042  -0.29331  -0.28706  -0.28315
 Alpha  occ. eigenvalues --   -0.27042  -0.26119  -0.26050  -0.26001  -0.25334
 Alpha  occ. eigenvalues --   -0.24920  -0.22586  -0.22146  -0.20329  -0.18751
 Alpha  occ. eigenvalues --   -0.12182   0.03915
 Alpha virt. eigenvalues --    0.05983   0.07054   0.07515   0.08308   0.08676
 Alpha virt. eigenvalues --    0.08906   0.09687   0.10167   0.10506   0.10790
 Alpha virt. eigenvalues --    0.11555   0.11865   0.12169   0.12804   0.13169

  Beta  occ. eigenvalues --  -88.93877 -19.01379 -19.01366 -14.21478 -10.13192
  Beta  occ. eigenvalues --  -10.11420 -10.11018 -10.10399 -10.10306 -10.07969
  Beta  occ. eigenvalues --  -10.07780 -10.07723 -10.06979 -10.06313  -8.00480
  Beta  occ. eigenvalues --   -5.96746  -5.96620  -5.96546  -1.00329  -0.90060
  Beta  occ. eigenvalues --   -0.83803  -0.74687  -0.69696  -0.67297  -0.63664
  Beta  occ. eigenvalues --   -0.60950  -0.60918  -0.58579  -0.54237  -0.53160
  Beta  occ. eigenvalues --   -0.47249  -0.45843  -0.41828  -0.40647  -0.39441
  Beta  occ. eigenvalues --   -0.38131  -0.37316  -0.36778  -0.35763  -0.35655
  Beta  occ. eigenvalues --   -0.33536  -0.33107  -0.31883  -0.31175  -0.30897
  Beta  occ. eigenvalues --   -0.30614  -0.30006  -0.29306  -0.28670  -0.28273
  Beta  occ. eigenvalues --   -0.27007  -0.26081  -0.26019  -0.25972  -0.25312
  Beta  occ. eigenvalues --   -0.24894  -0.22573  -0.22135  -0.20322  -0.18731
  Beta  occ. eigenvalues --   -0.12171
  Beta virt. eigenvalues --    0.06201   0.06871   0.07497   0.08130   0.08712
  Beta virt. eigenvalues --    0.09073   0.09279   0.10013   0.10394   0.10765
  Beta virt. eigenvalues --    0.11166   0.11831   0.12092   0.12481   0.12918

 Mulliken charges and spin densities:
               1          2
     1  C   -0.157476  -0.389524
     2  C    0.115956  -0.353925
     3  N    0.165995   0.063764
     4  C   -0.848183   0.717455
     5  C    1.012086  -1.443526
     6  C    0.985705  -1.662014
     7  C   -2.476102   1.926841
     8  S    1.627910  -1.416576
     9  O   -0.150412   0.013655
    10  O   -0.118016   0.000766
    11  C   -1.223573   1.404612
    12  C    0.746439  -1.302161
    13  C    0.497817  -1.120154
    14  C   -0.138585  -0.325038
    15  H   -0.058977   0.188674
    16  H    0.046297   0.130328
    17  H    0.166512  -0.025275
    18  H   -0.215314   0.365913
    19  H   -0.186923   0.312082
    20  H   -0.003366   0.115358
    21  H   -0.017262   0.179791
    22  H   -0.240830   0.383743
    23  H   -0.555960   0.715306
    24  H   -0.174669   0.317091
    25  H    0.307296  -0.077574
    26  H    0.130989   0.045321
    27  H    0.421466  -0.211700
    28  H    0.951543  -0.754739
    29  H   -0.269637   0.444862
    30  H   -0.378064   0.554107
    31  H    0.018145   0.166080
    32  H    0.137490   0.041163
    33  H   -0.469407   0.650680
    34  H   -0.692150   0.885048
    35  H    0.084992   0.086553
    36  H    0.132437   0.029668
    37  H   -0.174168   0.343344
 Sum of Mulliken charges =  -1.00000   1.00000

 Dipole moment (field-independent basis, Debye):
    X=              0.7345    Y=              3.8265    Z=             -3.9991  Tot=              5.5835
 Quadrupole moment (field-independent basis, Debye-Ang):
   XX=           -169.2766   YY=           -146.8958   ZZ=           -145.3538
   XY=              3.3493   XZ=             -0.7466   YZ=              9.7676

 Summary of Natural Population Analysis:

                                       Natural Population
                Natural  -----------------------------------------------
    Atom  No    Charge         Core      Valence    Rydberg      Total
 -----------------------------------------------------------------------
      C    1   -0.29587      0.99966     2.29045    0.00576     3.29587
      C    2   -0.08657      0.99962     2.07529    0.01166     3.08657
      N    3   -0.27754      0.99972     2.76565    0.01217     3.77754
      C    4   -0.07999      0.99962     2.06897    0.01140     3.07999
      C    5   -0.29786      0.99966     2.29312    0.00508     3.29786
      C    6   -0.09211      0.99960     2.07996    0.01255     3.09211
      C    7   -0.30322      0.99958     2.29309    0.01056     3.30322
      S    8    1.02233      4.99914     1.88762    0.09092     6.97767
      O    9   -0.47785      0.99991     3.47266    0.00528     4.47785
      O   10   -0.47623      0.99991     3.47097    0.00535     4.47623
      C   11   -0.11600      0.99957     2.09923    0.01721     3.11600
      C   12   -0.29737      0.99960     2.28926    0.00851     3.29737
      C   13   -0.29760      0.99960     2.28946    0.00854     3.29760
      C   14   -0.29835      0.99961     2.29012    0.00862     3.29835
      H   15    0.10024      0.00000     0.39912    0.00064     0.39976
      H   16    0.10584      0.00000     0.39306    0.00109     0.39416
      H   17    0.09735      0.00000     0.40172    0.00092     0.40265
      H   18    0.09456      0.00000     0.40407    0.00138     0.40544
      H   19    0.08204      0.00000     0.41614    0.00182     0.41796
      H   20    0.09097      0.00000     0.40798    0.00105     0.40903
      H   21    0.09101      0.00000     0.40778    0.00120     0.40899
      H   22    0.09590      0.00000     0.40244    0.00167     0.40410
      H   23    0.10058      0.00000     0.39802    0.00141     0.39942
      H   24    0.10056      0.00000     0.39775    0.00169     0.39944
      H   25    0.10443      0.00000     0.39412    0.00145     0.39557
      H   26    0.10249      0.00000     0.39635    0.00116     0.39751
      H   27    0.11428      0.00000     0.38404    0.00168     0.38572
      H   28    0.11599      0.00000     0.38201    0.00200     0.38401
      H   29    0.10564      0.00000     0.39275    0.00162     0.39436
      H   30    0.10846      0.00000     0.38992    0.00162     0.39154
      H   31    0.11116      0.00000     0.38768    0.00117     0.38884
      H   32    0.11125      0.00000     0.38754    0.00121     0.38875
      H   33    0.10863      0.00000     0.38966    0.00171     0.39137
      H   34    0.10617      0.00000     0.39208    0.00174     0.39383
      H   35    0.11025      0.00000     0.38883    0.00091     0.38975
      H   36    0.10972      0.00000     0.38936    0.00092     0.39028
      H   37    0.10670      0.00000     0.39229    0.00101     0.39330
 =======================================================================
   * Total *    0.00000     17.99480    42.76055    0.24464    61.00000

 Normal termination of Gaussian 16 at Thu Dec 10 10:05:50 2020.
