 Gaussian 16, Revision A.03,

 -----------------------------------------------------------
 # opt freq B3LYP/6-31G(d) empiricaldispersion=gd3bj scf=xqc
 -----------------------------------------------------------

 ---------------------------
 CID_66045681_JID_5_neutraal
 ---------------------------
 Symbolic Z-matrix:
 Charge =  0 Multiplicity = 1

 SCF Done:  E(RB3LYP) =  -409.166751943     A.U. after   13 cycles
 SCF Done:  E(RB3LYP) =  -409.169555358     A.U. after   11 cycles
 SCF Done:  E(RB3LYP) =  -409.169772888     A.U. after   11 cycles
 SCF Done:  E(RB3LYP) =  -409.169926114     A.U. after   10 cycles
 SCF Done:  E(RB3LYP) =  -409.169970479     A.U. after   10 cycles
 SCF Done:  E(RB3LYP) =  -409.169982882     A.U. after   10 cycles
 SCF Done:  E(RB3LYP) =  -409.169984534     A.U. after    8 cycles
 SCF Done:  E(RB3LYP) =  -409.169985185     A.U. after    8 cycles
 SCF Done:  E(RB3LYP) =  -409.169985530     A.U. after    8 cycles
 SCF Done:  E(RB3LYP) =  -409.169985706     A.U. after    7 cycles
 SCF Done:  E(RB3LYP) =  -409.169985788     A.U. after    7 cycles
 Optimization completed.
    -- Stationary point found.

 1\1\GINC-NODE377\FOpt\RB3LYP\6-31G(d)\C9H19N1\VSC10255\08-Dec-2020\0\\
 # opt freq B3LYP/6-31G(d) empiricaldispersion=gd3bj scf=xqc\\CID_66045
 681_JID_5_neutraal\\0,1\C,1.0941422223,-0.0928002407,-0.0360986196\C,0
 .2963929645,-0.8470794069,1.0325250759\C,0.6048454999,-0.4121542701,2.
 4743028594\C,0.3938034568,1.0790219808,2.7534229528\N,-0.9950249064,1.
 4664310315,2.5280098962\C,-1.3741381596,2.8343202634,2.8994314496\C,-1
 .1914581962,3.8833608776,1.8165240027\C,-2.2569519982,4.5128398131,1.3
 094677725\C,0.2054753889,4.1778466935,1.3150114917\C,1.15488739,4.7013

 Normal termination of Gaussian 16 at Tue Dec  8 10:15:49 2020.

 --------------------------------------------------------------------
 #N Geom=AllCheck Guess=TCheck SCRF=Check GenChk RB3LYP/6-31G(d) Freq
 --------------------------------------------------------------------

 Structure from the checkpoint file:  "JID_5.chk"
 ---------------------------
 CID_66045681_JID_5_neutraal
 ---------------------------
 Charge =  0 Multiplicity = 1

 SCF Done:  E(RB3LYP) =  -409.169985788     A.U. after    1 cycles

  Exact polarizability: 116.165  -6.023  98.386  11.365  -4.303  95.650
 Approx polarizability: 144.791 -10.428 137.883  19.153  -9.164 138.025

                      1                      2                      3
                      A                      A                      A
 Frequencies --     31.0139                42.1262                67.7325
 Red. masses --      2.8897                 3.4208                 2.6748
 Frc consts  --      0.0016                 0.0036                 0.0072
 IR Inten    --      0.0473                 0.1249                 0.0184

                      4                      5                      6
                      A                      A                      A
 Frequencies --     94.1792               148.2023               159.9474
 Red. masses --      2.5840                 2.1608                 1.7533
 Frc consts  --      0.0135                 0.0280                 0.0264
 IR Inten    --      0.3401                 0.2271                 0.6572

                      7                      8                      9
                      A                      A                      A
 Frequencies --    207.0859               224.8435               259.8820
 Red. masses --      1.4965                 2.1173                 1.6868
 Frc consts  --      0.0378                 0.0631                 0.0671
 IR Inten    --      0.2081                 1.0889                 0.6471

                     10                     11                     12
                      A                      A                      A
 Frequencies --    264.9796               280.5231               314.4875
 Red. masses --      2.1501                 1.6131                 2.1552
 Frc consts  --      0.0889                 0.0748                 0.1256
 IR Inten    --      1.0895                 0.4036                 4.5328

                     13                     14                     15
                      A                      A                      A
 Frequencies --    373.4556               446.0864               465.2630
 Red. masses --      2.0811                 2.1046                 2.1302
 Frc consts  --      0.1710                 0.2467                 0.2717
 IR Inten    --      0.0703                 0.5336                 0.9112

                     16                     17                     18
                      A                      A                      A
 Frequencies --    528.0225               631.6997               700.1021
 Red. masses --      2.1413                 2.6157                 1.8212
 Frc consts  --      0.3518                 0.6150                 0.5259
 IR Inten    --      0.9484                14.1835                56.5800

                     19                     20                     21
                      A                      A                      A
 Frequencies --    736.3316               754.8489               803.1006
 Red. masses --      1.1643                 1.1720                 1.9052
 Frc consts  --      0.3719                 0.3934                 0.7240
 IR Inten    --     25.8748                 6.4771                12.0976

                     22                     23                     24
                      A                      A                      A
 Frequencies --    808.9850               830.9927               866.4286
 Red. masses --      1.2403                 2.2209                 1.3997
 Frc consts  --      0.4782                 0.9036                 0.6191
 IR Inten    --      5.8864                 1.5830                 7.7035

                     25                     26                     27
                      A                      A                      A
 Frequencies --    929.6270               941.7798               956.4039
 Red. masses --      1.3702                 1.7057                 1.7576
 Frc consts  --      0.6977                 0.8914                 0.9473
 IR Inten    --     40.6710                 2.6985                 1.3974

                     28                     29                     30
                      A                      A                      A
 Frequencies --    983.8469              1001.2012              1031.9246
 Red. masses --      1.9216                 1.5446                 1.8862
 Frc consts  --      1.0959                 0.9122                 1.1834
 IR Inten    --      1.9590                 2.1769                 0.3646

                     31                     32                     33
                      A                      A                      A
 Frequencies --   1051.5390              1090.5124              1095.9984
 Red. masses --      1.5682                 2.4277                 1.7294
 Frc consts  --      1.0217                 1.7010                 1.2240
 IR Inten    --      1.1217                 9.3663                 3.1260

                     34                     35                     36
                      A                      A                      A
 Frequencies --   1112.3875              1153.3766              1158.1258
 Red. masses --      1.5518                 2.1869                 2.8585
 Frc consts  --      1.1313                 1.7141                 2.2589
 IR Inten    --      2.3193                20.8004                23.1989

                     37                     38                     39
                      A                      A                      A
 Frequencies --   1168.9600              1243.8738              1272.2652
 Red. masses --      1.8250                 1.2474                 1.3647
 Frc consts  --      1.4693                 1.1372                 1.3015
 IR Inten    --      6.2996                 0.9434                 1.2746

                     40                     41                     42
                      A                      A                      A
 Frequencies --   1286.9995              1310.3893              1330.0937
 Red. masses --      1.4858                 1.2821                 1.3636
 Frc consts  --      1.4500                 1.2971                 1.4213
 IR Inten    --      0.7160                 1.8260                 1.0106

                     43                     44                     45
                      A                      A                      A
 Frequencies --   1354.5301              1370.8027              1377.7415
 Red. masses --      1.2615                 1.5556                 1.2289
 Frc consts  --      1.3637                 1.7222                 1.3744
 IR Inten    --      6.7151                 3.0871                18.3351

                     46                     47                     48
                      A                      A                      A
 Frequencies --   1390.3977              1405.1710              1429.9071
 Red. masses --      1.3575                 1.4377                 1.3167
 Frc consts  --      1.5462                 1.6725                 1.5862
 IR Inten    --      4.5084                 2.0105                 3.5206

                     49                     50                     51
                      A                      A                      A
 Frequencies --   1436.5259              1443.7865              1477.7665
 Red. masses --      1.2287                 1.2712                 1.1755
 Frc consts  --      1.4939                 1.5612                 1.5125
 IR Inten    --      3.0502                 3.5974                 3.0969

                     52                     53                     54
                      A                      A                      A
 Frequencies --   1502.4924              1507.9450              1515.2514
 Red. masses --      1.1288                 1.1150                 1.0883
 Frc consts  --      1.5014                 1.4939                 1.4722
 IR Inten    --      4.6276                14.4231                 7.6325

                     55                     56                     57
                      A                      A                      A
 Frequencies --   1517.9578              1528.5764              1530.1577
 Red. masses --      1.1040                 1.0599                 1.0495
 Frc consts  --      1.4987                 1.4592                 1.4477
 IR Inten    --     12.9978                13.9634                 3.4350

                     58                     59                     60
                      A                      A                      A
 Frequencies --   1531.4498              1539.5052              1542.5633
 Red. masses --      1.0574                 1.0688                 1.0979
 Frc consts  --      1.4611                 1.4925                 1.5393
 IR Inten    --      5.3543                 0.2466                 3.5404

                     61                     62                     63
                      A                      A                      A
 Frequencies --   1554.4683              1726.4070              2965.3773
 Red. masses --      1.0842                 4.9844                 1.0714
 Frc consts  --      1.5436                 8.7529                 5.5507
 IR Inten    --     13.0616                11.9816                65.2867

                     64                     65                     66
                      A                      A                      A
 Frequencies --   3032.8137              3036.0577              3037.7097
 Red. masses --      1.0656                 1.0604                 1.0624
 Frc consts  --      5.7746                 5.7590                 5.7763
 IR Inten    --     21.5915                60.8024                20.9432

                     67                     68                     69
                      A                      A                      A
 Frequencies --   3038.5200              3044.5952              3053.6361
 Red. masses --      1.0623                 1.0366                 1.0360
 Frc consts  --      5.7783                 5.6615                 5.6917
 IR Inten    --      2.4123                27.1606                23.3657

                     70                     71                     72
                      A                      A                      A
 Frequencies --   3057.0079              3067.4262              3075.1051
 Red. masses --      1.0880                 1.0980                 1.1026
 Frc consts  --      5.9907                 6.0868                 6.1429
 IR Inten    --     44.0367                33.7354                40.4243

                     73                     74                     75
                      A                      A                      A
 Frequencies --   3077.1862              3086.4579              3108.4603
 Red. masses --      1.0988                 1.1007                 1.1023
 Frc consts  --      6.1305                 6.1781                 6.2754
 IR Inten    --     20.9241                44.8662                67.4730

                     76                     77                     78
                      A                      A                      A
 Frequencies --   3113.7848              3120.5037              3126.7569
 Red. masses --      1.1016                 1.1029                 1.1020
 Frc consts  --      6.2927                 6.3273                 6.3477
 IR Inten    --     46.2291                31.6030                44.1123

                     79                     80                     81
                      A                      A                      A
 Frequencies --   3152.6596              3228.4339              3514.2799
 Red. masses --      1.0598                 1.1157                 1.0734
 Frc consts  --      6.2060                 6.8514                 7.8105
 IR Inten    --     12.6105                20.7777                 0.2417

 - Thermochemistry -
 -------------------
 Temperature   298.150 Kelvin.  Pressure   1.00000 Atm.
 Atom     1 has atomic number  6 and mass  12.00000

 Molecular mass:   141.15175 amu.
 Principal axes and moments of inertia in atomic units:
                           1         2         3
     Eigenvalues --   994.784582767.279382899.23090
           X            0.99997   0.00114  -0.00780
           Y           -0.00135   0.99964  -0.02667
           Z            0.00777   0.02668   0.99961
 This molecule is an asymmetric top.
 Rotational symmetry number  1.
 Warning -- assumption of classical behavior for rotation
           may cause significant error
 Rotational temperatures (Kelvin)      0.08707     0.03130     0.02987
 Rotational constants (GHZ):           1.81420     0.65217     0.62249
 Zero-point vibrational energy     710461.0 (Joules/Mol)
                                  169.80425 (Kcal/Mol)
 Warning -- explicit consideration of  16 degrees of freedom as
           vibrations may cause significant error
 Vibrational temperatures:     44.62    60.61    97.45   135.50   213.23
          (Kelvin)            230.13   297.95   323.50   373.91   381.25
                              403.61   452.48   537.32   641.82   669.41
                              759.71   908.88  1007.29  1059.42  1086.06
                             1155.48  1163.95  1195.61  1246.60  1337.53
                             1355.01  1376.05  1415.54  1440.51  1484.71
                             1512.93  1569.00  1576.90  1600.48  1659.45
                             1666.28  1681.87  1789.66  1830.51  1851.71
                             1885.36  1913.71  1948.87  1972.28  1982.26
                             2000.47  2021.73  2057.32  2066.84  2077.29
                             2126.18  2161.75  2169.60  2180.11  2184.00
                             2199.28  2201.56  2203.41  2215.00  2219.40
                             2236.53  2483.91  4266.52  4363.54  4368.21
                             4370.59  4371.75  4380.49  4393.50  4398.35
                             4413.34  4424.39  4427.38  4440.72  4472.38
                             4480.04  4489.71  4498.71  4535.97  4645.00
                             5056.26

 Zero-point correction=                           0.270600 (Hartree/Particle)
 Thermal correction to Energy=                    0.283206
 Thermal correction to Enthalpy=                  0.284150
 Thermal correction to Gibbs Free Energy=         0.230965
 Sum of electronic and zero-point Energies=           -408.899385
 Sum of electronic and thermal Energies=              -408.886780
 Sum of electronic and thermal Enthalpies=            -408.885836
 Sum of electronic and thermal Free Energies=         -408.939021

                     E (Thermal)             CV                S
                      KCal/Mol        Cal/Mol-Kelvin    Cal/Mol-Kelvin
 Total                  177.714             45.971            111.938
 Electronic               0.000              0.000              0.000
 Translational            0.889              2.981             40.745
 Rotational               0.889              2.981             30.457
 Vibrational            175.937             40.009             40.735
 Vibration     1          0.594              1.983              5.763
 Vibration     2          0.595              1.980              5.157
 Vibration     3          0.598              1.970              4.218
 Vibration     4          0.603              1.953              3.571
 Vibration     5          0.618              1.905              2.695
 Vibration     6          0.622              1.891              2.550
 Vibration     7          0.641              1.830              2.069
 Vibration     8          0.650              1.803              1.920
 Vibration     9          0.668              1.746              1.663
 Vibration    10          0.671              1.737              1.629
 Vibration    11          0.680              1.710              1.530
 Vibration    12          0.702              1.646              1.339
 Vibration    13          0.745              1.527              1.066
 Vibration    14          0.805              1.370              0.808
 Vibration    15          0.823              1.327              0.751
 Vibration    16          0.883              1.188              0.592

 Optimization completed.
    -- Stationary point found.

 1\1\GINC-NODE377\Freq\RB3LYP\6-31G(d)\C9H19N1\VSC10255\08-Dec-2020\0\\
 #N Geom=AllCheck Guess=TCheck SCRF=Check GenChk RB3LYP/6-31G(d) Freq\\
 CID_66045681_JID_5_neutraal\\0,1\C,1.0941422223,-0.0928002407,-0.03609
 86196\C,0.2963929645,-0.8470794069,1.0325250759\C,0.6048454999,-0.4121
 542701,2.4743028594\C,0.3938034568,1.0790219808,2.7534229528\N,-0.9950
 249064,1.4664310315,2.5280098962\C,-1.3741381596,2.8343202634,2.899431
 4496\C,-1.1914581962,3.8833608776,1.8165240027\C,-2.2569519982,4.51283
 98131,1.3094677725\C,0.2054753889,4.1778466935,1.3150114917\C,1.154887

 Normal termination of Gaussian 16 at Tue Dec  8 10:21:04 2020.

 ----------------------------------------------------------------------
 # B3LYP/6-311++G(d,p) empiricaldispersion=gd3bj scf=xqc pop=npa geom=c
 heck
 ----------------------------------------------------------------------

 -----------------------------------
 CID_66045681_JID_5_Energie_neutraal
 -----------------------------------
 Structure from the checkpoint file:  "JID_5.chk"
 Charge =  0 Multiplicity = 1

 SCF Done:  E(RB3LYP) =  -409.290559172     A.U. after   13 cycles
 Normal termination of Gaussian 16 at Tue Dec  8 10:23:02 2020.

 ----------------------------------------------------------------------
 # B3LYP/6-311++G(d,p) empiricaldispersion=gd3bj scf=xqc pop=npa geom=c
 heck
 ----------------------------------------------------------------------

 ---------------------------------
 CID_66045681_JID_5_Energie_kation
 ---------------------------------
 Structure from the checkpoint file:  "JID_5.chk"
 Charge =  1 Multiplicity = 2

 SCF Done:  E(UB3LYP) =  -408.994420099     A.U. after   19 cycles
 Normal termination of Gaussian 16 at Tue Dec  8 10:26:46 2020.
 Gaussian 16:  ES64L-G16RevA.03 25-Dec-2016

 --------------------------------
 CID_66045681_JID_5_Energie_anion
 --------------------------------
 Structure from the checkpoint file:  "JID_5.chk"
 Charge = -1 Multiplicity = 2

                         Standard orientation:
 ---------------------------------------------------------------------
 Center     Atomic      Atomic             Coordinates (Angstroms)
 Number     Number       Type             X           Y           Z
 ---------------------------------------------------------------------
      1          6           0       -2.645192    1.078500    1.280558
      2          6           0       -3.022270   -0.217892    0.556349
      3          6           0       -2.524919   -0.296804   -0.896042
      4          6           0       -1.011256   -0.134858   -1.065308
      5          7           0       -0.286016   -1.184792   -0.357207
      6          6           0        1.166828   -1.240755   -0.554474
      7          6           0        1.992585   -0.401370    0.404747
      8          6           0        2.827446   -0.995690    1.264059
      9          6           0        1.831833    1.103041    0.380949
     10          6           0        2.196698    1.741937   -0.967608
     11          1           0       -1.560071    1.175358    1.404052
     12          1           0       -3.092516    1.116687    2.279893
     13          1           0       -2.992371    1.957848    0.724320
     14          1           0       -2.643095   -1.079876    1.121741
     15          1           0       -4.114480   -0.325683    0.554113
     16          1           0       -2.822203   -1.261843   -1.323666
     17          1           0       -3.019066    0.487406   -1.486433
     18          1           0       -0.763571   -0.228695   -2.130325
     19          1           0       -0.722973    0.890380   -0.773239
     20          1           0       -0.489471   -1.150168    0.638604
     21          1           0        1.489910   -2.285309   -0.460460
     22          1           0        1.365252   -0.948125   -1.593391
     23          1           0        3.424871   -0.425568    1.971702
     24          1           0        2.946108   -2.076434    1.288920
     25          1           0        0.794948    1.367738    0.629391
     26          1           0        2.455740    1.539279    1.169851
     27          1           0        1.536710    1.397780   -1.770555
     28          1           0        2.111838    2.832789   -0.914492
     29          1           0        3.226024    1.493326   -1.248963
 ---------------------------------------------------------------------

 SCF Done:  E(UB3LYP) =  -409.272894850     A.U. after   33 cycles
 SCF Done:  E(UB3LYP) =  -409.272894850     a.u. after    1 cycles

 The electronic state is 2-A.
 Alpha  occ. eigenvalues --  -14.19627 -10.09515 -10.08653 -10.08112 -10.06948
 Alpha  occ. eigenvalues --  -10.06386 -10.06119 -10.06085 -10.05847 -10.05371
 Alpha  occ. eigenvalues --   -0.80613  -0.71197  -0.68466  -0.63859  -0.61302
 Alpha  occ. eigenvalues --   -0.56305  -0.53006  -0.52693  -0.46311  -0.43610
 Alpha  occ. eigenvalues --   -0.39324  -0.37336  -0.36384  -0.35555  -0.33838
 Alpha  occ. eigenvalues --   -0.32996  -0.31343  -0.30252  -0.29006  -0.28707
 Alpha  occ. eigenvalues --   -0.27577  -0.27092  -0.25781  -0.24049  -0.23834
 Alpha  occ. eigenvalues --   -0.22834  -0.22362  -0.22208  -0.16283  -0.12144
 Alpha  occ. eigenvalues --    0.04716
 Alpha virt. eigenvalues --    0.06788   0.07311   0.07480   0.08898   0.09080
 Alpha virt. eigenvalues --    0.09435   0.09656   0.10097   0.10839   0.11533
 Alpha virt. eigenvalues --    0.11734   0.12315   0.12926   0.13792   0.13840

  Beta  occ. eigenvalues --  -14.19616 -10.09500 -10.08634 -10.08114 -10.06925
  Beta  occ. eigenvalues --  -10.06370 -10.06101 -10.06070 -10.05812 -10.05331
  Beta  occ. eigenvalues --   -0.80595  -0.71173  -0.68429  -0.63821  -0.61259
  Beta  occ. eigenvalues --   -0.56256  -0.52938  -0.52614  -0.46247  -0.43569
  Beta  occ. eigenvalues --   -0.39294  -0.37303  -0.36348  -0.35522  -0.33807
  Beta  occ. eigenvalues --   -0.32956  -0.31309  -0.30213  -0.28960  -0.28670
  Beta  occ. eigenvalues --   -0.27533  -0.27031  -0.25750  -0.24016  -0.23803
  Beta  occ. eigenvalues --   -0.22797  -0.22325  -0.22172  -0.16263  -0.12120
  Beta virt. eigenvalues --    0.06870   0.07669   0.07959   0.08043   0.09328
  Beta virt. eigenvalues --    0.09542   0.09680   0.10179   0.10626   0.11141
  Beta virt. eigenvalues --    0.11963   0.12133   0.12803   0.13235   0.14021

 Mulliken charges and spin densities:
               1          2
     1  C    1.498980  -2.033722
     2  C   -1.228147   1.059259
     3  C    1.075286  -1.516820
     4  C   -0.275579  -0.025553
     5  N   -0.130432   0.132336
     6  C    0.078163  -0.804243
     7  C   -0.068479   0.883783
     8  C    1.288209  -1.833200
     9  C   -1.771427   1.561860
    10  C    1.127501  -1.765692
    11  H   -0.162581   0.295336
    12  H   -0.448495   0.588022
    13  H   -0.322301   0.466608
    14  H   -0.044177   0.176349
    15  H   -0.307605   0.463825
    16  H    0.030729   0.118983
    17  H   -0.306348   0.453042
    18  H   -0.221033   0.375001
    19  H    0.517071  -0.427473
    20  H    0.327171  -0.122993
    21  H   -0.152099   0.326104
    22  H    0.030041   0.122813
    23  H   -0.100822   0.226526
    24  H   -0.049136   0.158000
    25  H    0.115774   0.012249
    26  H   -0.563782   0.736018
    27  H   -0.377296   0.530172
    28  H   -0.454753   0.601583
    29  H   -0.104434   0.241829
 Sum of Mulliken charges =  -1.00000   1.00000

 Dipole moment (field-independent basis, Debye):
    X=              1.2272    Y=             -4.0664    Z=             -0.4922  Tot=              4.2760
 Quadrupole moment (field-independent basis, Debye-Ang):
   XX=           -136.2231   YY=           -110.3262   ZZ=           -105.7309
   XY=             -0.2600   XZ=              2.9994   YZ=             -1.7973

 Summary of Natural Population Analysis:

                                       Natural Population
                Natural  -----------------------------------------------
    Atom  No    Charge         Core      Valence    Rydberg      Total
 -----------------------------------------------------------------------
      C    1   -0.28822      0.99966     2.28276    0.00580     3.28822
      C    2   -0.19291      0.99964     2.18505    0.00822     3.19291
      C    3   -0.18983      0.99962     2.18089    0.00931     3.18983
      C    4   -0.08693      0.99961     2.07678    0.01054     3.08693
      N    5   -0.34047      0.99975     2.82971    0.01101     3.84047
      C    6   -0.09786      0.99956     2.08677    0.01152     3.09786
      C    7   -0.00579      0.99951     1.99386    0.01242     3.00579
      C    8   -0.19757      0.99948     2.19027    0.00782     3.19757
      C    9   -0.20763      0.99958     2.19826    0.00979     3.20763
      C   10   -0.28321      0.99966     2.27794    0.00562     3.28321
      H   11    0.09452      0.00000     0.40372    0.00176     0.40548
      H   12    0.09998      0.00000     0.39864    0.00138     0.40002
      H   13    0.09810      0.00000     0.40046    0.00144     0.40190
      H   14    0.09074      0.00000     0.40803    0.00123     0.40926
      H   15    0.09715      0.00000     0.40158    0.00127     0.40285
      H   16    0.09704      0.00000     0.40159    0.00137     0.40296
      H   17    0.09664      0.00000     0.40220    0.00116     0.40336
      H   18    0.09207      0.00000     0.40634    0.00158     0.40793
      H   19    0.08036      0.00000     0.41752    0.00212     0.41964
      H   20    0.17220      0.00000     0.32394    0.00386     0.32780
      H   21    0.09278      0.00000     0.40588    0.00134     0.40722
      H   22    0.09733      0.00000     0.40110    0.00157     0.40267
      H   23    0.09343      0.00000     0.40532    0.00126     0.40657
      H   24    0.09069      0.00000     0.40807    0.00124     0.40931
      H   25    0.10166      0.00000     0.39596    0.00238     0.39834
      H   26    0.10009      0.00000     0.39842    0.00149     0.39991
      H   27    0.09696      0.00000     0.40174    0.00130     0.40304
      H   28    0.10211      0.00000     0.39650    0.00139     0.39789
      H   29    0.09655      0.00000     0.40223    0.00122     0.40345
 =======================================================================
   * Total *    0.00000      9.99609    29.88152    0.12240    40.00000

 Normal termination of Gaussian 16 at Tue Dec  8 10:34:58 2020.
