 Gaussian 16, Revision A.03,

 -----------------------------------------------------------
 # opt freq B3LYP/6-31G(d) empiricaldispersion=gd3bj scf=xqc
 -----------------------------------------------------------

 ------------------------------
 CID_13230240_JID_1185_neutraal
 ------------------------------
 Symbolic Z-matrix:
 Charge =  0 Multiplicity = 1

 SCF Done:  E(RB3LYP) =  -514.034287259     A.U. after   15 cycles
 SCF Done:  E(RB3LYP) =  -514.036247794     A.U. after   12 cycles
 SCF Done:  E(RB3LYP) =  -514.036454077     A.U. after   11 cycles
 SCF Done:  E(RB3LYP) =  -514.036509980     A.U. after   11 cycles
 SCF Done:  E(RB3LYP) =  -514.036533388     A.U. after   10 cycles
 SCF Done:  E(RB3LYP) =  -514.036540415     A.U. after   10 cycles
 SCF Done:  E(RB3LYP) =  -514.036544969     A.U. after    9 cycles
 SCF Done:  E(RB3LYP) =  -514.036551634     A.U. after   10 cycles
 SCF Done:  E(RB3LYP) =  -514.036554906     A.U. after   11 cycles
 SCF Done:  E(RB3LYP) =  -514.036572113     A.U. after   10 cycles
 SCF Done:  E(RB3LYP) =  -514.038763108     A.U. after   10 cycles
 SCF Done:  E(RB3LYP) =  -514.038769030     A.U. after   11 cycles
 SCF Done:  E(RB3LYP) =  -514.038771157     A.U. after   10 cycles
 SCF Done:  E(RB3LYP) =  -514.038771417     A.U. after    8 cycles
 SCF Done:  E(RB3LYP) =  -514.038771460     A.U. after    7 cycles
 SCF Done:  E(RB3LYP) =  -514.038771465     A.U. after    6 cycles
 Optimization completed.
    -- Stationary point found.
 Normal termination of Gaussian 16 at Tue Dec  8 19:23:58 2020.

 --------------------------------------------------------------------
 #N Geom=AllCheck Guess=TCheck SCRF=Check GenChk RB3LYP/6-31G(d) Freq
 --------------------------------------------------------------------

 Structure from the checkpoint file:  "JID_1185.chk"
 ------------------------------
 CID_13230240_JID_1185_neutraal
 ------------------------------
 Charge =  0 Multiplicity = 1

 SCF Done:  E(RB3LYP) =  -514.038771465     A.U. after    1 cycles

  Exact polarizability: 114.852   4.757  89.360  -1.849   5.413  75.017
 Approx polarizability: 154.169   9.450 134.843  -2.945  20.743 118.256

                      1                      2                      3
                      A                      A                      A
 Frequencies --     19.0381                37.4368                38.5610
 Red. masses --      3.0707                 3.1353                 2.9672
 Frc consts  --      0.0007                 0.0026                 0.0026
 IR Inten    --      1.3178                 0.7686                 3.1789

                      4                      5                      6
                      A                      A                      A
 Frequencies --     76.7190               143.0983               163.9981
 Red. masses --      3.0046                 2.3369                 3.8633
 Frc consts  --      0.0104                 0.0282                 0.0612
 IR Inten    --      1.2995                 0.8380                 0.5141

                      7                      8                      9
                      A                      A                      A
 Frequencies --    211.4618               246.2782               302.7358
 Red. masses --      1.2783                 1.3664                 2.8635
 Frc consts  --      0.0337                 0.0488                 0.1546
 IR Inten    --      1.6211                 0.5665                 0.9958

                     10                     11                     12
                      A                      A                      A
 Frequencies --    305.9355               386.8131               408.4930
 Red. masses --      1.7040                 3.0829                 2.5660
 Frc consts  --      0.0940                 0.2718                 0.2523
 IR Inten    --      6.5380                 2.4810                 5.8752

                     13                     14                     15
                      A                      A                      A
 Frequencies --    453.6484               495.1494               625.0161
 Red. masses --      3.0039                 3.6278                 4.0883
 Frc consts  --      0.3642                 0.5240                 0.9410
 IR Inten    --      5.8757                 3.9599                 2.8699

                     16                     17                     18
                      A                      A                      A
 Frequencies --    691.3637               721.0483               773.1902
 Red. masses --      4.3547                 4.9520                 1.5964
 Frc consts  --      1.2264                 1.5169                 0.5623
 IR Inten    --      1.4506                 3.6057                21.4061

                     19                     20                     21
                      A                      A                      A
 Frequencies --    801.2732               805.4866               816.1613
 Red. masses --      1.3198                 1.2680                 2.0259
 Frc consts  --      0.4992                 0.4847                 0.7951
 IR Inten    --     12.7664                 9.8952                 8.2758

                     22                     23                     24
                      A                      A                      A
 Frequencies --    854.8387               978.5721               990.6354
 Red. masses --      2.6163                 2.2649                 2.6537
 Frc consts  --      1.1264                 1.2779                 1.5343
 IR Inten    --      7.9161                 4.8551                14.8916

                     25                     26                     27
                      A                      A                      A
 Frequencies --    992.8754              1042.6288              1062.4834
 Red. masses --      2.0245                 4.6421                 4.1491
 Frc consts  --      1.1759                 2.9732                 2.7596
 IR Inten    --      8.0767                34.8597                24.1540

                     28                     29                     30
                      A                      A                      A
 Frequencies --   1094.3578              1100.7292              1117.9578
 Red. masses --      2.6101                 2.2496                 1.8189
 Frc consts  --      1.8417                 1.6059                 1.3394
 IR Inten    --     33.9561                 4.5414                 2.8883

                     31                     32                     33
                      A                      A                      A
 Frequencies --   1152.2519              1167.8651              1209.4122
 Red. masses --      2.8023                 2.0250                 1.8581
 Frc consts  --      2.1921                 1.6273                 1.6012
 IR Inten    --     94.9690                35.7936                35.2151

                     34                     35                     36
                      A                      A                      A
 Frequencies --   1252.0365              1283.1651              1311.9214
 Red. masses --      1.9408                 2.3151                 2.1281
 Frc consts  --      1.7925                 2.2458                 2.1580
 IR Inten    --      2.8056                19.8980                10.6896

                     37                     38                     39
                      A                      A                      A
 Frequencies --   1346.6768              1371.7119              1386.3669
 Red. masses --      1.1539                 1.4495                 2.3511
 Frc consts  --      1.2330                 1.6069                 2.6624
 IR Inten    --      2.6147                 1.7338                13.0097

                     40                     41                     42
                      A                      A                      A
 Frequencies --   1402.9656              1411.8043              1429.6278
 Red. masses --      1.3041                 1.4916                 1.3604
 Frc consts  --      1.5123                 1.7516                 1.6382
 IR Inten    --     29.1683                 7.2608                 9.0387

                     43                     44                     45
                      A                      A                      A
 Frequencies --   1439.4659              1441.5288              1493.5643
 Red. masses --      1.2607                 1.3265                 2.3799
 Frc consts  --      1.5391                 1.6240                 3.1279
 IR Inten    --      8.5428                21.3314                13.6682

                     46                     47                     48
                      A                      A                      A
 Frequencies --   1510.2003              1516.9596              1520.0407
 Red. masses --      1.0689                 1.3159                 1.0603
 Frc consts  --      1.4364                 1.7842                 1.4434
 IR Inten    --      2.2141                 7.0825                10.1150

                     49                     50                     51
                      A                      A                      A
 Frequencies --   1523.0775              1528.4491              1533.8583
 Red. masses --      1.0669                 1.0742                 1.0661
 Frc consts  --      1.4583                 1.4785                 1.4778
 IR Inten    --      0.9838                 4.1211                 3.0075

                     52                     53                     54
                      A                      A                      A
 Frequencies --   1541.5706              1591.2199              3018.7746
 Red. masses --      1.0761                 6.0277                 1.0685
 Frc consts  --      1.5068                 8.9921                 5.7370
 IR Inten    --      1.6300                 4.5927                84.9298

                     55                     56                     57
                      A                      A                      A
 Frequencies --   3024.4102              3052.6512              3061.6910
 Red. masses --      1.0704                 1.0366                 1.0352
 Frc consts  --      5.7686                 5.6913                 5.7174
 IR Inten    --      5.0224                21.6896                14.8442

                     58                     59                     60
                      A                      A                      A
 Frequencies --   3084.9625              3097.0411              3118.4765
 Red. masses --      1.0642                 1.0957                 1.0992
 Frc consts  --      5.9670                 6.1920                 6.2980
 IR Inten    --     24.6113                 5.6604                65.0619

                     61                     62                     63
                      A                      A                      A
 Frequencies --   3125.7449              3127.3064              3130.3393
 Red. masses --      1.0942                 1.1030                 1.1035
 Frc consts  --      6.2986                 6.3556                 6.3707
 IR Inten    --      9.6586                13.5042                40.5176

                     64                     65                     66
                      A                      A                      A
 Frequencies --   3140.8608              3154.0055              3289.8712
 Red. masses --      1.1008                 1.1049                 1.0989
 Frc consts  --      6.3983                 6.4759                 7.0072
 IR Inten    --     20.4722                16.4949                 0.2043

 - Thermochemistry -
 -------------------
 Temperature   298.150 Kelvin.  Pressure   1.00000 Atm.
 Atom     1 has atomic number  6 and mass  12.00000

 Molecular mass:   155.10586 amu.
 Principal axes and moments of inertia in atomic units:
                           1         2         3
     Eigenvalues --   935.837792871.781603407.47523
           X            0.99996   0.00491  -0.00693
           Y           -0.00506   0.99977  -0.02105
           Z            0.00682   0.02108   0.99975
 This molecule is an asymmetric top.
 Rotational symmetry number  1.
 Warning -- assumption of classical behavior for rotation
           may cause significant error
 Rotational temperatures (Kelvin)      0.09255     0.03016     0.02542
 Rotational constants (GHZ):           1.92848     0.62844     0.52964
 Zero-point vibrational energy     541608.4 (Joules/Mol)
                                  129.44752 (Kcal/Mol)
 Warning -- explicit consideration of  14 degrees of freedom as
           vibrations may cause significant error
 Vibrational temperatures:     27.39    53.86    55.48   110.38   205.89
          (Kelvin)            235.96   304.25   354.34   435.57   440.17
                              556.54   587.73   652.70   712.41   899.26
                              994.72  1037.43  1112.45  1152.85  1158.92
                             1174.27  1229.92  1407.95  1425.30  1428.53
                             1500.11  1528.68  1574.54  1583.70  1608.49
                             1657.83  1680.30  1740.07  1801.40  1846.19
                             1887.56  1937.57  1973.59  1994.67  2018.55
                             2031.27  2056.92  2071.07  2074.04  2148.91
                             2172.84  2182.57  2187.00  2191.37  2199.10
                             2206.88  2217.98  2289.41  4343.34  4351.45
                             4392.08  4405.09  4438.57  4455.95  4486.79
                             4497.25  4499.50  4503.86  4519.00  4537.91
                             4733.39

 Zero-point correction=                           0.206288 (Hartree/Particle)
 Thermal correction to Energy=                    0.217960
 Thermal correction to Enthalpy=                  0.218904
 Thermal correction to Gibbs Free Energy=         0.165980
 Sum of electronic and zero-point Energies=           -513.832484
 Sum of electronic and thermal Energies=              -513.820811
 Sum of electronic and thermal Enthalpies=            -513.819867
 Sum of electronic and thermal Free Energies=         -513.872791

                     E (Thermal)             CV                S
                      KCal/Mol        Cal/Mol-Kelvin    Cal/Mol-Kelvin
 Total                  136.772             41.188            111.388
 Electronic               0.000              0.000              0.000
 Translational            0.889              2.981             41.026
 Rotational               0.889              2.981             30.594
 Vibrational            134.995             35.227             39.768
 Vibration     1          0.593              1.986              6.732
 Vibration     2          0.594              1.982              5.390
 Vibration     3          0.594              1.981              5.332
 Vibration     4          0.599              1.965              3.973
 Vibration     5          0.616              1.910              2.762
 Vibration     6          0.623              1.887              2.503
 Vibration     7          0.643              1.823              2.031
 Vibration     8          0.661              1.769              1.757
 Vibration     9          0.694              1.669              1.402
 Vibration    10          0.696              1.662              1.384
 Vibration    11          0.755              1.498              1.012
 Vibration    12          0.773              1.452              0.932
 Vibration    13          0.812              1.353              0.785
 Vibration    14          0.851              1.261              0.670

 Optimization completed.
    -- Stationary point found.
 Normal termination of Gaussian 16 at Tue Dec  8 19:28:36 2020.

 ----------------------------------------------------------------------
 # B3LYP/6-311++G(d,p) empiricaldispersion=gd3bj scf=xqc pop=npa geom=c
 heck
 ----------------------------------------------------------------------

 --------------------------------------
 CID_13230240_JID_1185_Energie_neutraal
 --------------------------------------
 Structure from the checkpoint file:  "JID_1185.chk"
 Charge =  0 Multiplicity = 1

 SCF Done:  E(RB3LYP) =  -514.182407404     A.U. after   14 cycles
 Normal termination of Gaussian 16 at Tue Dec  8 19:30:43 2020.

 ----------------------------------------------------------------------
 # B3LYP/6-311++G(d,p) empiricaldispersion=gd3bj scf=xqc pop=npa geom=c
 heck
 ----------------------------------------------------------------------

 ------------------------------------
 CID_13230240_JID_1185_Energie_kation
 ------------------------------------
 Structure from the checkpoint file:  "JID_1185.chk"
 Charge =  1 Multiplicity = 2

 SCF Done:  E(UB3LYP) =  -513.846256408     A.U. after   32 cycles
 Normal termination of Gaussian 16 at Tue Dec  8 19:37:15 2020.
 Gaussian 16:  ES64L-G16RevA.03 25-Dec-2016

 ----------------------------------------------------------------------
 # B3LYP/6-311++G(d,p) empiricaldispersion=gd3bj scf=xqc pop=npa geom=c
 heck
 ----------------------------------------------------------------------

 -----------------------------------
 CID_13230240_JID_1185_Energie_anion
 -----------------------------------
 Structure from the checkpoint file:  "JID_1185.chk"
 Charge = -1 Multiplicity = 2

                         Standard orientation:
 ---------------------------------------------------------------------
 Center     Atomic      Atomic             Coordinates (Angstroms)
 Number     Number       Type             X           Y           Z
 ---------------------------------------------------------------------
      1          6           0        3.111159    1.634540   -0.537029
      2          6           0        3.038509    0.429180    0.399270
      3          7           0        1.765797   -0.272187    0.290790
      4          6           0        0.566414    0.030091    0.845883
      5          6           0       -0.305028   -0.909079    0.331387
      6          7           0        0.403764   -1.721917   -0.511348
      7          7           0        1.649068   -1.337964   -0.538059
      8          6           0       -1.776063   -1.079432    0.557057
      9          8           0       -2.588529   -0.576036   -0.498370
     10          6           0       -2.458291    0.813773   -0.763178
     11          6           0       -2.996385    1.708172    0.352370
     12          1           0        2.973042    1.315994   -1.574379
     13          1           0        4.087405    2.122448   -0.447859
     14          1           0        2.336051    2.369110   -0.294686
     15          1           0        3.807399   -0.306396    0.153315
     16          1           0        3.172561    0.726805    1.444000
     17          1           0        0.435054    0.845443    1.541062
     18          1           0       -2.012625   -2.145044    0.604964
     19          1           0       -2.052307   -0.626016    1.520128
     20          1           0       -1.410374    1.067405   -0.982431
     21          1           0       -3.033447    0.974278   -1.680261
     22          1           0       -2.398604    1.632204    1.267656
     23          1           0       -2.979756    2.757005    0.034345
     24          1           0       -4.028470    1.436055    0.596865
 ---------------------------------------------------------------------

 SCF Done:  E(UB3LYP) =  -514.173835935     A.U. after   29 cycles

 The electronic state is 2-A.
 Alpha  occ. eigenvalues --  -19.02728 -14.29872 -14.26414 -14.22960 -10.12671
 Alpha  occ. eigenvalues --  -10.11851 -10.11834 -10.11082 -10.09635 -10.06806
 Alpha  occ. eigenvalues --  -10.06542  -0.99451  -0.93799  -0.81685  -0.71425
 Alpha  occ. eigenvalues --   -0.67487  -0.66010  -0.60474  -0.56367  -0.52957
 Alpha  occ. eigenvalues --   -0.49871  -0.47797  -0.42348  -0.40036  -0.39183
 Alpha  occ. eigenvalues --   -0.37593  -0.36383  -0.35009  -0.34573  -0.32396
 Alpha  occ. eigenvalues --   -0.30420  -0.29679  -0.28846  -0.28260  -0.26630
 Alpha  occ. eigenvalues --   -0.26307  -0.23442  -0.21650  -0.19036  -0.17237
 Alpha  occ. eigenvalues --   -0.16621  -0.16035   0.04318
 Alpha virt. eigenvalues --    0.06736   0.07690   0.08546   0.09091   0.09397
 Alpha virt. eigenvalues --    0.09685   0.10315   0.11134   0.11709   0.12023
 Alpha virt. eigenvalues --    0.12574   0.13354   0.14054   0.14605   0.15058

  Beta  occ. eigenvalues --  -19.02728 -14.29865 -14.26377 -14.22953 -10.12662
  Beta  occ. eigenvalues --  -10.11826 -10.11815 -10.11027 -10.09637 -10.06757
  Beta  occ. eigenvalues --  -10.06507  -0.99414  -0.93796  -0.81649  -0.71376
  Beta  occ. eigenvalues --   -0.67432  -0.65972  -0.60434  -0.56278  -0.52917
  Beta  occ. eigenvalues --   -0.49796  -0.47746  -0.42264  -0.40016  -0.39141
  Beta  occ. eigenvalues --   -0.37523  -0.36340  -0.34945  -0.34523  -0.32360
  Beta  occ. eigenvalues --   -0.30367  -0.29618  -0.28800  -0.28197  -0.26592
  Beta  occ. eigenvalues --   -0.26272  -0.23404  -0.21637  -0.18955  -0.17209
  Beta  occ. eigenvalues --   -0.16608  -0.15925
  Beta virt. eigenvalues --    0.06958   0.07693   0.08264   0.09246   0.09309
  Beta virt. eigenvalues --    0.09949   0.10015   0.10891   0.11503   0.12061
  Beta virt. eigenvalues --    0.12401   0.13209   0.13620   0.14374   0.14727

 Mulliken charges and spin densities:
               1          2
     1  C    1.283385  -1.724819
     2  C   -0.105346  -0.097497
     3  N    0.246790   0.095909
     4  C   -0.286353  -0.188758
     5  C    0.611066  -0.366603
     6  N   -0.078571  -0.031761
     7  N   -0.218994   0.115030
     8  C    0.445218  -1.007844
     9  O   -0.085748   0.013099
    10  C   -0.758680   0.455720
    11  C    0.645495  -1.025244
    12  H    0.031238   0.116018
    13  H   -0.538306   0.682417
    14  H   -0.400821   0.564600
    15  H   -0.132589   0.301098
    16  H   -0.587595   0.762166
    17  H   -1.042371   1.257765
    18  H    0.177067  -0.015165
    19  H   -0.025805   0.192524
    20  H    0.345362  -0.194171
    21  H   -0.054617   0.209134
    22  H   -0.211187   0.350688
    23  H   -0.322344   0.452109
    24  H    0.063708   0.083585
 Sum of Mulliken charges =  -1.00000   1.00000

 Dipole moment (field-independent basis, Debye):
    X=             -4.2329    Y=             -4.1736    Z=             -2.6221  Tot=              6.4971
 Quadrupole moment (field-independent basis, Debye-Ang):
   XX=           -129.0232   YY=           -114.8998   ZZ=           -101.0235
   XY=             -8.1529   XZ=             -5.5719   YZ=            -13.4235

 Summary of Natural Population Analysis:

                                       Natural Population
                Natural  -----------------------------------------------
    Atom  No    Charge         Core      Valence    Rydberg      Total
 -----------------------------------------------------------------------
      C    1   -0.28792      0.99966     2.28311    0.00514     3.28792
      C    2   -0.08599      0.99961     2.07447    0.01191     3.08599
      N    3   -0.10344      0.99966     2.58907    0.01470     3.60344
      C    4   -0.01234      0.99947     2.00009    0.01278     3.01234
      C    5    0.01654      0.99956     1.96946    0.01444     2.98346
      N    6   -0.13827      0.99972     2.62498    0.01357     3.63827
      N    7   -0.04122      0.99978     2.52697    0.01447     3.54122
      C    8   -0.02625      0.99953     2.01271    0.01401     3.02625
      O    9   -0.29699      0.99989     3.28844    0.00866     4.29699
      C   10   -0.01352      0.99959     2.00124    0.01269     3.01352
      C   11   -0.30261      0.99967     2.29805    0.00489     3.30261
      H   12    0.09966      0.00000     0.39929    0.00104     0.40034
      H   13    0.10591      0.00000     0.39173    0.00236     0.39409
      H   14    0.10374      0.00000     0.39437    0.00189     0.39626
      H   15    0.10512      0.00000     0.39311    0.00177     0.39488
      H   16    0.10691      0.00000     0.38816    0.00492     0.39309
      H   17    0.11774      0.00000     0.37826    0.00400     0.38226
      H   18    0.09825      0.00000     0.40052    0.00123     0.40175
      H   19    0.08608      0.00000     0.41262    0.00129     0.41392
      H   20    0.08264      0.00000     0.41574    0.00161     0.41736
      H   21    0.08603      0.00000     0.41272    0.00124     0.41397
      H   22    0.09984      0.00000     0.39834    0.00182     0.40016
      H   23    0.10301      0.00000     0.39576    0.00123     0.39699
      H   24    0.09706      0.00000     0.40187    0.00107     0.40294
 =======================================================================
   * Total *    0.00000     10.99614    30.85111    0.15274    42.00000

 Normal termination of Gaussian 16 at Tue Dec  8 19:43:16 2020.
