 Gaussian 16, Revision A.03,

 -----------------------------------------------------------
 # opt freq B3LYP/6-31G(d) empiricaldispersion=gd3bj scf=xqc
 -----------------------------------------------------------

 -------------------------------
 CID_116932878_JID_5218_neutraal
 -------------------------------
 Symbolic Z-matrix:
 Charge =  0 Multiplicity = 1

 SCF Done:  E(RB3LYP) =  -618.185475620     A.U. after   13 cycles
 SCF Done:  E(RB3LYP) =  -618.188750648     A.U. after   12 cycles
 SCF Done:  E(RB3LYP) =  -618.190929183     A.U. after   12 cycles
 SCF Done:  E(RB3LYP) =  -618.182088205     A.U. after   14 cycles
 SCF Done:  E(RB3LYP) =  -618.192648302     A.U. after   13 cycles
 SCF Done:  E(RB3LYP) =  -618.194505556     A.U. after   11 cycles
 SCF Done:  E(RB3LYP) =  -618.195052146     A.U. after   12 cycles
 SCF Done:  E(RB3LYP) =  -618.195609247     A.U. after   11 cycles
 SCF Done:  E(RB3LYP) =  -618.195820592     A.U. after   11 cycles
 SCF Done:  E(RB3LYP) =  -618.195873737     A.U. after   11 cycles
 SCF Done:  E(RB3LYP) =  -618.195899423     A.U. after    8 cycles
 SCF Done:  E(RB3LYP) =  -618.195899659     A.U. after    7 cycles
 SCF Done:  E(RB3LYP) =  -618.195899847     A.U. after    7 cycles
 SCF Done:  E(RB3LYP) =  -618.195899903     A.U. after    7 cycles
 SCF Done:  E(RB3LYP) =  -618.195899916     A.U. after    6 cycles
 Optimization completed.
    -- Stationary point found.
 Normal termination of Gaussian 16 at Thu Dec 10 14:58:54 2020.

 --------------------------------------------------------------------
 #N Geom=AllCheck Guess=TCheck SCRF=Check GenChk RB3LYP/6-31G(d) Freq
 --------------------------------------------------------------------

 Structure from the checkpoint file:  "JID_5218.chk"
 -------------------------------
 CID_116932878_JID_5218_neutraal
 -------------------------------
 Charge =  0 Multiplicity = 1

 SCF Done:  E(RB3LYP) =  -618.195899916     A.U. after    1 cycles

  Exact polarizability: 188.046 -15.969 121.815  -0.819   3.002 137.253
 Approx polarizability: 244.080 -29.936 165.890   0.891   5.661 234.963

                      1                      2                      3
                      A                      A                      A
 Frequencies --     25.2871                39.1379                49.5508
 Red. masses --      2.9213                 3.5712                 3.2590
 Frc consts  --      0.0011                 0.0032                 0.0047
 IR Inten    --      0.0372                 0.1946                 0.1776

                      4                      5                      6
                      A                      A                      A
 Frequencies --     88.6329               123.4398               132.0299
 Red. masses --      3.2803                 2.0922                 2.9533
 Frc consts  --      0.0152                 0.0188                 0.0303
 IR Inten    --      2.3909                 4.3631                 0.2613

                      7                      8                      9
                      A                      A                      A
 Frequencies --    148.7608               178.6137               216.9205
 Red. masses --      3.2137                 2.7688                 2.2687
 Frc consts  --      0.0419                 0.0520                 0.0629
 IR Inten    --      1.0134                 1.3029                 0.6774

                     10                     11                     12
                      A                      A                      A
 Frequencies --    238.5869               241.6768               256.1887
 Red. masses --      1.1188                 2.1250                 1.7406
 Frc consts  --      0.0375                 0.0731                 0.0673
 IR Inten    --      0.2277                 1.8037                 1.6780

                     13                     14                     15
                      A                      A                      A
 Frequencies --    265.7037               290.6586               301.1723
 Red. masses --      1.2479                 1.8566                 2.9202
 Frc consts  --      0.0519                 0.0924                 0.1561
 IR Inten    --      0.0054                 9.2801                 0.6791

                     16                     17                     18
                      A                      A                      A
 Frequencies --    346.8411               358.6298               385.7288
 Red. masses --      1.7902                 1.4764                 3.2301
 Frc consts  --      0.1269                 0.1119                 0.2832
 IR Inten    --     16.9777                44.5090                 1.1963

                     19                     20                     21
                      A                      A                      A
 Frequencies --    421.7975               436.3303               455.5746
 Red. masses --      3.0851                 3.3345                 2.9920
 Frc consts  --      0.3234                 0.3740                 0.3659
 IR Inten    --      0.2894                 1.8325                 0.3488

                     22                     23                     24
                      A                      A                      A
 Frequencies --    478.1430               552.6657               559.8369
 Red. masses --      3.1713                 2.8012                 2.7079
 Frc consts  --      0.4272                 0.5041                 0.5000
 IR Inten    --      2.2133                 2.9832                11.1927

                     25                     26                     27
                      A                      A                      A
 Frequencies --    637.7807               659.0957               706.0785
 Red. masses --      2.6428                 6.5724                 2.6425
 Frc consts  --      0.6334                 1.6822                 0.7762
 IR Inten    --      1.8085                 0.1212                 3.9933

                     28                     29                     30
                      A                      A                      A
 Frequencies --    772.9724               790.8063               824.6726
 Red. masses --      3.6099                 3.2270                 2.3242
 Frc consts  --      1.2708                 1.1890                 0.9313
 IR Inten    --      0.8377                 3.0243                25.8442

                     31                     32                     33
                      A                      A                      A
 Frequencies --    854.9320               872.0743               881.2268
 Red. masses --      1.4800                 1.3336                 1.5733
 Frc consts  --      0.6374                 0.5976                 0.7198
 IR Inten    --     15.2369                10.6813                42.7910

                     34                     35                     36
                      A                      A                      A
 Frequencies --    891.1614               908.6241               942.5752
 Red. masses --      2.0277                 2.5548                 1.1737
 Frc consts  --      0.9488                 1.2427                 0.6144
 IR Inten    --      3.5051                 1.7973                 1.1137

                     37                     38                     39
                      A                      A                      A
 Frequencies --    964.7231               975.0417               975.2786
 Red. masses --      1.3512                 1.6326                 1.7375
 Frc consts  --      0.7409                 0.9145                 0.9737
 IR Inten    --      0.2171                18.9623                30.5293

                     40                     41                     42
                      A                      A                      A
 Frequencies --    987.3845               998.1358              1041.9597
 Red. masses --      1.3154                 1.5950                 2.4206
 Frc consts  --      0.7556                 0.9363                 1.5484
 IR Inten    --      9.2448               103.2562                 8.5230

                     43                     44                     45
                      A                      A                      A
 Frequencies --   1042.7634              1075.2762              1084.4573
 Red. masses --      1.5885                 2.4078                 1.6142
 Frc consts  --      1.0177                 1.6402                 1.1185
 IR Inten    --     12.9736                10.6051                13.7755

                     46                     47                     48
                      A                      A                      A
 Frequencies --   1119.0568              1135.9837              1141.1680
 Red. masses --      1.6585                 2.3011                 1.4789
 Frc consts  --      1.2237                 1.7496                 1.1348
 IR Inten    --      3.7833                 0.7305                 1.9572

                     49                     50                     51
                      A                      A                      A
 Frequencies --   1148.4076              1169.8573              1180.6274
 Red. masses --      2.2251                 1.5691                 1.7093
 Frc consts  --      1.7290                 1.2652                 1.4037
 IR Inten    --     28.0681                 8.9722                 8.8704

                     52                     53                     54
                      A                      A                      A
 Frequencies --   1190.6874              1216.4689              1225.5942
 Red. masses --      1.7782                 1.2843                 1.4643
 Frc consts  --      1.4854                 1.1197                 1.2959
 IR Inten    --      1.8246                 6.5725                 8.6279

                     55                     56                     57
                      A                      A                      A
 Frequencies --   1231.7271              1249.8985              1287.6088
 Red. masses --      1.6143                 2.0017                 1.4035
 Frc consts  --      1.4430                 1.8425                 1.3710
 IR Inten    --      4.8954                 1.5212                 1.5206

                     58                     59                     60
                      A                      A                      A
 Frequencies --   1319.1125              1330.3929              1341.6427
 Red. masses --      1.7710                 2.0746                 1.2401
 Frc consts  --      1.8156                 2.1635                 1.3152
 IR Inten    --     25.1693                 2.2271                 2.6274

                     61                     62                     63
                      A                      A                      A
 Frequencies --   1352.0103              1363.8666              1393.6984
 Red. masses --      2.0339                 1.3239                 1.5601
 Frc consts  --      2.1905                 1.4510                 1.7854
 IR Inten    --      1.7587                 2.9189                11.7234

                     64                     65                     66
                      A                      A                      A
 Frequencies --   1396.8412              1425.8745              1425.8868
 Red. masses --      1.5445                 1.3049                 1.2397
 Frc consts  --      1.7755                 1.5632                 1.4851
 IR Inten    --      5.1438                 7.9248                 2.0249

                     67                     68                     69
                      A                      A                      A
 Frequencies --   1443.1391              1446.6356              1466.2365
 Red. masses --      1.3649                 1.2505                 2.2669
 Frc consts  --      1.6749                 1.5419                 2.8714
 IR Inten    --     14.4149                 4.5483                12.6940

                     70                     71                     72
                      A                      A                      A
 Frequencies --   1483.4058              1508.5504              1517.0509
 Red. masses --      1.1845                 1.1248                 1.1217
 Frc consts  --      1.5358                 1.5082                 1.5210
 IR Inten    --      1.9229                 5.3412                19.5439

                     73                     74                     75
                      A                      A                      A
 Frequencies --   1517.4791              1521.3913              1522.4166
 Red. masses --      1.0469                 1.0487                 1.0691
 Frc consts  --      1.4204                 1.4302                 1.4599
 IR Inten    --      0.5164                 1.9906                 2.9026

                     76                     77                     78
                      A                      A                      A
 Frequencies --   1532.6383              1537.1745              1537.7580
 Red. masses --      1.0488                 1.0950                 1.0812
 Frc consts  --      1.4516                 1.5245                 1.5064
 IR Inten    --      8.5930                 8.4275                 7.0596

                     79                     80                     81
                      A                      A                      A
 Frequencies --   1546.3054              1563.2311              1628.6127
 Red. masses --      1.0499                 2.3305                 6.2042
 Frc consts  --      1.4791                 3.3554                 9.6956
 IR Inten    --      7.7607                20.4901                 0.4480

                     82                     83                     84
                      A                      A                      A
 Frequencies --   1675.8741              1720.4200              2964.0536
 Red. masses --      5.7314                 1.0840                 1.0592
 Frc consts  --      9.4841                 1.8904                 5.4830
 IR Inten    --      0.3911                21.3667                71.1788

                     85                     86                     87
                      A                      A                      A
 Frequencies --   2979.1770              3025.6600              3032.9653
 Red. masses --      1.0714                 1.0802                 1.0843
 Frc consts  --      5.6028                 5.8263                 5.8765
 IR Inten    --     61.9004                16.0520                17.1444

                     88                     89                     90
                      A                      A                      A
 Frequencies --   3043.2300              3043.4342              3047.7238
 Red. masses --      1.0662                 1.0349                 1.0353
 Frc consts  --      5.8177                 5.6479                 5.6661
 IR Inten    --     46.6106                30.5076                33.6873

                     91                     92                     93
                      A                      A                      A
 Frequencies --   3066.6358              3077.1014              3081.0532
 Red. masses --      1.0898                 1.0748                 1.1028
 Frc consts  --      6.0383                 5.9962                 6.1680
 IR Inten    --     38.2337                46.0938                69.2560

                     94                     95                     96
                      A                      A                      A
 Frequencies --   3107.4726              3113.9167              3120.0691
 Red. masses --      1.1026                 1.1017                 1.1027
 Frc consts  --      6.2730                 6.2941                 6.3245
 IR Inten    --      0.0180                88.2808                26.1515

                     97                     98                     99
                      A                      A                      A
 Frequencies --   3122.6480              3122.7816              3172.6265
 Red. masses --      1.1023                 1.1028                 1.0882
 Frc consts  --      6.3330                 6.3363                 6.4532
 IR Inten    --     27.2761                33.9409                30.6016

                    100                    101                    102
                      A                      A                      A
 Frequencies --   3173.9036              3191.7279              3222.3278
 Red. masses --      1.0868                 1.0936                 1.0910
 Frc consts  --      6.4505                 6.5637                 6.6743
 IR Inten    --      6.5137                23.0452                 2.3613

                    103                    104                    105
                      A                      A                      A
 Frequencies --   3443.6606              3476.0137              3538.2734
 Red. masses --      1.0533                 1.0737                 1.0889
 Frc consts  --      7.3591                 7.6439                 8.0320
 IR Inten    --     31.1095                 8.7558                10.9959

 - Thermochemistry -
 -------------------
 Temperature   298.150 Kelvin.  Pressure   1.00000 Atm.
 Atom     1 has atomic number  6 and mass  12.00000

 Molecular mass:   206.17830 amu.
 Principal axes and moments of inertia in atomic units:
                           1         2         3
     Eigenvalues --  1791.057715745.899386342.52817
           X            1.00000   0.00100   0.00023
           Y           -0.00101   0.99991   0.01320
           Z           -0.00021  -0.01321   0.99991
 This molecule is an asymmetric top.
 Rotational symmetry number  1.
 Warning -- assumption of classical behavior for rotation
           may cause significant error
 Rotational temperatures (Kelvin)      0.04836     0.01507     0.01366
 Rotational constants (GHZ):           1.00764     0.31409     0.28455
 Zero-point vibrational energy     882007.4 (Joules/Mol)
                                  210.80482 (Kcal/Mol)
 Warning -- explicit consideration of  24 degrees of freedom as
           vibrations may cause significant error
 Vibrational temperatures:     36.38    56.31    71.29   127.52   177.60
          (Kelvin)            189.96   214.03   256.99   312.10   343.27
                              347.72   368.60   382.29   418.19   433.32
                              499.03   515.99   554.98   606.87   627.78
                              655.47   687.94   795.16   805.48   917.62
                              948.29  1015.89  1112.13  1137.79  1186.52
                             1230.06  1254.72  1267.89  1282.18  1307.31
                             1356.16  1388.02  1402.87  1403.21  1420.63
                             1436.09  1499.15  1500.30  1547.08  1560.29
                             1610.07  1634.43  1641.89  1652.30  1683.16
                             1698.66  1713.13  1750.23  1763.36  1772.18
                             1798.33  1852.58  1897.91  1914.14  1930.32
                             1945.24  1962.30  2005.22  2009.74  2051.52
                             2051.53  2076.36  2081.39  2109.59  2134.29
                             2170.47  2182.70  2183.31  2188.94  2190.42
                             2205.12  2211.65  2212.49  2224.79  2249.14
                             2343.21  2411.21  2475.30  4264.61  4286.37
                             4353.25  4363.76  4378.53  4378.82  4384.99
                             4412.20  4427.26  4432.95  4470.96  4480.23
                             4489.08  4492.79  4492.99  4564.70  4566.54
                             4592.18  4636.21  4954.66  5001.21  5090.79

 Zero-point correction=                           0.335939 (Hartree/Particle)
 Thermal correction to Energy=                    0.352154
 Thermal correction to Enthalpy=                  0.353098
 Thermal correction to Gibbs Free Energy=         0.291791
 Sum of electronic and zero-point Energies=           -617.859961
 Sum of electronic and thermal Energies=              -617.843746
 Sum of electronic and thermal Enthalpies=            -617.842802
 Sum of electronic and thermal Free Energies=         -617.904109

                     E (Thermal)             CV                S
                      KCal/Mol        Cal/Mol-Kelvin    Cal/Mol-Kelvin
 Total                  220.980             61.803            129.032
 Electronic               0.000              0.000              0.000
 Translational            0.889              2.981             41.875
 Rotational               0.889              2.981             32.545
 Vibrational            219.202             55.841             54.612
 Vibration     1          0.593              1.985              6.169
 Vibration     2          0.594              1.981              5.302
 Vibration     3          0.595              1.978              4.835
 Vibration     4          0.601              1.957              3.690
 Vibration     5          0.610              1.929              3.046
 Vibration     6          0.612              1.921              2.916
 Vibration     7          0.618              1.904              2.688
 Vibration     8          0.629              1.869              2.343
 Vibration     9          0.646              1.815              1.985
 Vibration    10          0.657              1.782              1.813
 Vibration    11          0.658              1.776              1.791
 Vibration    12          0.666              1.752              1.688
 Vibration    13          0.672              1.736              1.624
 Vibration    14          0.687              1.691              1.470
 Vibration    15          0.693              1.671              1.410
 Vibration    16          0.725              1.582              1.181
 Vibration    17          0.733              1.558              1.128
 Vibration    18          0.754              1.501              1.017
 Vibration    19          0.784              1.423              0.886
 Vibration    20          0.797              1.391              0.838
 Vibration    21          0.814              1.349              0.779
 Vibration    22          0.835              1.299              0.715
 Vibration    23          0.908              1.134              0.539
 Vibration    24          0.915              1.118              0.524

 Optimization completed.
    -- Stationary point found.
 Normal termination of Gaussian 16 at Thu Dec 10 15:12:43 2020.

 ----------------------------------------------------------------------
 # B3LYP/6-311++G(d,p) empiricaldispersion=gd3bj scf=xqc pop=npa geom=c
 heck
 ----------------------------------------------------------------------

 ---------------------------------------
 CID_116932878_JID_5218_Energie_neutraal
 ---------------------------------------
 Structure from the checkpoint file:  "JID_5218.chk"
 Charge =  0 Multiplicity = 1

 SCF Done:  E(RB3LYP) =  -618.371777542     A.U. after   16 cycles
 Normal termination of Gaussian 16 at Thu Dec 10 15:20:21 2020.

 ----------------------------------------------------------------------
 # B3LYP/6-311++G(d,p) empiricaldispersion=gd3bj scf=xqc pop=npa geom=c
 heck
 ----------------------------------------------------------------------

 -------------------------------------
 CID_116932878_JID_5218_Energie_kation
 -------------------------------------
 Structure from the checkpoint file:  "JID_5218.chk"
 Charge =  1 Multiplicity = 2

 SCF Done:  E(UB3LYP) =  -618.082933585     A.U. after   25 cycles
 Normal termination of Gaussian 16 at Thu Dec 10 15:37:40 2020.
 Gaussian 16:  ES64L-G16RevA.03 25-Dec-2016

 ----------------------------------------------------------------------
 # B3LYP/6-311++G(d,p) empiricaldispersion=gd3bj scf=xqc pop=npa geom=c
 heck
 ----------------------------------------------------------------------

 ------------------------------------
 CID_116932878_JID_5218_Energie_anion
 ------------------------------------
 Structure from the checkpoint file:  "JID_5218.chk"
 Charge = -1 Multiplicity = 2

                         Standard orientation:
 ---------------------------------------------------------------------
 Center     Atomic      Atomic             Coordinates (Angstroms)
 Number     Number       Type             X           Y           Z
 ---------------------------------------------------------------------
      1          6           0       -3.706712    1.772263   -0.297223
      2          6           0       -3.534241    0.399624    0.374834
      3          6           0       -4.559277   -0.611391   -0.165733
      4          6           0       -2.112231   -0.114936    0.234909
      5          6           0       -1.311139   -0.333020    1.357945
      6          6           0       -0.001335   -0.803760    1.238971
      7          6           0        0.554354   -1.062005   -0.016822
      8          6           0       -0.250556   -0.852106   -1.146555
      9          6           0       -1.557132   -0.390551   -1.023185
     10          6           0        1.992156   -1.551049   -0.171126
     11          6           0        2.787230   -0.694865   -1.196424
     12          6           0        2.661010    0.826358   -1.024945
     13          7           0        2.765351    1.255154    0.375394
     14          6           0        2.966532    2.695758    0.503417
     15          7           0        2.665701   -1.650728    1.134486
     16          1           0       -3.535608    1.705454   -1.378036
     17          1           0       -2.997179    2.501289    0.108422
     18          1           0       -4.721908    2.156284   -0.142834
     19          1           0       -3.728689    0.528242    1.448092
     20          1           0       -4.424951   -0.771751   -1.241871
     21          1           0       -4.455169   -1.581371    0.331654
     22          1           0       -5.582127   -0.249995   -0.007293
     23          1           0       -1.719576   -0.137638    2.347267
     24          1           0        0.602338   -0.995101    2.119430
     25          1           0        0.147506   -1.055430   -2.137634
     26          1           0       -2.152669   -0.240843   -1.920268
     27          1           0        1.944947   -2.572559   -0.572675
     28          1           0        3.840577   -0.988030   -1.106965
     29          1           0        2.480330   -0.944322   -2.220515
     30          1           0        3.475207    1.306773   -1.581356
     31          1           0        1.720641    1.177167   -1.483466
     32          1           0        1.885166    1.018552    0.832817
     33          1           0        2.218010    3.303547   -0.036938
     34          1           0        2.935714    2.975382    1.561306
     35          1           0        3.955729    2.961811    0.113484
     36          1           0        3.462724   -2.276602    1.036193
     37          1           0        3.059661   -0.733755    1.353650
 ---------------------------------------------------------------------

 SCF Done:  E(UB3LYP) =  -618.357640139     A.U. after   33 cycles
 SCF Done:  E(UB3LYP) =  -618.357640139     a.u. after    1 cycles

 The electronic state is 2-A.
 Alpha  occ. eigenvalues --  -14.20645 -14.18995 -10.10768 -10.09586 -10.09514
 Alpha  occ. eigenvalues --  -10.08609 -10.08052 -10.08008 -10.07479 -10.07443
 Alpha  occ. eigenvalues --  -10.07423 -10.07002 -10.06982 -10.06735 -10.06465
 Alpha  occ. eigenvalues --   -0.81679  -0.79084  -0.76059  -0.70896  -0.66822
 Alpha  occ. eigenvalues --   -0.64653  -0.63772  -0.59190  -0.58496  -0.55120
 Alpha  occ. eigenvalues --   -0.51665  -0.51151  -0.48178  -0.46269  -0.41961
 Alpha  occ. eigenvalues --   -0.39886  -0.39281  -0.37306  -0.35725  -0.35271
 Alpha  occ. eigenvalues --   -0.34860  -0.33686  -0.33199  -0.32531  -0.32211
 Alpha  occ. eigenvalues --   -0.31639  -0.30791  -0.29739  -0.29461  -0.28636
 Alpha  occ. eigenvalues --   -0.27280  -0.26229  -0.25501  -0.24934  -0.24769
 Alpha  occ. eigenvalues --   -0.23497  -0.23042  -0.22613  -0.15887  -0.15400
 Alpha  occ. eigenvalues --   -0.14191  -0.13411   0.04177
 Alpha virt. eigenvalues --    0.05759   0.06378   0.07188   0.07732   0.08145
 Alpha virt. eigenvalues --    0.08235   0.08354   0.08610   0.09290   0.09715
 Alpha virt. eigenvalues --    0.10381   0.10515   0.10871   0.11465   0.11900

  Beta  occ. eigenvalues --  -14.20633 -14.18983 -10.10761 -10.09564 -10.09499
  Beta  occ. eigenvalues --  -10.08602 -10.08045 -10.08001 -10.07466 -10.07437
  Beta  occ. eigenvalues --  -10.07410 -10.06996 -10.06960 -10.06715 -10.06434
  Beta  occ. eigenvalues --   -0.81659  -0.79059  -0.76037  -0.70869  -0.66787
  Beta  occ. eigenvalues --   -0.64625  -0.63741  -0.59138  -0.58451  -0.55073
  Beta  occ. eigenvalues --   -0.51621  -0.51112  -0.48133  -0.46236  -0.41923
  Beta  occ. eigenvalues --   -0.39849  -0.39258  -0.37272  -0.35693  -0.35240
  Beta  occ. eigenvalues --   -0.34831  -0.33655  -0.33168  -0.32505  -0.32171
  Beta  occ. eigenvalues --   -0.31611  -0.30749  -0.29709  -0.29433  -0.28603
  Beta  occ. eigenvalues --   -0.27250  -0.26197  -0.25469  -0.24905  -0.24737
  Beta  occ. eigenvalues --   -0.23464  -0.23011  -0.22585  -0.15856  -0.15375
  Beta  occ. eigenvalues --   -0.14152  -0.13375
  Beta virt. eigenvalues --    0.06108   0.06638   0.06873   0.07656   0.08063
  Beta virt. eigenvalues --    0.08426   0.08506   0.08730   0.08809   0.09705
  Beta virt. eigenvalues --    0.10081   0.10745   0.10806   0.11166   0.11605

 Mulliken charges and spin densities:
               1          2
     1  C    0.683973  -1.363843
     2  C   -1.686398   1.759970
     3  C    0.285334  -0.967689
     4  C    2.091794  -1.400524
     5  C   -0.625770   0.339452
     6  C   -0.343500   0.026839
     7  C    1.368040  -0.749477
     8  C   -0.752661   0.360815
     9  C   -0.406103  -0.054103
    10  C   -0.125312  -0.440201
    11  C    0.430350  -0.790396
    12  C    0.063969  -0.524323
    13  N   -0.305069   0.125276
    14  C    0.263158  -0.602635
    15  N   -0.255850  -0.120539
    16  H   -0.100397   0.248351
    17  H   -0.058315   0.194504
    18  H   -0.288805   0.436725
    19  H   -0.101651   0.276655
    20  H   -0.017232   0.164884
    21  H    0.051573   0.080322
    22  H   -0.260685   0.406162
    23  H   -0.108307   0.258631
    24  H    0.094188   0.130148
    25  H   -0.396457   0.540400
    26  H   -0.227020   0.396796
    27  H   -0.170533   0.392921
    28  H   -0.192689   0.365131
    29  H   -0.298822   0.450411
    30  H   -0.167409   0.332576
    31  H    0.219875  -0.090242
    32  H    0.397259  -0.131208
    33  H   -0.067873   0.196020
    34  H   -0.122654   0.243163
    35  H   -0.159120   0.296542
    36  H    0.081302   0.160720
    37  H    0.207816   0.051766
 Sum of Mulliken charges =  -1.00000   1.00000

 Dipole moment (field-independent basis, Debye):
    X=              0.8194    Y=             -0.5764    Z=              1.9771  Tot=              2.2164
 Quadrupole moment (field-independent basis, Debye-Ang):
   XX=           -186.3289   YY=           -140.4720   ZZ=           -132.5235
   XY=              6.2795   XZ=              2.2185   YZ=             -0.9007

 Summary of Natural Population Analysis:

                                       Natural Population
                Natural  -----------------------------------------------
    Atom  No    Charge         Core      Valence    Rydberg      Total
 -----------------------------------------------------------------------
      C    1   -0.28043      0.99965     2.27505    0.00573     3.28043
      C    2   -0.11976      0.99958     2.10913    0.01104     3.11976
      C    3   -0.27845      0.99965     2.27422    0.00458     3.27845
      C    4   -0.01214      0.99949     2.00142    0.01123     3.01214
      C    5   -0.09757      0.99950     2.08954    0.00853     3.09757
      C    6   -0.10717      0.99950     2.09873    0.00894     3.10717
      C    7   -0.02328      0.99949     2.01147    0.01233     3.02328
      C    8   -0.09733      0.99951     2.08824    0.00958     3.09733
      C    9   -0.09844      0.99951     2.08991    0.00902     3.09844
      C   10   -0.02178      0.99956     2.00831    0.01391     3.02178
      C   11   -0.19555      0.99961     2.18604    0.00989     3.19555
      C   12   -0.08972      0.99962     2.07850    0.01160     3.08972
      N   13   -0.35097      0.99975     2.84077    0.01046     3.85097
      C   14   -0.17348      0.99967     2.16725    0.00656     3.17348
      N   15   -0.43087      0.99977     2.92088    0.01022     3.93087
      H   16    0.09726      0.00000     0.40160    0.00114     0.40274
      H   17    0.10157      0.00000     0.39738    0.00105     0.39843
      H   18    0.09872      0.00000     0.40009    0.00118     0.40128
      H   19    0.09443      0.00000     0.40348    0.00209     0.40557
      H   20    0.09719      0.00000     0.40169    0.00113     0.40281
      H   21    0.09984      0.00000     0.39917    0.00099     0.40016
      H   22    0.09805      0.00000     0.40091    0.00103     0.40195
      H   23    0.09783      0.00000     0.40099    0.00118     0.40217
      H   24    0.11295      0.00000     0.38556    0.00149     0.38705
      H   25    0.10129      0.00000     0.39704    0.00167     0.39871
      H   26    0.10039      0.00000     0.39801    0.00159     0.39961
      H   27    0.09978      0.00000     0.39847    0.00176     0.40022
      H   28    0.09872      0.00000     0.39953    0.00175     0.40128
      H   29    0.10142      0.00000     0.39699    0.00159     0.39858
      H   30    0.09375      0.00000     0.40484    0.00141     0.40625
      H   31    0.08529      0.00000     0.41317    0.00154     0.41471
      H   32    0.17673      0.00000     0.31877    0.00450     0.32327
      H   33    0.07999      0.00000     0.41836    0.00165     0.42001
      H   34    0.09306      0.00000     0.40599    0.00095     0.40694
      H   35    0.09031      0.00000     0.40829    0.00141     0.40969
      H   36    0.17416      0.00000     0.32396    0.00188     0.32584
      H   37    0.18421      0.00000     0.31314    0.00264     0.31579
 =======================================================================
   * Total *    0.00000     14.99386    41.82689    0.17925    57.00000

 Normal termination of Gaussian 16 at Thu Dec 10 16:00:33 2020.
