 Gaussian 16, Revision A.03,

 -----------------------------------------------------------
 # opt freq B3LYP/6-31G(d) empiricaldispersion=gd3bj scf=xqc
 -----------------------------------------------------------

 ------------------------------
 CID_10820901_JID_2604_neutraal
 ------------------------------
 Symbolic Z-matrix:
 Charge =  0 Multiplicity = 1

 SCF Done:  E(RB3LYP) =  -484.125924003     A.U. after   14 cycles
 SCF Done:  E(RB3LYP) =  -484.128466972     A.U. after   12 cycles
 SCF Done:  E(RB3LYP) =  -484.126707204     A.U. after   12 cycles
 SCF Done:  E(RB3LYP) =  -484.128736154     A.U. after   12 cycles
 SCF Done:  E(RB3LYP) =  -484.128875924     A.U. after   11 cycles
 SCF Done:  E(RB3LYP) =  -484.128866272     A.U. after   12 cycles
 SCF Done:  E(RB3LYP) =  -484.129018687     A.U. after   11 cycles
 SCF Done:  E(RB3LYP) =  -484.129021040     A.U. after    8 cycles
 SCF Done:  E(RB3LYP) =  -484.129021407     A.U. after    8 cycles
 Optimization completed.
    -- Stationary point found.
 Normal termination of Gaussian 16 at Wed Dec  9 17:54:12 2020.

 --------------------------------------------------------------------
 #N Geom=AllCheck Guess=TCheck SCRF=Check GenChk RB3LYP/6-31G(d) Freq
 --------------------------------------------------------------------

 Structure from the checkpoint file:  "JID_2604.chk"
 ------------------------------
 CID_10820901_JID_2604_neutraal
 ------------------------------
 Charge =  0 Multiplicity = 1

 SCF Done:  E(RB3LYP) =  -484.129021407     A.U. after    1 cycles

  Exact polarizability: 141.348  -7.440 120.592  -7.620   5.873  88.237
 Approx polarizability: 187.911 -18.711 172.074 -16.674  13.842 138.672

                      1                      2                      3
                      A                      A                      A
 Frequencies --     68.1026                91.7830               112.1193
 Red. masses --      3.4292                 2.6823                 3.3150
 Frc consts  --      0.0094                 0.0133                 0.0246
 IR Inten    --      0.0574                 0.7294                 0.2118

                      4                      5                      6
                      A                      A                      A
 Frequencies --    145.1995               194.4730               201.4827
 Red. masses --      3.1116                 1.1167                 1.9547
 Frc consts  --      0.0387                 0.0249                 0.0468
 IR Inten    --      0.0563                 0.2186                 0.1640

                      7                      8                      9
                      A                      A                      A
 Frequencies --    237.6734               246.6475               265.7591
 Red. masses --      1.8723                 2.1028                 1.5788
 Frc consts  --      0.0623                 0.0754                 0.0657
 IR Inten    --      3.8512                 0.7444                 1.6162

                     10                     11                     12
                      A                      A                      A
 Frequencies --    300.3494               319.3224               321.5539
 Red. masses --      1.2509                 3.5018                 2.4753
 Frc consts  --      0.0665                 0.2104                 0.1508
 IR Inten    --     25.2062                 7.0710                 0.7657

                     13                     14                     15
                      A                      A                      A
 Frequencies --    373.7323               404.6164               411.6432
 Red. masses --      2.4045                 3.0076                 3.7759
 Frc consts  --      0.1979                 0.2901                 0.3770
 IR Inten    --      1.8449                 0.2922                 8.9345

                     16                     17                     18
                      A                      A                      A
 Frequencies --    426.5620               493.4436               514.7643
 Red. masses --      3.1697                 2.2679                 3.1956
 Frc consts  --      0.3398                 0.3254                 0.4989
 IR Inten    --      0.5575                 3.4151                 1.9969

                     19                     20                     21
                      A                      A                      A
 Frequencies --    547.5910               567.5148               604.4897
 Red. masses --      3.1368                 4.0597                 1.2142
 Frc consts  --      0.5542                 0.7704                 0.2614
 IR Inten    --      0.9941                 0.9513                48.5227

                     22                     23                     24
                      A                      A                      A
 Frequencies --    614.4511               676.9644               757.7363
 Red. masses --      1.2508                 2.3018                 2.5918
 Frc consts  --      0.2782                 0.6215                 0.8768
 IR Inten    --     46.6801                 1.9445                 0.3147

                     25                     26                     27
                      A                      A                      A
 Frequencies --    808.6639               856.3848               870.9179
 Red. masses --      2.8959                 1.9454                 1.7830
 Frc consts  --      1.1158                 0.8406                 0.7968
 IR Inten    --     12.7981                 4.0320                 5.6550

                     28                     29                     30
                      A                      A                      A
 Frequencies --    891.1027               912.9833               919.4878
 Red. masses --      1.6297                 1.6431                 2.4008
 Frc consts  --      0.7625                 0.8069                 1.1959
 IR Inten    --     40.9234                50.3711                 7.4669

                     31                     32                     33
                      A                      A                      A
 Frequencies --    965.9818               988.6107              1014.4687
 Red. masses --      2.0436                 2.1656                 1.5625
 Frc consts  --      1.1235                 1.2471                 0.9474
 IR Inten    --     59.8450                22.5771                25.2476

                     34                     35                     36
                      A                      A                      A
 Frequencies --   1036.5337              1055.0140              1067.8825
 Red. masses --      1.8299                 1.7633                 1.5134
 Frc consts  --      1.1583                 1.1564                 1.0169
 IR Inten    --      0.9088                14.7795                 0.7657

                     37                     38                     39
                      A                      A                      A
 Frequencies --   1084.0595              1104.3872              1124.9148
 Red. masses --      2.2050                 1.7555                 2.0135
 Frc consts  --      1.5268                 1.2615                 1.5012
 IR Inten    --      1.5428                17.3719                 3.0226

                     40                     41                     42
                      A                      A                      A
 Frequencies --   1133.3373              1160.5809              1199.5002
 Red. masses --      1.7623                 1.7414                 2.1181
 Frc consts  --      1.3336                 1.3820                 1.7955
 IR Inten    --      3.9236                 5.2005                15.1724

                     43                     44                     45
                      A                      A                      A
 Frequencies --   1216.8380              1246.0693              1295.8036
 Red. masses --      1.6208                 1.3943                 1.2424
 Frc consts  --      1.4140                 1.2755                 1.2291
 IR Inten    --      4.4791                 3.9452                 2.7065

                     46                     47                     48
                      A                      A                      A
 Frequencies --   1326.5113              1348.2400              1358.6795
 Red. masses --      1.4331                 1.2957                 1.3669
 Frc consts  --      1.4857                 1.3877                 1.4867
 IR Inten    --      2.1029                 3.0367                 2.2590

                     49                     50                     51
                      A                      A                      A
 Frequencies --   1389.6120              1401.2946              1403.9754
 Red. masses --      1.9365                 1.6457                 1.4515
 Frc consts  --      2.2032                 1.9039                 1.6857
 IR Inten    --     11.8873                 1.2475                 0.3062

                     52                     53                     54
                      A                      A                      A
 Frequencies --   1420.8396              1434.7930              1441.9314
 Red. masses --      1.7100                 1.2271                 1.2765
 Frc consts  --      2.0339                 1.4883                 1.5637
 IR Inten    --      1.1796                 3.0512                 1.6167

                     55                     56                     57
                      A                      A                      A
 Frequencies --   1502.9792              1509.8121              1513.1998
 Red. masses --      1.0857                 1.0494                 1.0817
 Frc consts  --      1.4450                 1.4095                 1.4593
 IR Inten    --      1.3807                 7.6483                 4.3925

                     58                     59                     60
                      A                      A                      A
 Frequencies --   1521.0094              1523.1680              1526.4257
 Red. masses --      1.0714                 1.0732                 1.0635
 Frc consts  --      1.4604                 1.4670                 1.4599
 IR Inten    --      2.3342                 5.1177                 6.3697

                     61                     62                     63
                      A                      A                      A
 Frequencies --   1535.5562              1692.8005              1756.1432
 Red. masses --      1.0492                 1.0982                 6.8745
 Frc consts  --      1.4575                 1.8542                12.4913
 IR Inten    --      3.2517                25.9919                11.1163

                     64                     65                     66
                      A                      A                      A
 Frequencies --   2229.2220              2998.4901              3026.7442
 Red. masses --      5.9966                 1.0690                 1.0720
 Frc consts  --     17.5576                 5.6627                 5.7864
 IR Inten    --      2.9721                35.3903                33.8388

                     67                     68                     69
                      A                      A                      A
 Frequencies --   3027.0214              3033.4650              3043.0678
 Red. masses --      1.0469                 1.0656                 1.0876
 Frc consts  --      5.6520                 5.7772                 5.9338
 IR Inten    --     22.0397                30.9258                30.0524

                     70                     71                     72
                      A                      A                      A
 Frequencies --   3058.9640              3062.1921              3071.9223
 Red. masses --      1.0668                 1.0376                 1.0994
 Frc consts  --      5.8814                 5.7323                 6.1128
 IR Inten    --     53.6688                18.1185                28.0998

                     73                     74                     75
                      A                      A                      A
 Frequencies --   3081.9112              3107.7514              3123.3059
 Red. masses --      1.0974                 1.1021                 1.0996
 Frc consts  --      6.1410                 6.2713                 6.3201
 IR Inten    --     50.7758                27.2267                22.0389

                     76                     77                     78
                      A                      A                      A
 Frequencies --   3129.2222              3145.9454              3159.5460
 Red. masses --      1.1004                 1.1030                 1.0884
 Frc consts  --      6.3487                 6.4317                 6.4019
 IR Inten    --     25.5709                23.8752                15.4256

                     79                     80                     81
                      A                      A                      A
 Frequencies --   3448.1910              3495.3323              3539.3783
 Red. masses --      1.0491                 1.1589                 1.0916
 Frc consts  --      7.3493                 8.3420                 8.0569
 IR Inten    --      6.0491                61.5937                 2.5482

 - Thermochemistry -
 -------------------
 Temperature   298.150 Kelvin.  Pressure   1.00000 Atm.
 Atom     1 has atomic number  6 and mass  12.00000

 Molecular mass:   163.13610 amu.
 Principal axes and moments of inertia in atomic units:
                           1         2         3
     Eigenvalues --  1286.937792592.789953326.13089
           X            0.99950   0.03142  -0.00262
           Y           -0.03139   0.99945   0.01047
           Z            0.00295  -0.01038   0.99994
 This molecule is an asymmetric top.
 Rotational symmetry number  1.
 Warning -- assumption of classical behavior for rotation
           may cause significant error
 Rotational temperatures (Kelvin)      0.06730     0.03341     0.02604
 Rotational constants (GHZ):           1.40235     0.69606     0.54259
 Zero-point vibrational energy     677326.5 (Joules/Mol)
                                  161.88491 (Kcal/Mol)
 Warning -- explicit consideration of  22 degrees of freedom as
           vibrations may cause significant error
 Vibrational temperatures:     97.98   132.06   161.31   208.91   279.80
          (Kelvin)            289.89   341.96   354.87   382.37   432.14
                              459.43   462.64   537.72   582.15   592.26
                              613.73   709.96   740.63   787.86   816.53
                              869.73   884.06   974.00  1090.21  1163.49
                             1232.15  1253.06  1282.10  1313.58  1322.94
                             1389.83  1422.39  1459.59  1491.34  1517.93
                             1536.44  1559.72  1588.97  1618.50  1630.62
                             1669.82  1725.81  1750.76  1792.82  1864.37
                             1908.55  1939.82  1954.84  1999.34  2016.15
                             2020.01  2044.27  2064.35  2074.62  2162.45
                             2172.28  2177.16  2188.39  2191.50  2196.19
                             2209.32  2435.56  2526.70  3207.35  4314.16
                             4354.81  4355.21  4364.48  4378.30  4401.17
                             4405.81  4419.81  4434.18  4471.36  4493.74
                             4502.25  4526.31  4545.88  4961.18  5029.00
                             5092.38

 Zero-point correction=                           0.257980 (Hartree/Particle)
 Thermal correction to Energy=                    0.270922
 Thermal correction to Enthalpy=                  0.271867
 Thermal correction to Gibbs Free Energy=         0.220064
 Sum of electronic and zero-point Energies=           -483.871041
 Sum of electronic and thermal Energies=              -483.858099
 Sum of electronic and thermal Enthalpies=            -483.857155
 Sum of electronic and thermal Free Energies=         -483.908957

                     E (Thermal)             CV                S
                      KCal/Mol        Cal/Mol-Kelvin    Cal/Mol-Kelvin
 Total                  170.006             50.777            109.027
 Electronic               0.000              0.000              0.000
 Translational            0.889              2.981             41.177
 Rotational               0.889              2.981             30.785
 Vibrational            168.229             44.816             37.065
 Vibration     1          0.598              1.969              4.207
 Vibration     2          0.602              1.955              3.622
 Vibration     3          0.607              1.939              3.232
 Vibration     4          0.617              1.908              2.734
 Vibration     5          0.635              1.848              2.185
 Vibration     6          0.638              1.838              2.120
 Vibration     7          0.656              1.783              1.820
 Vibration     8          0.661              1.768              1.754
 Vibration     9          0.672              1.736              1.624
 Vibration    10          0.693              1.673              1.415
 Vibration    11          0.705              1.637              1.314
 Vibration    12          0.707              1.632              1.302
 Vibration    13          0.745              1.526              1.064
 Vibration    14          0.770              1.460              0.946
 Vibration    15          0.776              1.445              0.921
 Vibration    16          0.788              1.412              0.870
 Vibration    17          0.849              1.265              0.675
 Vibration    18          0.870              1.217              0.622
 Vibration    19          0.903              1.145              0.549
 Vibration    20          0.923              1.102              0.509
 Vibration    21          0.963              1.022              0.442
 Vibration    22          0.974              1.001              0.425

                           ! Non-Optimized Parameters !
 Normal termination of Gaussian 16 at Wed Dec  9 18:02:11 2020.

 ----------------------------------------------------------------------
 # B3LYP/6-311++G(d,p) empiricaldispersion=gd3bj scf=xqc pop=npa geom=c
 heck
 ----------------------------------------------------------------------

 --------------------------------------
 CID_10820901_JID_2604_Energie_neutraal
 --------------------------------------
 Structure from the checkpoint file:  "JID_2604.chk"
 Charge =  0 Multiplicity = 1

 SCF Done:  E(RB3LYP) =  -484.270864786     A.U. after   15 cycles
 Normal termination of Gaussian 16 at Wed Dec  9 18:06:43 2020.

 ----------------------------------------------------------------------
 # B3LYP/6-311++G(d,p) empiricaldispersion=gd3bj scf=xqc pop=npa geom=c
 heck
 ----------------------------------------------------------------------

 ------------------------------------
 CID_10820901_JID_2604_Energie_kation
 ------------------------------------
 Structure from the checkpoint file:  "JID_2604.chk"
 Charge =  1 Multiplicity = 2

 SCF Done:  E(UB3LYP) =  -483.962063622     A.U. after   25 cycles
 Normal termination of Gaussian 16 at Wed Dec  9 18:15:56 2020.
 Gaussian 16:  ES64L-G16RevA.03 25-Dec-2016

 ----------------------------------------------------------------------
 # B3LYP/6-311++G(d,p) empiricaldispersion=gd3bj scf=xqc pop=npa geom=c
 heck
 ----------------------------------------------------------------------

 -----------------------------------
 CID_10820901_JID_2604_Energie_anion
 -----------------------------------
 Structure from the checkpoint file:  "JID_2604.chk"
 Charge = -1 Multiplicity = 2

                         Standard orientation:
 ---------------------------------------------------------------------
 Center     Atomic      Atomic             Coordinates (Angstroms)
 Number     Number       Type             X           Y           Z
 ---------------------------------------------------------------------
      1          6           0        2.709892    2.045451   -0.299583
      2          6           0        1.885923    0.797517   -0.129000
      3          6           0        0.566996    0.846547    0.088103
      4          6           0       -0.343806   -0.358162    0.224227
      5          6           0        0.379729   -1.630908   -0.253442
      6          6           0        1.804992   -1.690189    0.297064
      7          6           0        2.631933   -0.512963   -0.224544
      8          6           0       -1.617261   -0.099224   -0.677483
      9          6           0       -2.570472   -1.306946   -0.766691
     10          6           0       -2.352668    1.073588   -0.195979
     11          6           0       -2.963509    2.018751    0.244342
     12          7           0       -0.677318   -0.529207    1.649780
     13          1           0        2.094650    2.949345   -0.253458
     14          1           0        3.237109    2.039686   -1.263944
     15          1           0        3.483233    2.115549    0.477581
     16          1           0        0.076200    1.815614    0.165798
     17          1           0        0.404407   -1.642679   -1.352096
     18          1           0       -0.184699   -2.515001    0.065030
     19          1           0        1.751194   -1.643287    1.389880
     20          1           0        2.281148   -2.639987    0.026657
     21          1           0        3.577391   -0.434511    0.330144
     22          1           0        2.921750   -0.683375   -1.274391
     23          1           0       -1.247757    0.117736   -1.689722
     24          1           0       -2.925355   -1.601319    0.226959
     25          1           0       -3.449006   -1.051969   -1.366066
     26          1           0       -2.076218   -2.165317   -1.229196
     27          1           0       -3.507322    2.860560    0.607766
     28          1           0       -1.094111    0.333575    1.998443
     29          1           0       -1.391870   -1.250947    1.750063
 ---------------------------------------------------------------------

 SCF Done:  E(UB3LYP) =  -484.254979361     A.U. after   32 cycles

 The electronic state is 2-A.
 Alpha  occ. eigenvalues --  -14.18925 -10.11221 -10.09775 -10.07588 -10.07512
 Alpha  occ. eigenvalues --  -10.06732 -10.06643 -10.06523 -10.06308 -10.06177
 Alpha  occ. eigenvalues --  -10.05960 -10.05544  -0.80111  -0.72416  -0.70168
 Alpha  occ. eigenvalues --   -0.66356  -0.63541  -0.61772  -0.58371  -0.54727
 Alpha  occ. eigenvalues --   -0.50779  -0.47535  -0.43036  -0.41499  -0.38887
 Alpha  occ. eigenvalues --   -0.38005  -0.36463  -0.35735  -0.34020  -0.33363
 Alpha  occ. eigenvalues --   -0.31152  -0.30157  -0.29912  -0.29273  -0.28153
 Alpha  occ. eigenvalues --   -0.26843  -0.26240  -0.25393  -0.23269  -0.22422
 Alpha  occ. eigenvalues --   -0.20587  -0.17889  -0.17369  -0.14394  -0.14162
 Alpha  occ. eigenvalues --    0.04491
 Alpha virt. eigenvalues --    0.06577   0.06839   0.07886   0.08070   0.09248
 Alpha virt. eigenvalues --    0.09551   0.09880   0.10604   0.11043   0.11415
 Alpha virt. eigenvalues --    0.11441   0.12318   0.12890   0.12979   0.13355

  Beta  occ. eigenvalues --  -14.18903 -10.11222 -10.09762 -10.07587 -10.07515
  Beta  occ. eigenvalues --  -10.06711 -10.06619 -10.06483 -10.06280 -10.06154
  Beta  occ. eigenvalues --  -10.05947 -10.05537  -0.80081  -0.72390  -0.70137
  Beta  occ. eigenvalues --   -0.66327  -0.63513  -0.61733  -0.58323  -0.54662
  Beta  occ. eigenvalues --   -0.50734  -0.47487  -0.42977  -0.41457  -0.38854
  Beta  occ. eigenvalues --   -0.37977  -0.36429  -0.35702  -0.33988  -0.33331
  Beta  occ. eigenvalues --   -0.31125  -0.30121  -0.29871  -0.29238  -0.28116
  Beta  occ. eigenvalues --   -0.26805  -0.26210  -0.25365  -0.23233  -0.22394
  Beta  occ. eigenvalues --   -0.20560  -0.17870  -0.17328  -0.14371  -0.14144
  Beta virt. eigenvalues --    0.06594   0.07375   0.07731   0.08388   0.08673
  Beta virt. eigenvalues --    0.09711   0.10040   0.10217   0.10993   0.11330
  Beta virt. eigenvalues --    0.11604   0.11694   0.12527   0.13070   0.13347

 Mulliken charges and spin densities:
               1          2
     1  C    1.175369  -1.830924
     2  C   -1.312062   2.351391
     3  C   -0.776277  -0.946664
     4  C    2.741048  -1.941615
     5  C    0.384108  -0.822471
     6  C   -0.814733   0.458798
     7  C   -0.354325  -0.162969
     8  C   -2.244875   2.266801
     9  C    1.789419  -2.475605
    10  C    4.600054  -4.341901
    11  C   -2.990163   2.606583
    12  N   -0.442867   0.152822
    13  H   -0.446686   0.598512
    14  H   -0.064004   0.207596
    15  H   -0.034349   0.172575
    16  H    0.490939  -0.311317
    17  H   -0.248522   0.408534
    18  H   -0.045010   0.203143
    19  H    0.146507   0.018138
    20  H   -0.376539   0.547758
    21  H   -0.039875   0.191917
    22  H   -0.060320   0.222513
    23  H   -0.336533   0.554621
    24  H   -0.102809   0.260068
    25  H   -0.247883   0.416504
    26  H   -0.360040   0.505517
    27  H   -1.120857   1.291615
    28  H    0.068422   0.170340
    29  H    0.022865   0.227718
 Sum of Mulliken charges =  -1.00000   1.00000

 Dipole moment (field-independent basis, Debye):
    X=              2.3412    Y=             -0.3228    Z=              1.5161  Tot=              2.8078
 Quadrupole moment (field-independent basis, Debye-Ang):
   XX=           -138.0114   YY=           -127.3727   ZZ=           -110.7088
   XY=              3.2391   XZ=             -0.0074   YZ=             -3.4277

 Summary of Natural Population Analysis:

                                       Natural Population
                Natural  -----------------------------------------------
    Atom  No    Charge         Core      Valence    Rydberg      Total
 -----------------------------------------------------------------------
      C    1   -0.29130      0.99963     2.28653    0.00515     3.29130
      C    2    0.00430      0.99949     1.98652    0.00969     2.99570
      C    3   -0.10728      0.99941     2.09552    0.01235     3.10728
      C    4    0.05698      0.99954     1.92817    0.01530     2.94302
      C    5   -0.19062      0.99959     2.18034    0.01069     3.19062
      C    6   -0.18893      0.99963     2.18019    0.00910     3.18893
      C    7   -0.20119      0.99958     2.19321    0.00840     3.20119
      C    8   -0.15466      0.99950     2.14169    0.01348     3.15466
      C    9   -0.27948      0.99965     2.27276    0.00707     3.27948
      C   10    0.00418      0.99938     1.98510    0.01133     2.99582
      C   11   -0.12447      0.99925     2.12109    0.00413     3.12447
      N   12   -0.42368      0.99975     2.91374    0.01019     3.92368
      H   13    0.10276      0.00000     0.39625    0.00099     0.39724
      H   14    0.10106      0.00000     0.39764    0.00130     0.39894
      H   15    0.10010      0.00000     0.39861    0.00129     0.39990
      H   16    0.10243      0.00000     0.39595    0.00162     0.39757
      H   17    0.09919      0.00000     0.39883    0.00198     0.40081
      H   18    0.10209      0.00000     0.39650    0.00141     0.39791
      H   19    0.10337      0.00000     0.39493    0.00170     0.39663
      H   20    0.09733      0.00000     0.40168    0.00099     0.40267
      H   21    0.10070      0.00000     0.39821    0.00109     0.39930
      H   22    0.10094      0.00000     0.39773    0.00133     0.39906
      H   23    0.11568      0.00000     0.38204    0.00228     0.38432
      H   24    0.09682      0.00000     0.40155    0.00163     0.40318
      H   25    0.10535      0.00000     0.39353    0.00112     0.39465
      H   26    0.10410      0.00000     0.39437    0.00153     0.39590
      H   27    0.11201      0.00000     0.38598    0.00201     0.38799
      H   28    0.17925      0.00000     0.31889    0.00186     0.32075
      H   29    0.17296      0.00000     0.32515    0.00189     0.32704
 =======================================================================
   * Total *   -0.00000     11.99440    32.86269    0.14291    45.00000

 Normal termination of Gaussian 16 at Wed Dec  9 18:27:43 2020.
