 Gaussian 16, Revision A.03,

 -----------------------------------------------------------
 # opt freq B3LYP/6-31G(d) empiricaldispersion=gd3bj scf=xqc
 -----------------------------------------------------------

 --------------------------------
 CID_103252732_JID_10199_neutraal
 --------------------------------
 Symbolic Z-matrix:
 Charge =  0 Multiplicity = 1

 SCF Done:  E(RB3LYP) =  -1259.08153470     A.U. after   15 cycles
 SCF Done:  E(RB3LYP) =  -1259.08998350     A.U. after   12 cycles
 SCF Done:  E(RB3LYP) =  -1259.09164050     A.U. after   12 cycles
 SCF Done:  E(RB3LYP) =  -1259.09325798     A.U. after   13 cycles
 SCF Done:  E(RB3LYP) =  -1259.09409254     A.U. after   12 cycles
 SCF Done:  E(RB3LYP) =  -1259.09449881     A.U. after   13 cycles
 SCF Done:  E(RB3LYP) =  -1259.09463483     A.U. after   12 cycles
 SCF Done:  E(RB3LYP) =  -1259.09472585     A.U. after   12 cycles
 SCF Done:  E(RB3LYP) =  -1259.09477382     A.U. after   12 cycles
 SCF Done:  E(RB3LYP) =  -1259.09480465     A.U. after   11 cycles
 SCF Done:  E(RB3LYP) =  -1259.09818379     A.U. after   11 cycles
 SCF Done:  E(RB3LYP) =  -1259.09819559     A.U. after   11 cycles
 SCF Done:  E(RB3LYP) =  -1259.09819513     A.U. after   10 cycles
 SCF Done:  E(RB3LYP) =  -1259.09819652     A.U. after   10 cycles
 SCF Done:  E(RB3LYP) =  -1259.09819653     A.U. after    7 cycles
 Optimization completed.
    -- Stationary point found.
 Normal termination of Gaussian 16 at Sat Dec 12 15:56:18 2020.

 --------------------------------------------------------------------
 #N Geom=AllCheck Guess=TCheck SCRF=Check GenChk RB3LYP/6-31G(d) Freq
 --------------------------------------------------------------------

 Structure from the checkpoint file:  "JID_10199.chk"
 --------------------------------
 CID_103252732_JID_10199_neutraal
 --------------------------------
 Charge =  0 Multiplicity = 1

 SCF Done:  E(RB3LYP) =  -1259.09819653     A.U. after    1 cycles

  Exact polarizability: 223.569   1.865 186.029  13.204  -5.463 138.754
 Approx polarizability: 307.097   4.204 300.202  35.356 -16.189 223.429

                      1                      2                      3
                      A                      A                      A
 Frequencies --     15.5157                21.6966                35.5892
 Red. masses --      4.4134                 6.6995                 5.1857
 Frc consts  --      0.0006                 0.0019                 0.0039
 IR Inten    --      0.0775                 0.0413                 0.0323

                      4                      5                      6
                      A                      A                      A
 Frequencies --     63.3123                78.5092                89.9767
 Red. masses --      7.5856                 5.7757                 3.7280
 Frc consts  --      0.0179                 0.0210                 0.0178
 IR Inten    --      1.4093                 0.6026                 0.0984

                      7                      8                      9
                      A                      A                      A
 Frequencies --    139.2394               162.6742               175.0445
 Red. masses --      4.5684                 5.3960                 3.5954
 Frc consts  --      0.0522                 0.0841                 0.0649
 IR Inten    --      2.3703                 3.0708                 0.7103

                     10                     11                     12
                      A                      A                      A
 Frequencies --    213.4305               222.8094               240.0932
 Red. masses --      3.9863                 1.9545                 1.4915
 Frc consts  --      0.1070                 0.0572                 0.0507
 IR Inten    --      0.7248                 1.5647                 1.0770

                     13                     14                     15
                      A                      A                      A
 Frequencies --    268.0136               290.4209               315.3304
 Red. masses --      3.1079                 2.4348                 2.8464
 Frc consts  --      0.1315                 0.1210                 0.1668
 IR Inten    --      3.1890                 0.4709                 0.7091

                     16                     17                     18
                      A                      A                      A
 Frequencies --    350.1441               366.4504               377.6348
 Red. masses --      2.5454                 2.0782                 2.1103
 Frc consts  --      0.1839                 0.1644                 0.1773
 IR Inten    --      5.5854                 0.6012                 1.0974

                     19                     20                     21
                      A                      A                      A
 Frequencies --    383.1146               393.2323               440.3717
 Red. masses --      2.8809                 3.1584                 2.7888
 Frc consts  --      0.2491                 0.2878                 0.3186
 IR Inten    --      0.1946                 3.8089                 0.4244

                     22                     23                     24
                      A                      A                      A
 Frequencies --    456.6447               466.6719               473.4999
 Red. masses --      3.6260                 3.4163                 7.9573
 Frc consts  --      0.4455                 0.4384                 1.0511
 IR Inten    --      7.2559                 2.9351                 1.2448

                     25                     26                     27
                      A                      A                      A
 Frequencies --    496.3453               527.2183               579.4768
 Red. masses --      4.4295                 3.3039                 3.5226
 Frc consts  --      0.6429                 0.5411                 0.6969
 IR Inten    --      3.2946                 1.6265                 7.7782

                     28                     29                     30
                      A                      A                      A
 Frequencies --    622.8557               625.2953               672.7159
 Red. masses --      1.9311                 1.5872                 4.7276
 Frc consts  --      0.4414                 0.3656                 1.2605
 IR Inten    --     28.0724                74.6745                 0.5905

                     31                     32                     33
                      A                      A                      A
 Frequencies --    674.5417               696.4699               726.1730
 Red. masses --      4.3360                 3.8841                 4.6405
 Frc consts  --      1.1624                 1.1101                 1.4418
 IR Inten    --     76.1914                 6.0817                25.1449

                     34                     35                     36
                      A                      A                      A
 Frequencies --    739.2366               761.3645               766.3357
 Red. masses --      2.3639                 4.2294                 2.7813
 Frc consts  --      0.7611                 1.4445                 0.9624
 IR Inten    --     15.5795                23.1714                 3.2726

                     37                     38                     39
                      A                      A                      A
 Frequencies --    773.9872               788.2900               803.5737
 Red. masses --      2.5651                 1.5993                 2.8076
 Frc consts  --      0.9054                 0.5855                 1.0682
 IR Inten    --     36.8726                32.8378                67.0280

                     40                     41                     42
                      A                      A                      A
 Frequencies --    825.7597               860.3094               870.2534
 Red. masses --      3.0982                 1.5733                 3.7060
 Frc consts  --      1.2447                 0.6861                 1.6537
 IR Inten    --      5.1425                 0.7875                14.7268

                     43                     44                     45
                      A                      A                      A
 Frequencies --    889.4386               912.6122               933.4870
 Red. masses --      2.7497                 2.2983                 1.9080
 Frc consts  --      1.2816                 1.1278                 0.9796
 IR Inten    --      4.6568                 7.3954                 0.1815

                     46                     47                     48
                      A                      A                      A
 Frequencies --    951.4848               958.0089               982.7225
 Red. masses --      2.2054                 2.0840                 5.9329
 Frc consts  --      1.1764                 1.1269                 3.3758
 IR Inten    --      1.9045                 0.6268                 5.1780

                     49                     50                     51
                      A                      A                      A
 Frequencies --    997.3661              1039.1428              1056.5062
 Red. masses --      2.0357                 1.9108                 1.8438
 Frc consts  --      1.1931                 1.2157                 1.2126
 IR Inten    --      9.5380                 2.0442                14.9830

                     52                     53                     54
                      A                      A                      A
 Frequencies --   1061.6388              1081.0819              1092.3976
 Red. masses --      2.8813                 8.4756                 2.4694
 Frc consts  --      1.9134                 5.8363                 1.7362
 IR Inten    --     30.0156               188.4969                 4.9758

                     55                     56                     57
                      A                      A                      A
 Frequencies --   1101.4053              1131.7420              1149.3584
 Red. masses --      1.9401                 2.2327                 1.5856
 Frc consts  --      1.3866                 1.6849                 1.2341
 IR Inten    --      0.5021                15.4967                 2.3898

                     58                     59                     60
                      A                      A                      A
 Frequencies --   1159.0492              1173.0611              1175.5613
 Red. masses --      1.9986                 1.5092                 1.5464
 Frc consts  --      1.5819                 1.2236                 1.2591
 IR Inten    --     52.2822                 5.0336                17.7829

                     61                     62                     63
                      A                      A                      A
 Frequencies --   1178.3141              1183.3789              1205.7383
 Red. masses --      1.2204                 3.3018                 1.1864
 Frc consts  --      0.9983                 2.7242                 1.0162
 IR Inten    --      5.1575                16.0897                 2.0260

                     64                     65                     66
                      A                      A                      A
 Frequencies --   1232.6170              1239.3683              1265.1395
 Red. masses --      1.8175                 1.6487                 1.4976
 Frc consts  --      1.6270                 1.4921                 1.4123
 IR Inten    --    137.2714                16.8615                 3.5529

                     67                     68                     69
                      A                      A                      A
 Frequencies --   1302.8414              1306.9958              1321.7160
 Red. masses --      1.2414                 1.6556                 1.2673
 Frc consts  --      1.2415                 1.6663                 1.3044
 IR Inten    --      2.5878                12.5837                 4.1348

                     70                     71                     72
                      A                      A                      A
 Frequencies --   1333.5224              1359.8989              1371.5112
 Red. masses --      1.8198                 1.8317                 1.4497
 Frc consts  --      1.9067                 1.9958                 1.6067
 IR Inten    --      5.5402                30.0329                 3.7188

                     73                     74                     75
                      A                      A                      A
 Frequencies --   1374.6445              1381.4284              1387.4436
 Red. masses --      1.9606                 1.3556                 1.2822
 Frc consts  --      2.1828                 1.5242                 1.4542
 IR Inten    --     10.5790                 1.8512                23.8354

                     76                     77                     78
                      A                      A                      A
 Frequencies --   1399.5501              1405.8480              1408.0568
 Red. masses --      1.3758                 1.5659                 1.6177
 Frc consts  --      1.5877                 1.8234                 1.8897
 IR Inten    --      3.1322                33.8401                13.1718

                     79                     80                     81
                      A                      A                      A
 Frequencies --   1409.2506              1414.3464              1425.0186
 Red. masses --      2.4050                 1.3488                 1.3366
 Frc consts  --      2.8141                 1.5897                 1.5992
 IR Inten    --     47.0047                 3.8417                28.7837

                     82                     83                     84
                      A                      A                      A
 Frequencies --   1436.5014              1439.4927              1484.3468
 Red. masses --      1.3128                 1.3677                 1.1847
 Frc consts  --      1.5961                 1.6698                 1.5379
 IR Inten    --      1.0759                 0.5866                 2.1631

                     85                     86                     87
                      A                      A                      A
 Frequencies --   1489.0373              1496.5026              1507.3441
 Red. masses --      1.1054                 1.1272                 2.1387
 Frc consts  --      1.4440                 1.4873                 2.8630
 IR Inten    --      0.9461                 7.9700                35.9670

                     88                     89                     90
                      A                      A                      A
 Frequencies --   1508.2820              1511.8619              1515.8321
 Red. masses --      1.5620                 1.0917                 1.0826
 Frc consts  --      2.0936                 1.4702                 1.4657
 IR Inten    --     48.9700                 0.4207                 9.9066

                     91                     92                     93
                      A                      A                      A
 Frequencies --   1524.4504              1532.1464              1540.3737
 Red. masses --      1.0763                 1.2081                 1.0938
 Frc consts  --      1.4737                 1.6709                 1.5291
 IR Inten    --     13.8186                 5.6984                18.0943

                     94                     95                     96
                      A                      A                      A
 Frequencies --   1551.2810              1560.8297              1814.4392
 Red. masses --      1.0519                 7.6602                10.2478
 Frc consts  --      1.4914                10.9952                19.8777
 IR Inten    --      1.0721                69.8976               304.7660

                     97                     98                     99
                      A                      A                      A
 Frequencies --   2968.1004              2983.4446              3022.4346
 Red. masses --      1.0579                 1.0826                 1.0749
 Frc consts  --      5.4908                 5.6775                 5.7853
 IR Inten    --     64.2398                54.7177                 3.4549

                    100                    101                    102
                      A                      A                      A
 Frequencies --   3023.8016              3030.2950              3036.8542
 Red. masses --      1.0731                 1.0651                 1.0732
 Frc consts  --      5.7811                 5.7627                 5.8316
 IR Inten    --      3.5435                25.5502                59.6914

                    103                    104                    105
                      A                      A                      A
 Frequencies --   3040.2678              3049.7639              3061.6972
 Red. masses --      1.0736                 1.0694                 1.0904
 Frc consts  --      5.8468                 5.8605                 6.0220
 IR Inten    --    116.4484               106.8932               108.5972

                    106                    107                    108
                      A                      A                      A
 Frequencies --   3064.2487              3065.8355              3072.0540
 Red. masses --      1.1027                 1.0850                 1.0620
 Frc consts  --      6.1005                 6.0086                 5.9054
 IR Inten    --     19.3671                18.2844                35.2733

                    109                    110                    111
                      A                      A                      A
 Frequencies --   3076.7981              3088.0894              3107.1346
 Red. masses --      1.0659                 1.0960                 1.1034
 Frc consts  --      5.9453                 6.1579                 6.2761
 IR Inten    --     24.6547                29.2998                32.0818

                    112                    113                    114
                      A                      A                      A
 Frequencies --   3110.4837              3122.7882              3134.2672
 Red. masses --      1.1021                 1.1011                 1.0933
 Frc consts  --      6.2827                 6.3265                 6.3278
 IR Inten    --     33.4922                13.7047                 1.6174

                    115                    116                    117
                      A                      A                      A
 Frequencies --   3267.5178              3480.9568              3692.4620
 Red. masses --      1.0941                 1.0739                 1.0640
 Frc consts  --      6.8827                 7.6668                 8.5476
 IR Inten    --      0.8637                 1.0151                84.6584

 - Thermochemistry -
 -------------------
 Temperature   298.150 Kelvin.  Pressure   1.00000 Atm.
 Atom     1 has atomic number  6 and mass  12.00000

 Molecular mass:   295.13545 amu.
 Principal axes and moments of inertia in atomic units:
                           1         2         3
     Eigenvalues --  2717.91605********************
           X            0.99999  -0.00359  -0.00105
           Y            0.00360   0.99999   0.00247
           Z            0.00104  -0.00247   1.00000
 This molecule is an asymmetric top.
 Rotational symmetry number  1.
 Warning -- assumption of classical behavior for rotation
           may cause significant error
 Rotational temperatures (Kelvin)      0.03187     0.00729     0.00657
 Rotational constants (GHZ):           0.66402     0.15198     0.13693
 Zero-point vibrational energy     921210.3 (Joules/Mol)
                                  220.17454 (Kcal/Mol)
 Warning -- explicit consideration of  27 degrees of freedom as
           vibrations may cause significant error
 Vibrational temperatures:     22.32    31.22    51.20    91.09   112.96
          (Kelvin)            129.46   200.33   234.05   251.85   307.08
                              320.57   345.44   385.61   417.85   453.69
                              503.78   527.24   543.33   551.22   565.77
                              633.60   657.01   671.44   681.26   714.13
                              758.55   833.74   896.15   899.66   967.89
                              970.52  1002.06  1044.80  1063.60  1095.43
                             1102.59  1113.59  1134.17  1156.16  1188.08
                             1237.79  1252.10  1279.70  1313.05  1343.08
                             1368.97  1378.36  1413.92  1434.99  1495.09
                             1520.08  1527.46  1555.44  1571.72  1584.68
                             1628.32  1653.67  1667.61  1687.77  1691.37
                             1695.33  1702.62  1734.79  1773.46  1783.17
                             1820.25  1874.50  1880.48  1901.65  1918.64
                             1956.59  1973.30  1977.81  1987.57  1996.22
                             2013.64  2022.70  2025.88  2027.60  2034.93
                             2050.28  2066.81  2071.11  2135.64  2142.39
                             2153.13  2168.73  2170.08  2175.23  2180.94
                             2193.34  2204.42  2216.25  2231.95  2245.69
                             2610.57  4270.43  4292.51  4348.61  4350.58
                             4359.92  4369.36  4374.27  4387.93  4405.10
                             4408.77  4411.05  4420.00  4426.83  4443.07
                             4470.47  4475.29  4493.00  4509.51  4701.23
                             5008.32  5312.63

 Zero-point correction=                           0.350870 (Hartree/Particle)
 Thermal correction to Energy=                    0.369115
 Thermal correction to Enthalpy=                  0.370059
 Thermal correction to Gibbs Free Energy=         0.302308
 Sum of electronic and zero-point Energies=          -1258.747326
 Sum of electronic and thermal Energies=             -1258.729082
 Sum of electronic and thermal Enthalpies=           -1258.728137
 Sum of electronic and thermal Free Energies=        -1258.795889

                     E (Thermal)             CV                S
                      KCal/Mol        Cal/Mol-Kelvin    Cal/Mol-Kelvin
 Total                  231.623             71.773            142.595
 Electronic               0.000              0.000              0.000
 Translational            0.889              2.981             42.944
 Rotational               0.889              2.981             34.408
 Vibrational            229.846             65.811             65.243
 Vibration     1          0.593              1.986              7.138
 Vibration     2          0.593              1.985              6.473
 Vibration     3          0.594              1.982              5.491
 Vibration     4          0.597              1.972              4.351
 Vibration     5          0.600              1.964              3.928
 Vibration     6          0.602              1.956              3.661
 Vibration     7          0.615              1.914              2.814
 Vibration     8          0.623              1.888              2.518
 Vibration     9          0.627              1.873              2.381
 Vibration    10          0.644              1.820              2.014
 Vibration    11          0.648              1.806              1.936
 Vibration    12          0.657              1.779              1.802
 Vibration    13          0.673              1.732              1.609
 Vibration    14          0.686              1.692              1.472
 Vibration    15          0.703              1.644              1.334
 Vibration    16          0.727              1.575              1.166
 Vibration    17          0.739              1.541              1.095
 Vibration    18          0.748              1.518              1.049
 Vibration    19          0.752              1.506              1.027
 Vibration    20          0.760              1.485              0.988
 Vibration    21          0.800              1.382              0.825
 Vibration    22          0.815              1.346              0.776
 Vibration    23          0.824              1.324              0.747
 Vibration    24          0.830              1.309              0.728
 Vibration    25          0.852              1.258              0.667
 Vibration    26          0.882              1.190              0.593
 Vibration    27          0.936              1.076              0.486

                           ! Non-Optimized Parameters !
 Normal termination of Gaussian 16 at Sat Dec 12 16:20:13 2020.

 ----------------------------------------------------------------------
 # B3LYP/6-311++G(d,p) empiricaldispersion=gd3bj scf=xqc pop=npa geom=c
 heck
 ----------------------------------------------------------------------

 ----------------------------------------
 CID_103252732_JID_10199_Energie_neutraal
 ----------------------------------------
 Structure from the checkpoint file:  "JID_10199.chk"
 Charge =  0 Multiplicity = 1

 SCF Done:  E(RB3LYP) =  -1259.36817252     A.U. after   16 cycles
 Normal termination of Gaussian 16 at Sat Dec 12 16:32:38 2020.

 ----------------------------------------------------------------------
 # B3LYP/6-311++G(d,p) empiricaldispersion=gd3bj scf=xqc pop=npa geom=c
 heck
 ----------------------------------------------------------------------

 --------------------------------------
 CID_103252732_JID_10199_Energie_kation
 --------------------------------------
 Structure from the checkpoint file:  "JID_10199.chk"
 Charge =  1 Multiplicity = 2

 SCF Done:  E(UB3LYP) =  -1259.09796518     A.U. after   29 cycles
 Normal termination of Gaussian 16 at Sat Dec 12 17:03:04 2020.
 Gaussian 16:  ES64L-G16RevA.03 25-Dec-2016

 ----------------------------------------------------------------------
 # B3LYP/6-311++G(d,p) empiricaldispersion=gd3bj scf=xqc pop=npa geom=c
 heck
 ----------------------------------------------------------------------

 -------------------------------------
 CID_103252732_JID_10199_Energie_anion
 -------------------------------------
 Structure from the checkpoint file:  "JID_10199.chk"
 Charge = -1 Multiplicity = 2

                         Standard orientation:
 ---------------------------------------------------------------------
 Center     Atomic      Atomic             Coordinates (Angstroms)
 Number     Number       Type             X           Y           Z
 ---------------------------------------------------------------------
      1          6           0       -4.682417    1.913233    0.386809
      2          7           0       -3.366057    1.306101    0.477800
      3          6           0       -2.719932    1.059290   -0.821544
      4          6           0       -3.422020   -0.058987   -1.623462
      5          6           0       -3.601696   -1.362288   -0.827889
      6          6           0       -4.050413   -1.101667    0.619905
      7          6           0       -3.318570    0.082144    1.291701
      8          6           0       -1.845434   -0.150768    1.680167
      9          6           0       -0.818448   -0.144494    0.527388
     10          6           0       -1.212676    0.873501   -0.564393
     11          7           0       -0.637909   -1.513634    0.008815
     12          6           0        0.448538   -1.719783   -0.953196
     13          6           0        1.818741   -1.273575   -0.499814
     14          6           0        2.778355   -2.072750    0.079342
     15         16           0        4.171605   -1.158231    0.521989
     16          6           0        3.364356    0.263024   -0.108615
     17          7           0        2.173161    0.051636   -0.598736
     18          6           0        4.067586    1.561327   -0.041963
     19          8           0        5.181989    1.690444    0.424846
     20          8           0        3.341986    2.575490   -0.549061
     21          1           0       -5.454033    1.301794   -0.113561
     22          1           0       -4.602708    2.858731   -0.161990
     23          1           0       -5.043147    2.139061    1.397053
     24          1           0       -2.816083    1.986194   -1.402311
     25          1           0       -2.863639   -0.254264   -2.548351
     26          1           0       -4.404099    0.321173   -1.935278
     27          1           0       -4.335700   -2.004757   -1.331231
     28          1           0       -2.649787   -1.895440   -0.807056
     29          1           0       -5.125383   -0.877424    0.637298
     30          1           0       -3.918991   -2.008070    1.225436
     31          1           0       -3.848081    0.303118    2.228031
     32          1           0       -1.751444   -1.081735    2.256871
     33          1           0       -1.576372    0.668240    2.356004
     34          1           0        0.133327    0.212948    0.949711
     35          1           0       -0.692941    0.653068   -1.501720
     36          1           0       -0.834560    1.845588   -0.231083
     37          1           0       -0.481038   -2.128509    0.805789
     38          1           0        0.475326   -2.789425   -1.186262
     39          1           0        0.203612   -1.196579   -1.881713
     40          1           0        2.730231   -3.138869    0.256960
     41          1           0        3.897849    3.371418   -0.452469
 ---------------------------------------------------------------------

 SCF Done:  E(UB3LYP) =  -1259.39077268     A.U. after   33 cycles
 SCF Done:  E(UB3LYP) =  -1259.39077268     a.u. after    1 cycles

 The electronic state is 2-A.
 Alpha  occ. eigenvalues --  -88.70975 -19.01189 -18.93624 -14.20980 -14.18695
 Alpha  occ. eigenvalues --  -14.13926 -10.12167 -10.10776 -10.10664 -10.10174
 Alpha  occ. eigenvalues --  -10.08730 -10.07884 -10.07604 -10.07231 -10.06984
 Alpha  occ. eigenvalues --  -10.06311 -10.05505 -10.05306 -10.05155 -10.03573
 Alpha  occ. eigenvalues --   -7.79660  -5.75936  -5.75592  -5.75311  -0.94933
 Alpha  occ. eigenvalues --   -0.85456  -0.84359  -0.80744  -0.78853  -0.70078
 Alpha  occ. eigenvalues --   -0.68347  -0.67285  -0.63717  -0.62041  -0.59481
 Alpha  occ. eigenvalues --   -0.58340  -0.54872  -0.52742  -0.51263  -0.49657
 Alpha  occ. eigenvalues --   -0.47771  -0.42221  -0.41903  -0.40723  -0.39681
 Alpha  occ. eigenvalues --   -0.38034  -0.36927  -0.36646  -0.35963  -0.35171
 Alpha  occ. eigenvalues --   -0.34531  -0.32881  -0.32583  -0.32346  -0.31268
 Alpha  occ. eigenvalues --   -0.30863  -0.30598  -0.30049  -0.29470  -0.28242
 Alpha  occ. eigenvalues --   -0.26032  -0.25828  -0.25552  -0.24953  -0.24716
 Alpha  occ. eigenvalues --   -0.24223  -0.23539  -0.23431  -0.22229  -0.21083
 Alpha  occ. eigenvalues --   -0.20811  -0.20267  -0.17279  -0.13558  -0.13327
 Alpha  occ. eigenvalues --   -0.12174  -0.11586  -0.11069  -0.09471   0.04217
 Alpha virt. eigenvalues --    0.05432   0.07251   0.07462   0.08291   0.09109
 Alpha virt. eigenvalues --    0.09670   0.09968   0.10127   0.10406   0.11052
 Alpha virt. eigenvalues --    0.11847   0.12184   0.12583   0.13131   0.13824

  Beta  occ. eigenvalues --  -88.70885 -19.01103 -18.93274 -14.20980 -14.18705
  Beta  occ. eigenvalues --  -14.13558 -10.11883 -10.10776 -10.10663 -10.10174
  Beta  occ. eigenvalues --  -10.08725 -10.07877 -10.07604 -10.07231 -10.06983
  Beta  occ. eigenvalues --  -10.06311 -10.05505 -10.05429 -10.04846 -10.03229
  Beta  occ. eigenvalues --   -7.79579  -5.75896  -5.75554  -5.75010  -0.94584
  Beta  occ. eigenvalues --   -0.84920  -0.84358  -0.80467  -0.78589  -0.70077
  Beta  occ. eigenvalues --   -0.68345  -0.67279  -0.63101  -0.61878  -0.59309
  Beta  occ. eigenvalues --   -0.58333  -0.54519  -0.52675  -0.51219  -0.49173
  Beta  occ. eigenvalues --   -0.47694  -0.42111  -0.41701  -0.40439  -0.39578
  Beta  occ. eigenvalues --   -0.38026  -0.36906  -0.36629  -0.35918  -0.34943
  Beta  occ. eigenvalues --   -0.34497  -0.32873  -0.32345  -0.32186  -0.31219
  Beta  occ. eigenvalues --   -0.30741  -0.30578  -0.29546  -0.28459  -0.28110
  Beta  occ. eigenvalues --   -0.25860  -0.25752  -0.25524  -0.24884  -0.24681
  Beta  occ. eigenvalues --   -0.23688  -0.23169  -0.23054  -0.22006  -0.20813
  Beta  occ. eigenvalues --   -0.20715  -0.20208  -0.15793  -0.13233  -0.12164
  Beta  occ. eigenvalues --   -0.11474  -0.11309  -0.10627  -0.07899
  Beta virt. eigenvalues --    0.05388   0.07199   0.07408   0.08242   0.09059
  Beta virt. eigenvalues --    0.09606   0.09918   0.10097   0.10343   0.10903
  Beta virt. eigenvalues --    0.11095   0.11792   0.12222   0.12534   0.13086

 Mulliken charges and spin densities:
               1          2
     1  C   -0.186427  -0.031896
     2  N   -0.024691  -0.000329
     3  C    0.472465  -0.003362
     4  C   -0.789023  -0.010149
     5  C   -0.070504   0.010674
     6  C   -0.720248  -0.025254
     7  C    0.474102   0.002533
     8  C   -0.822127   0.005500
     9  C   -0.085766  -0.013619
    10  C   -1.020124   0.016246
    11  N    0.023888   0.006251
    12  C   -1.085739   0.019171
    13  C   -0.836553  -0.145656
    14  C    0.585574   0.287944
    15  S   -0.641338   0.149928
    16  C    0.039749   0.150821
    17  N    0.172997   0.166114
    18  C    0.699765   0.234456
    19  O   -0.425802   0.119935
    20  O   -0.218995   0.019307
    21  H    0.117750   0.010415
    22  H    0.121803   0.006395
    23  H    0.116255   0.009621
    24  H    0.196706   0.003768
    25  H    0.125974   0.001365
    26  H    0.127043   0.003123
    27  H    0.154347   0.003679
    28  H    0.253543  -0.000796
    29  H    0.115104   0.003859
    30  H    0.124161   0.002036
    31  H    0.184343   0.007801
    32  H    0.115618   0.000296
    33  H    0.139756  -0.000634
    34  H    0.283949   0.007609
    35  H    0.158939  -0.001538
    36  H    0.154013   0.003394
    37  H    0.211418  -0.002337
    38  H    0.134470   0.003781
    39  H    0.161424   0.000038
    40  H    0.199252  -0.019282
    41  H    0.262928  -0.001203
 Sum of Mulliken charges =  -1.00000   1.00000

 Dipole moment (field-independent basis, Debye):
    X=            -13.4665    Y=             -1.4235    Z=             -0.0118  Tot=             13.5416
 Quadrupole moment (field-independent basis, Debye-Ang):
   XX=           -219.2724   YY=           -139.6387   ZZ=           -137.4529
   XY=             -6.7003   XZ=             -5.2391   YZ=             -3.0828

 Summary of Natural Population Analysis:

                                       Natural Population
                Natural  -----------------------------------------------
    Atom  No    Charge         Core      Valence    Rydberg      Total
 -----------------------------------------------------------------------
      C    1   -0.17558      0.99966     2.16859    0.00733     3.17558
      N    2   -0.28934      0.99971     2.77414    0.01549     3.78934
      C    3   -0.00135      0.99958     1.99041    0.01135     3.00135
      C    4   -0.19793      0.99962     2.19104    0.00727     3.19793
      C    5   -0.20642      0.99962     2.19949    0.00732     3.20642
      C    6   -0.19753      0.99962     2.19060    0.00732     3.19753
      C    7   -0.00050      0.99958     1.98949    0.01142     3.00050
      C    8   -0.18971      0.99959     2.18134    0.00878     3.18971
      C    9   -0.01202      0.99958     2.00173    0.01071     3.01202
      C   10   -0.19642      0.99959     2.18709    0.00975     3.19642
      N   11   -0.34991      0.99973     2.83659    0.01359     3.84991
      C   12   -0.09339      0.99958     2.08273    0.01108     3.09339
      C   13    0.00932      0.99950     1.97737    0.01381     2.99068
      C   14   -0.15226      0.99948     2.14210    0.01069     3.15226
      S   15    0.21973      4.99944     2.75689    0.02394     7.78027
      C   16    0.03091      0.99956     1.95259    0.01694     2.96909
      N   17   -0.19372      0.99963     2.68194    0.01215     3.69372
      C   18    0.41063      0.99963     1.56566    0.02408     2.58937
      O   19   -0.29835      0.99987     3.29183    0.00665     4.29835
      O   20   -0.33856      0.99987     3.33205    0.00663     4.33856
      H   21    0.07604      0.00000     0.42194    0.00202     0.42396
      H   22    0.09308      0.00000     0.40596    0.00095     0.40692
      H   23    0.09173      0.00000     0.40731    0.00096     0.40827
      H   24    0.09319      0.00000     0.40535    0.00146     0.40681
      H   25    0.09991      0.00000     0.39895    0.00113     0.40009
      H   26    0.08952      0.00000     0.40937    0.00111     0.41048
      H   27    0.08889      0.00000     0.40995    0.00116     0.41111
      H   28    0.12087      0.00000     0.37770    0.00143     0.37913
      H   29    0.09039      0.00000     0.40851    0.00110     0.40961
      H   30    0.09760      0.00000     0.40129    0.00111     0.40240
      H   31    0.09141      0.00000     0.40703    0.00156     0.40859
      H   32    0.09429      0.00000     0.40464    0.00107     0.40571
      H   33    0.10332      0.00000     0.39558    0.00109     0.39668
      H   34    0.10162      0.00000     0.39624    0.00214     0.39838
      H   35    0.10810      0.00000     0.39084    0.00106     0.39190
      H   36    0.10800      0.00000     0.39093    0.00107     0.39200
      H   37    0.16933      0.00000     0.32866    0.00201     0.33067
      H   38    0.09244      0.00000     0.40654    0.00101     0.40756
      H   39    0.09370      0.00000     0.40498    0.00132     0.40630
      H   40    0.09524      0.00000     0.40363    0.00112     0.40476
      H   41    0.22373      0.00000     0.27045    0.00582     0.27627
 =======================================================================
   * Total *    0.00000     23.99244    54.73954    0.26802    79.00000

 Normal termination of Gaussian 16 at Sat Dec 12 17:36:14 2020.
