 Gaussian 16, Revision A.03,

 -----------------------------------------------------------
 # opt freq B3LYP/6-31G(d) empiricaldispersion=gd3bj scf=xqc
 -----------------------------------------------------------

 -------------------------------
 CID_20315579_JID_10445_neutraal
 -------------------------------
 Symbolic Z-matrix:
 Charge =  0 Multiplicity = 1

 SCF Done:  E(RB3LYP) =  -923.928323539     A.U. after   15 cycles
 SCF Done:  E(RB3LYP) =  -923.932163948     A.U. after   14 cycles
 SCF Done:  E(RB3LYP) =  -923.926903187     A.U. after   15 cycles
 SCF Done:  E(RB3LYP) =  -923.930784495     A.U. after   13 cycles
 SCF Done:  E(RB3LYP) =  -923.933959463     A.U. after   10 cycles
 SCF Done:  E(RB3LYP) =  -923.936007906     A.U. after   15 cycles
 SCF Done:  E(RB3LYP) =  -923.935967845     A.U. after   15 cycles
 SCF Done:  E(RB3LYP) =  -923.935112259     A.U. after   14 cycles
 SCF Done:  E(RB3LYP) =  -923.935231845     A.U. after   13 cycles
 SCF Done:  E(RB3LYP) =  -923.936453273     A.U. after   10 cycles
 SCF Done:  E(RB3LYP) =  -923.941143280     A.U. after   11 cycles
 SCF Done:  E(RB3LYP) =  -923.941143271     A.U. after    9 cycles
 SCF Done:  E(RB3LYP) =  -923.941144868     A.U. after    9 cycles
 SCF Done:  E(RB3LYP) =  -923.941144884     A.U. after    7 cycles
 SCF Done:  E(RB3LYP) =  -923.941144929     A.U. after    7 cycles
 Optimization completed.
    -- Stationary point found.
 Normal termination of Gaussian 16 at Sun Dec 13 17:20:35 2020.

 --------------------------------------------------------------------
 #N Geom=AllCheck Guess=TCheck SCRF=Check GenChk RB3LYP/6-31G(d) Freq
 --------------------------------------------------------------------

 Structure from the checkpoint file:  "JID_10445.chk"
 -------------------------------
 CID_20315579_JID_10445_neutraal
 -------------------------------
 Charge =  0 Multiplicity = 1

 SCF Done:  E(RB3LYP) =  -923.941144929     A.U. after    1 cycles

  Exact polarizability: 214.189  19.316 154.678   6.396 -14.181 152.321
 Approx polarizability: 308.856  37.183 213.804   5.447 -41.176 271.803

                      1                      2                      3
                      A                      A                      A
 Frequencies --     27.1537                31.3919                40.9625
 Red. masses --      4.1967                 4.9120                 5.6189
 Frc consts  --      0.0018                 0.0029                 0.0056
 IR Inten    --      0.1507                 0.9685                 2.7340

                      4                      5                      6
                      A                      A                      A
 Frequencies --     45.1336                53.5489                65.8861
 Red. masses --      5.2247                 3.8371                 3.1458
 Frc consts  --      0.0063                 0.0065                 0.0080
 IR Inten    --      1.6838                 0.1179                 0.3326

                      7                      8                      9
                      A                      A                      A
 Frequencies --     80.8451                93.9714               117.5454
 Red. masses --      3.6979                 3.2038                 4.6483
 Frc consts  --      0.0142                 0.0167                 0.0378
 IR Inten    --      1.4602                 0.0207                 0.4806

                     10                     11                     12
                      A                      A                      A
 Frequencies --    141.0518               159.1552               166.8911
 Red. masses --      3.2628                 3.9078                 1.0779
 Frc consts  --      0.0382                 0.0583                 0.0177
 IR Inten    --      1.3305                 0.8299                 0.4033

                     13                     14                     15
                      A                      A                      A
 Frequencies --    183.4151               204.6919               239.2229
 Red. masses --      4.1450                 2.0699                 1.8756
 Frc consts  --      0.0822                 0.0511                 0.0632
 IR Inten    --      5.2276                 0.6463                 1.8673

                     16                     17                     18
                      A                      A                      A
 Frequencies --    261.1985               277.0187               296.7739
 Red. masses --      3.4393                 2.6499                 1.9743
 Frc consts  --      0.1382                 0.1198                 0.1025
 IR Inten    --      5.5831                 1.5447                 1.3201

                     19                     20                     21
                      A                      A                      A
 Frequencies --    312.9762               326.9776               338.9684
 Red. masses --      4.9867                 2.3952                 6.8844
 Frc consts  --      0.2878                 0.1509                 0.4661
 IR Inten    --      9.7188                 0.5874                 1.3938

                     22                     23                     24
                      A                      A                      A
 Frequencies --    381.9459               400.6818               427.3422
 Red. masses --      2.4527                 2.3985                 3.1471
 Frc consts  --      0.2108                 0.2269                 0.3386
 IR Inten    --      2.6004                 0.6225                 0.1508

                     25                     26                     27
                      A                      A                      A
 Frequencies --    451.8709               473.2852               510.5590
 Red. masses --      2.2394                 3.3655                 3.0782
 Frc consts  --      0.2694                 0.4442                 0.4728
 IR Inten    --      0.1784                 0.4772                 1.3155

                     28                     29                     30
                      A                      A                      A
 Frequencies --    544.7468               562.7773               577.5891
 Red. masses --      2.5993                 4.3306                 5.0254
 Frc consts  --      0.4545                 0.8081                 0.9878
 IR Inten    --      1.3904                 9.5709                 3.2494

                     31                     32                     33
                      A                      A                      A
 Frequencies --    594.0122               603.0616               650.7991
 Red. masses --      4.0846                 2.3690                 6.5858
 Frc consts  --      0.8492                 0.5076                 1.6434
 IR Inten    --     40.1701                19.7131                 4.5700

                     34                     35                     36
                      A                      A                      A
 Frequencies --    686.8931               690.9010               731.5188
 Red. masses --      3.4937                 4.5029                 1.4573
 Frc consts  --      0.9712                 1.2664                 0.4595
 IR Inten    --     14.4063                 3.1751                 3.9022

                     37                     38                     39
                      A                      A                      A
 Frequencies --    740.1036               762.2300               832.6871
 Red. masses --      3.2123                 1.7477                 3.5050
 Frc consts  --      1.0367                 0.5983                 1.4319
 IR Inten    --      2.8340                 0.5157                 6.7620

                     40                     41                     42
                      A                      A                      A
 Frequencies --    834.9296               835.2099               851.5294
 Red. masses --      1.4753                 1.6220                 1.6946
 Frc consts  --      0.6059                 0.6667                 0.7240
 IR Inten    --      1.8777                 0.3320                49.0998

                     43                     44                     45
                      A                      A                      A
 Frequencies --    853.5722               902.4985               920.4418
 Red. masses --      2.1391                 3.1937                 1.7673
 Frc consts  --      0.9183                 1.5326                 0.8822
 IR Inten    --     18.5243                22.1557                 3.1237

                     46                     47                     48
                      A                      A                      A
 Frequencies --    961.0272               963.3974               971.2533
 Red. masses --      1.2963                 1.7229                 2.1819
 Frc consts  --      0.7054                 0.9422                 1.2127
 IR Inten    --      1.1230                 1.9457                41.5588

                     49                     50                     51
                      A                      A                      A
 Frequencies --    982.2605               990.3079              1027.1335
 Red. masses --      2.5307                 1.3334                 2.3349
 Frc consts  --      1.4386                 0.7705                 1.4513
 IR Inten    --     22.2002                 3.1091                19.8398

                     52                     53                     54
                      A                      A                      A
 Frequencies --   1032.0887              1049.3249              1051.7919
 Red. masses --      2.6623                 1.4335                 2.0340
 Frc consts  --      1.6708                 0.9299                 1.3258
 IR Inten    --      8.9747                 2.4112                 7.6305

                     55                     56                     57
                      A                      A                      A
 Frequencies --   1056.5349              1071.5570              1096.4159
 Red. masses --      1.8492                 1.7982                 4.2435
 Frc consts  --      1.2162                 1.2165                 3.0056
 IR Inten    --      2.6505                17.4124                47.2024

                     58                     59                     60
                      A                      A                      A
 Frequencies --   1103.8949              1109.1735              1151.7329
 Red. masses --      2.2588                 2.6928                 2.1878
 Frc consts  --      1.6217                 1.9519                 1.7098
 IR Inten    --      5.4391                13.7227                 0.6270

                     61                     62                     63
                      A                      A                      A
 Frequencies --   1154.4290              1169.4844              1207.9701
 Red. masses --      1.3003                 1.9990                 1.1898
 Frc consts  --      1.0210                 1.6108                 1.0229
 IR Inten    --      9.4344                 0.6498               120.6804

                     64                     65                     66
                      A                      A                      A
 Frequencies --   1229.2410              1250.3588              1262.8704
 Red. masses --      1.3083                 1.3964                 1.7237
 Frc consts  --      1.1648                 1.2863                 1.6197
 IR Inten    --      2.7969                36.3072                80.5352

                     67                     68                     69
                      A                      A                      A
 Frequencies --   1291.9916              1301.5315              1309.9750
 Red. masses --      1.2057                 2.1229                 2.0582
 Frc consts  --      1.1858                 2.1188                 2.0810
 IR Inten    --      9.2006               277.7392                35.0014

                     70                     71                     72
                      A                      A                      A
 Frequencies --   1315.6966              1327.1729              1347.4494
 Red. masses --      1.2960                 3.0169                 1.4003
 Frc consts  --      1.3218                 3.1309                 1.4980
 IR Inten    --     50.7572               325.8686                34.0522

                     73                     74                     75
                      A                      A                      A
 Frequencies --   1351.9858              1367.7690              1384.7263
 Red. masses --      1.1046                 6.0069                 1.4026
 Frc consts  --      1.1896                 6.6210                 1.5845
 IR Inten    --      1.1697                37.9585                 3.4208

                     76                     77                     78
                      A                      A                      A
 Frequencies --   1396.2284              1401.8458              1411.4135
 Red. masses --      1.5295                 1.4359                 1.3743
 Frc consts  --      1.7568                 1.6625                 1.6131
 IR Inten    --      3.3163                 4.9656                67.0618

                     79                     80                     81
                      A                      A                      A
 Frequencies --   1412.1919              1424.2781              1437.0091
 Red. masses --      1.4072                 1.4388                 1.4914
 Frc consts  --      1.6535                 1.7197                 1.8146
 IR Inten    --      5.4393                 0.8075                 2.4164

                     82                     83                     84
                      A                      A                      A
 Frequencies --   1443.6521              1469.8312              1500.3016
 Red. masses --      1.2736                 3.1614                 1.0585
 Frc consts  --      1.5640                 4.0240                 1.4038
 IR Inten    --      5.0406                10.8072                 9.0685

                     85                     86                     87
                      A                      A                      A
 Frequencies --   1504.6394              1508.3624              1511.4819
 Red. masses --      1.0816                 1.0487                 1.0916
 Frc consts  --      1.4427                 1.4057                 1.4693
 IR Inten    --      2.7120                 9.2383                 4.6892

                     88                     89                     90
                      A                      A                      A
 Frequencies --   1517.0334              1525.9140              1527.5823
 Red. masses --      1.0772                 1.0815                 1.0586
 Frc consts  --      1.4607                 1.4836                 1.4555
 IR Inten    --      0.9054                 6.3737                 4.7408

                     91                     92                     93
                      A                      A                      A
 Frequencies --   1534.0973              1542.9350              1545.5423
 Red. masses --      1.0633                 1.0691                 1.0883
 Frc consts  --      1.4743                 1.4996                 1.5316
 IR Inten    --      3.7754                 5.2344                 5.9519

                     94                     95                     96
                      A                      A                      A
 Frequencies --   1563.0748              1630.0052              1665.0897
 Red. masses --      2.5550                 6.8143                 5.7647
 Frc consts  --      3.6779                10.6673                 9.4167
 IR Inten    --     44.5849                 3.9565               232.8204

                     97                     98                     99
                      A                      A                      A
 Frequencies --   1770.5741              1826.3348              3031.9944
 Red. masses --     10.4938                11.7690                 1.0637
 Frc consts  --     19.3826                23.1286                 5.7611
 IR Inten    --    149.7012               226.1134                24.7162

                    100                    101                    102
                      A                      A                      A
 Frequencies --   3041.0856              3044.9381              3047.9731
 Red. masses --      1.0601                 1.0433                 1.0608
 Frc consts  --      5.7766                 5.6990                 5.8061
 IR Inten    --     40.1599                 5.0068                 7.5052

                    103                    104                    105
                      A                      A                      A
 Frequencies --   3053.9253              3057.9011              3065.2942
 Red. masses --      1.0384                 1.0694                 1.0947
 Frc consts  --      5.7057                 5.8917                 6.0604
 IR Inten    --      2.7930                15.5078                32.9362

                    106                    107                    108
                      A                      A                      A
 Frequencies --   3074.6719              3079.4175              3080.7799
 Red. masses --      1.0620                 1.0892                 1.0828
 Frc consts  --      5.9154                 6.0853                 6.0553
 IR Inten    --     27.1463                34.7270                17.7780

                    109                    110                    111
                      A                      A                      A
 Frequencies --   3086.1482              3110.1738              3113.3879
 Red. masses --      1.0914                 1.1020                 1.1003
 Frc consts  --      6.1247                 6.2805                 6.2839
 IR Inten    --     43.0562                46.2032                49.4372

                    112                    113                    114
                      A                      A                      A
 Frequencies --   3113.5076              3118.6751              3128.4052
 Red. masses --      1.1002                 1.0954                 1.1030
 Frc consts  --      6.2838                 6.2774                 6.3604
 IR Inten    --     21.1746                18.0188                 7.5389

                    115                    116                    117
                      A                      A                      A
 Frequencies --   3141.0083              3171.6675              3208.1728
 Red. masses --      1.1031                 1.1012                 1.0872
 Frc consts  --      6.4119                 6.5269                 6.5932
 IR Inten    --     20.3406                12.0959                 7.5229

                    118                    119                    120
                      A                      A                      A
 Frequencies --   3219.0474              3224.7866              3232.9468
 Red. masses --      1.0877                 1.0944                 1.0937
 Frc consts  --      6.6406                 6.7054                 6.7349
 IR Inten    --      3.0183                 7.2621                 4.7813

 - Thermochemistry -
 -------------------
 Temperature   298.150 Kelvin.  Pressure   1.00000 Atm.
 Atom     1 has atomic number  6 and mass  12.00000

 Molecular mass:   278.15181 amu.
 Principal axes and moments of inertia in atomic units:
                           1         2         3
     Eigenvalues --  4854.052386404.352529611.09640
           X            0.99995  -0.00399   0.00943
           Y            0.00397   0.99999   0.00202
           Z           -0.00944  -0.00199   0.99995
 This molecule is an asymmetric top.
 Rotational symmetry number  1.
 Warning -- assumption of classical behavior for rotation
           may cause significant error
 Rotational temperatures (Kelvin)      0.01784     0.01352     0.00901
 Rotational constants (GHZ):           0.37180     0.28180     0.18778
 Zero-point vibrational energy     943206.7 (Joules/Mol)
                                  225.43180 (Kcal/Mol)
 Warning -- explicit consideration of  32 degrees of freedom as
           vibrations may cause significant error
 Vibrational temperatures:     39.07    45.17    58.94    64.94    77.04
          (Kelvin)             94.80   116.32   135.20   169.12   202.94
                              228.99   240.12   263.89   294.51   344.19
                              375.81   398.57   426.99   450.30   470.45
                              487.70   549.53   576.49   614.85   650.14
                              680.95   734.58   783.77   809.71   831.02
                              854.65   867.67   936.35   988.29   994.05
                             1052.49  1064.84  1096.68  1198.05  1201.28
                             1201.68  1225.16  1228.10  1298.49  1324.31
                             1382.70  1386.11  1397.42  1413.25  1424.83
                             1477.82  1484.95  1509.74  1513.29  1520.12
                             1541.73  1577.50  1588.26  1595.85  1657.09
                             1660.97  1682.63  1738.00  1768.60  1798.99
                             1816.99  1858.89  1872.61  1884.76  1892.99
                             1909.51  1938.68  1945.21  1967.91  1992.31
                             2008.86  2016.94  2030.71  2031.83  2049.22
                             2067.54  2077.09  2114.76  2158.60  2164.84
                             2170.20  2174.69  2182.67  2195.45  2197.85
                             2207.22  2219.94  2223.69  2248.92  2345.21
                             2395.69  2547.46  2627.69  4362.36  4375.44
                             4380.99  4385.35  4393.92  4399.64  4410.27
                             4423.77  4430.59  4432.56  4440.28  4474.85
                             4479.47  4479.64  4487.08  4501.08  4519.21
                             4563.32  4615.85  4631.49  4639.75  4651.49

 Zero-point correction=                           0.359248 (Hartree/Particle)
 Thermal correction to Energy=                    0.379828
 Thermal correction to Enthalpy=                  0.380772
 Thermal correction to Gibbs Free Energy=         0.307981
 Sum of electronic and zero-point Energies=           -923.581896
 Sum of electronic and thermal Energies=              -923.561317
 Sum of electronic and thermal Enthalpies=            -923.560373
 Sum of electronic and thermal Free Energies=         -923.633164

                     E (Thermal)             CV                S
                      KCal/Mol        Cal/Mol-Kelvin    Cal/Mol-Kelvin
 Total                  238.346             76.451            153.201
 Electronic               0.000              0.000              0.000
 Translational            0.889              2.981             42.767
 Rotational               0.889              2.981             34.057
 Vibrational            236.568             70.490             76.377
 Vibration     1          0.593              1.984              6.027
 Vibration     2          0.594              1.983              5.739
 Vibration     3          0.594              1.981              5.212
 Vibration     4          0.595              1.979              5.020
 Vibration     5          0.596              1.976              4.682
 Vibration     6          0.597              1.971              4.273
 Vibration     7          0.600              1.962              3.870
 Vibration     8          0.603              1.953              3.576
 Vibration     9          0.608              1.935              3.140
 Vibration    10          0.615              1.912              2.790
 Vibration    11          0.621              1.892              2.560
 Vibration    12          0.624              1.883              2.470
 Vibration    13          0.631              1.862              2.293
 Vibration    14          0.640              1.833              2.091
 Vibration    15          0.657              1.780              1.809
 Vibration    16          0.669              1.744              1.654
 Vibration    17          0.678              1.716              1.552
 Vibration    18          0.690              1.680              1.435
 Vibration    19          0.701              1.649              1.347
 Vibration    20          0.711              1.622              1.275
 Vibration    21          0.719              1.598              1.217
 Vibration    22          0.751              1.509              1.031
 Vibration    23          0.767              1.469              0.960
 Vibration    24          0.789              1.411              0.867
 Vibration    25          0.811              1.357              0.790
 Vibration    26          0.830              1.309              0.728
 Vibration    27          0.866              1.227              0.632
 Vibration    28          0.900              1.151              0.555
 Vibration    29          0.919              1.112              0.518
 Vibration    30          0.934              1.080              0.490
 Vibration    31          0.952              1.045              0.460
 Vibration    32          0.961              1.025              0.444

 Optimization completed.
    -- Stationary point found.
 Normal termination of Gaussian 16 at Sun Dec 13 17:43:39 2020.

 ----------------------------------------------------------------------
 # B3LYP/6-311++G(d,p) empiricaldispersion=gd3bj scf=xqc pop=npa geom=c
 heck
 ----------------------------------------------------------------------

 ---------------------------------------
 CID_20315579_JID_10445_Energie_neutraal
 ---------------------------------------
 Structure from the checkpoint file:  "JID_10445.chk"
 Charge =  0 Multiplicity = 1

 SCF Done:  E(RB3LYP) =  -924.201356680     A.U. after   15 cycles
 Normal termination of Gaussian 16 at Sun Dec 13 17:54:19 2020.

 ----------------------------------------------------------------------
 # B3LYP/6-311++G(d,p) empiricaldispersion=gd3bj scf=xqc pop=npa geom=c
 heck
 ----------------------------------------------------------------------

 -------------------------------------
 CID_20315579_JID_10445_Energie_kation
 -------------------------------------
 Structure from the checkpoint file:  "JID_10445.chk"
 Charge =  1 Multiplicity = 2

 SCF Done:  E(UB3LYP) =  -923.891550184     A.U. after   31 cycles
 Normal termination of Gaussian 16 at Sun Dec 13 18:25:24 2020.
 Gaussian 16:  ES64L-G16RevA.03 25-Dec-2016

 ----------------------------------------------------------------------
 # B3LYP/6-311++G(d,p) empiricaldispersion=gd3bj scf=xqc pop=npa geom=c
 heck
 ----------------------------------------------------------------------

 ------------------------------------
 CID_20315579_JID_10445_Energie_anion
 ------------------------------------
 Structure from the checkpoint file:  "JID_10445.chk"
 Charge = -1 Multiplicity = 2

                         Standard orientation:
 ---------------------------------------------------------------------
 Center     Atomic      Atomic             Coordinates (Angstroms)
 Number     Number       Type             X           Y           Z
 ---------------------------------------------------------------------
      1          6           0        1.017574    4.478297    0.210966
      2          6           0        0.180755    3.596669   -0.720700
      3          6           0        0.315668    2.092827   -0.439720
      4          6           0       -0.091496    1.648228    0.973726
      5          6           0       -1.530180    2.004354    1.381316
      6          6           0       -2.602895    1.428831    0.471592
      7          8           0       -2.514659   -0.018171    0.541273
      8          6           0       -3.039075   -0.703678   -0.478339
      9          8           0       -3.650003   -0.229579   -1.411048
     10          6           0       -2.808334   -2.209764   -0.341719
     11          8           0       -1.754130   -2.578113    0.527120
     12          6           0       -0.494032   -2.157845    0.221105
     13          6           0       -0.130955   -1.567547   -0.997787
     14          6           0        1.173216   -1.125606   -1.177084
     15          6           0        2.136951   -1.267012   -0.170248
     16          6           0        1.765812   -1.900376    1.027723
     17          6           0        0.465479   -2.341234    1.225336
     18          6           0        3.492984   -0.697875   -0.404069
     19          8           0        3.735348   -0.047520   -1.412135
     20          6           0        4.568750   -0.925778    0.644362
     21          1           0        0.686033    4.398995    1.252614
     22          1           0        0.950940    5.533568   -0.076092
     23          1           0        2.074886    4.188105    0.177814
     24          1           0       -0.873983    3.898494   -0.658377
     25          1           0        0.482844    3.782466   -1.759340
     26          1           0       -0.273841    1.537032   -1.180130
     27          1           0        1.356863    1.789414   -0.609366
     28          1           0        0.041491    0.565039    1.052905
     29          1           0        0.589817    2.093700    1.709135
     30          1           0       -1.714602    1.658218    2.405784
     31          1           0       -1.667649    3.093368    1.392232
     32          1           0       -3.608212    1.720634    0.792255
     33          1           0       -2.479605    1.732611   -0.570115
     34          1           0       -3.708660   -2.657575    0.088474
     35          1           0       -2.677997   -2.619740   -1.349391
     36          1           0       -0.855017   -1.423706   -1.791300
     37          1           0        1.467196   -0.639356   -2.100676
     38          1           0        2.490248   -2.032620    1.824687
     39          1           0        0.158821   -2.806004    2.156216
     40          1           0        4.284916   -0.467068    1.599157
     41          1           0        4.721739   -1.995433    0.828657
     42          1           0        5.499992   -0.478027    0.294408
 ---------------------------------------------------------------------

 SCF Done:  E(UB3LYP) =  -924.207127383     A.U. after   33 cycles
 SCF Done:  E(UB3LYP) =  -924.207127383     a.u. after    1 cycles

 The electronic state is 2-A.
 Alpha  occ. eigenvalues --  -19.07942 -19.04398 -19.02663 -18.92820 -10.21543
 Alpha  occ. eigenvalues --  -10.14729 -10.13657 -10.09422 -10.07682 -10.07460
 Alpha  occ. eigenvalues --  -10.06750 -10.06546 -10.05552 -10.05193 -10.04439
 Alpha  occ. eigenvalues --  -10.04218 -10.04141 -10.03493 -10.03006 -10.02230
 Alpha  occ. eigenvalues --   -1.02320  -0.96286  -0.93695  -0.86833  -0.72548
 Alpha  occ. eigenvalues --   -0.71479  -0.68342  -0.65882  -0.62680  -0.61899
 Alpha  occ. eigenvalues --   -0.60606  -0.58582  -0.56470  -0.52210  -0.49527
 Alpha  occ. eigenvalues --   -0.48478  -0.48095  -0.44739  -0.43373  -0.41575
 Alpha  occ. eigenvalues --   -0.40970  -0.40013  -0.38380  -0.38188  -0.36657
 Alpha  occ. eigenvalues --   -0.35256  -0.34183  -0.33099  -0.32275  -0.31845
 Alpha  occ. eigenvalues --   -0.31330  -0.30847  -0.30282  -0.29517  -0.29360
 Alpha  occ. eigenvalues --   -0.28849  -0.28258  -0.27420  -0.26608  -0.26275
 Alpha  occ. eigenvalues --   -0.26058  -0.25484  -0.24313  -0.23193  -0.22672
 Alpha  occ. eigenvalues --   -0.22591  -0.21782  -0.21434  -0.21129  -0.20699
 Alpha  occ. eigenvalues --   -0.19689  -0.18683  -0.13176  -0.10355  -0.09220
 Alpha  occ. eigenvalues --    0.04518
 Alpha virt. eigenvalues --    0.06134   0.07272   0.07765   0.08212   0.08313
 Alpha virt. eigenvalues --    0.09024   0.09984   0.10145   0.10431   0.11083
 Alpha virt. eigenvalues --    0.11317   0.11817   0.12005   0.12374   0.12639

  Beta  occ. eigenvalues --  -19.07938 -19.04329 -19.02661 -18.92355 -10.21534
  Beta  occ. eigenvalues --  -10.14731 -10.13653 -10.09071 -10.07673 -10.07124
  Beta  occ. eigenvalues --  -10.06747 -10.06536 -10.05551 -10.05188 -10.04536
  Beta  occ. eigenvalues --  -10.04241 -10.04077 -10.03523 -10.02792 -10.02140
  Beta  occ. eigenvalues --   -1.02307  -0.96101  -0.93688  -0.85964  -0.72307
  Beta  occ. eigenvalues --   -0.71431  -0.68310  -0.65741  -0.62404  -0.61790
  Beta  occ. eigenvalues --   -0.60383  -0.58417  -0.56437  -0.52165  -0.49285
  Beta  occ. eigenvalues --   -0.48305  -0.47926  -0.44716  -0.43146  -0.41343
  Beta  occ. eigenvalues --   -0.40804  -0.39842  -0.38325  -0.38150  -0.36637
  Beta  occ. eigenvalues --   -0.35220  -0.34004  -0.32873  -0.32145  -0.31776
  Beta  occ. eigenvalues --   -0.31296  -0.30760  -0.29644  -0.29442  -0.29272
  Beta  occ. eigenvalues --   -0.28634  -0.28102  -0.27213  -0.26436  -0.26179
  Beta  occ. eigenvalues --   -0.25930  -0.25453  -0.24024  -0.22932  -0.22557
  Beta  occ. eigenvalues --   -0.22073  -0.21625  -0.21268  -0.21085  -0.20251
  Beta  occ. eigenvalues --   -0.19198  -0.17674  -0.12603  -0.09059  -0.08756
  Beta virt. eigenvalues --    0.06267   0.07259   0.07829   0.08181   0.08349
  Beta virt. eigenvalues --    0.08952   0.09895   0.10053   0.10246   0.10609
  Beta virt. eigenvalues --    0.11095   0.11365   0.11922   0.12013   0.12430

 Mulliken charges and spin densities:
               1          2
     1  C   -0.332937  -0.302439
     2  C   -0.427008   0.156780
     3  C    0.017814  -0.082886
     4  C   -0.335520   0.187848
     5  C    0.060367  -0.435492
     6  C   -0.358958  -0.041176
     7  O    0.133575   0.006676
     8  C   -0.052829  -0.031592
     9  O   -0.211790   0.001418
    10  C   -0.479545   0.036329
    11  O   -0.053255   0.012842
    12  C   -0.912539   0.139457
    13  C    0.261698  -0.070078
    14  C   -0.011978   0.218169
    15  C    1.110679  -0.011142
    16  C   -0.426836   0.164125
    17  C   -0.363111   0.018715
    18  C   -0.616051   0.155544
    19  O   -0.386200   0.169227
    20  C   -0.492105  -0.029793
    21  H    0.032828   0.093491
    22  H   -0.000299   0.125204
    23  H    0.103113   0.054629
    24  H    0.070134   0.050168
    25  H    0.107707   0.030699
    26  H    0.099873   0.037410
    27  H    0.251641  -0.042524
    28  H    0.398143  -0.153095
    29  H    0.125315   0.040730
    30  H    0.022475   0.156663
    31  H    0.043271   0.102428
    32  H    0.019647   0.157502
    33  H    0.224513  -0.010748
    34  H    0.167529   0.010953
    35  H    0.205910   0.011050
    36  H    0.176395   0.011670
    37  H    0.209605  -0.014995
    38  H    0.144522   0.000163
    39  H    0.137923   0.005860
    40  H    0.067248   0.056482
    41  H    0.110469   0.015709
    42  H    0.158570  -0.001980
 Sum of Mulliken charges =  -1.00000   1.00000

 Dipole moment (field-independent basis, Debye):
    X=             -5.9734    Y=              0.3650    Z=              2.5119  Tot=              6.4904
 Quadrupole moment (field-independent basis, Debye-Ang):
   XX=           -177.5349   YY=           -153.6420   ZZ=           -143.0931
   XY=              3.7857   XZ=              7.6354   YZ=             -0.4109

 Summary of Natural Population Analysis:

                                       Natural Population
                Natural  -----------------------------------------------
    Atom  No    Charge         Core      Valence    Rydberg      Total
 -----------------------------------------------------------------------
      C    1   -0.28768      0.99967     2.28370    0.00431     3.28768
      C    2   -0.19038      0.99964     2.18398    0.00676     3.19038
      C    3   -0.19689      0.99963     2.18971    0.00755     3.19689
      C    4   -0.19901      0.99962     2.19048    0.00891     3.19901
      C    5   -0.20225      0.99962     2.19279    0.00983     3.20225
      C    6   -0.01841      0.99956     2.00645    0.01240     3.01841
      O    7   -0.27295      0.99985     3.26353    0.00956     4.27295
      C    8    0.39785      0.99971     1.57773    0.02470     2.60215
      O    9   -0.31115      0.99987     3.30565    0.00563     4.31115
      C   10   -0.05299      0.99954     2.04230    0.01115     3.05299
      O   11   -0.26802      0.99985     3.25939    0.00878     4.26802
      C   12    0.21171      0.99938     1.77500    0.01391     2.78829
      C   13   -0.17932      0.99952     2.17134    0.00846     3.17932
      C   14   -0.02656      0.99954     2.01819    0.00882     3.02656
      C   15   -0.07443      0.99947     2.06319    0.01178     3.07443
      C   16   -0.05950      0.99954     2.05133    0.00863     3.05950
      C   17   -0.15441      0.99953     2.14457    0.01031     3.15441
      C   18    0.30874      0.99964     1.67205    0.01957     2.69126
      O   19   -0.26453      0.99988     3.25815    0.00650     4.26453
      C   20   -0.33079      0.99965     2.32717    0.00397     3.33079
      H   21    0.09455      0.00000     0.40444    0.00101     0.40545
      H   22    0.09417      0.00000     0.40485    0.00098     0.40583
      H   23    0.09901      0.00000     0.39990    0.00109     0.40099
      H   24    0.08734      0.00000     0.41138    0.00128     0.41266
      H   25    0.09539      0.00000     0.40357    0.00104     0.40461
      H   26    0.09689      0.00000     0.40152    0.00160     0.40311
      H   27    0.11200      0.00000     0.38596    0.00203     0.38800
      H   28    0.11611      0.00000     0.38162    0.00227     0.38389
      H   29    0.09437      0.00000     0.40460    0.00103     0.40563
      H   30    0.10050      0.00000     0.39847    0.00103     0.39950
      H   31    0.09780      0.00000     0.40123    0.00097     0.40220
      H   32    0.08848      0.00000     0.41054    0.00098     0.41152
      H   33    0.09653      0.00000     0.40223    0.00124     0.40347
      H   34    0.10144      0.00000     0.39769    0.00087     0.39856
      H   35    0.09579      0.00000     0.40300    0.00121     0.40421
      H   36    0.09751      0.00000     0.40131    0.00119     0.40249
      H   37    0.10669      0.00000     0.39204    0.00127     0.39331
      H   38    0.09484      0.00000     0.40435    0.00081     0.40516
      H   39    0.09856      0.00000     0.40021    0.00123     0.40144
      H   40    0.10045      0.00000     0.39733    0.00223     0.39955
      H   41    0.10009      0.00000     0.39904    0.00088     0.39991
      H   42    0.10247      0.00000     0.39633    0.00120     0.39753
 =======================================================================
   * Total *   -0.00000     19.99272    54.77833    0.22896    75.00000

 Normal termination of Gaussian 16 at Sun Dec 13 18:58:56 2020.
