 Gaussian 16, Revision A.03,

 -----------------------------------------------------------
 # opt freq B3LYP/6-31G(d) empiricaldispersion=gd3bj scf=xqc
 -----------------------------------------------------------

 -------------------------------
 CID_117560214_JID_6683_neutraal
 -------------------------------
 Symbolic Z-matrix:
 Charge =  0 Multiplicity = 1

 SCF Done:  E(RB3LYP) =  -713.274301422     A.U. after   14 cycles
 SCF Done:  E(RB3LYP) =  -713.277299590     A.U. after   12 cycles
 SCF Done:  E(RB3LYP) =  -713.277829326     A.U. after   12 cycles
 SCF Done:  E(RB3LYP) =  -713.278489075     A.U. after   11 cycles
 SCF Done:  E(RB3LYP) =  -713.279555150     A.U. after   12 cycles
 SCF Done:  E(RB3LYP) =  -713.280667080     A.U. after   14 cycles
 SCF Done:  E(RB3LYP) =  -713.281442476     A.U. after   12 cycles
 SCF Done:  E(RB3LYP) =  -713.282566130     A.U. after   12 cycles
 SCF Done:  E(RB3LYP) =  -713.283224786     A.U. after   12 cycles
 SCF Done:  E(RB3LYP) =  -713.283691529     A.U. after   12 cycles
 SCF Done:  E(RB3LYP) =  -713.284066201     A.U. after    9 cycles
 SCF Done:  E(RB3LYP) =  -713.284066922     A.U. after    8 cycles
 SCF Done:  E(RB3LYP) =  -713.284067041     A.U. after    7 cycles
 SCF Done:  E(RB3LYP) =  -713.284067082     A.U. after    7 cycles
 SCF Done:  E(RB3LYP) =  -713.284067106     A.U. after    6 cycles
 Optimization completed.
    -- Stationary point found.
 Normal termination of Gaussian 16 at Fri Dec 11 00:24:11 2020.

 --------------------------------------------------------------------
 #N Geom=AllCheck Guess=TCheck SCRF=Check GenChk RB3LYP/6-31G(d) Freq
 --------------------------------------------------------------------

 Structure from the checkpoint file:  "JID_6683.chk"
 -------------------------------
 CID_117560214_JID_6683_neutraal
 -------------------------------
 Charge =  0 Multiplicity = 1

 SCF Done:  E(RB3LYP) =  -713.284067106     A.U. after    1 cycles

  Exact polarizability: 209.844  -3.523 145.577  -3.222   8.167 101.873
 Approx polarizability: 266.179  -0.152 233.061  -9.361  17.079 155.131

                      1                      2                      3
                      A                      A                      A
 Frequencies --     36.7858                44.2452                76.5189
 Red. masses --      3.5669                 3.0490                 3.7763
 Frc consts  --      0.0028                 0.0035                 0.0130
 IR Inten    --      1.2304                 0.3363                 4.2725

                      4                      5                      6
                      A                      A                      A
 Frequencies --     88.5407               108.0015               123.1279
 Red. masses --      4.3559                 3.0690                 2.2546
 Frc consts  --      0.0201                 0.0211                 0.0201
 IR Inten    --      0.1632                 6.8341                 0.6576

                      7                      8                      9
                      A                      A                      A
 Frequencies --    142.4718               193.5984               210.5869
 Red. masses --      4.2159                 4.3256                 3.8165
 Frc consts  --      0.0504                 0.0955                 0.0997
 IR Inten    --      0.0555                 2.5927                 0.8570

                     10                     11                     12
                      A                      A                      A
 Frequencies --    242.6575               255.3397               261.0866
 Red. masses --      1.2197                 2.0995                 1.1931
 Frc consts  --      0.0423                 0.0807                 0.0479
 IR Inten    --      0.2070                 0.3554                 0.5372

                     13                     14                     15
                      A                      A                      A
 Frequencies --    276.1118               287.3201               307.2341
 Red. masses --      1.3483                 3.4969                 1.8211
 Frc consts  --      0.0606                 0.1701                 0.1013
 IR Inten    --      0.3169                 1.0583                 0.8088

                     16                     17                     18
                      A                      A                      A
 Frequencies --    337.5807               373.0986               387.7994
 Red. masses --      2.7041                 3.0237                 3.1810
 Frc consts  --      0.1816                 0.2480                 0.2819
 IR Inten    --      0.5427                 2.4299                 0.4628

                     19                     20                     21
                      A                      A                      A
 Frequencies --    407.9719               431.0585               439.7021
 Red. masses --      2.8008                 3.2915                 3.2405
 Frc consts  --      0.2747                 0.3603                 0.3691
 IR Inten    --      3.5553                 3.6763                 0.9326

                     22                     23                     24
                      A                      A                      A
 Frequencies --    467.5683               488.2820               546.9357
 Red. masses --      2.3683                 2.8253                 2.8352
 Frc consts  --      0.3050                 0.3969                 0.4997
 IR Inten    --     10.0033                 7.5509                 7.6707

                     25                     26                     27
                      A                      A                      A
 Frequencies --    562.4622               607.8085               657.9369
 Red. masses --      2.1896                 3.9535                 6.0094
 Frc consts  --      0.4081                 0.8605                 1.5327
 IR Inten    --      5.7214                 5.6054                 1.4951

                     28                     29                     30
                      A                      A                      A
 Frequencies --    702.9050               735.4811               749.0807
 Red. masses --      3.6007                 1.4996                 2.9408
 Frc consts  --      1.0482                 0.4779                 0.9722
 IR Inten    --      0.7220                54.1807                 4.5744

                     31                     32                     33
                      A                      A                      A
 Frequencies --    791.5243               827.9093               834.6285
 Red. masses --      2.6128                 1.2514                 1.8852
 Frc consts  --      0.9645                 0.5054                 0.7737
 IR Inten    --     96.8429                 1.0415                 6.4654

                     34                     35                     36
                      A                      A                      A
 Frequencies --    846.3282               862.0057               870.2431
 Red. masses --      1.3997                 1.4102                 2.2563
 Frc consts  --      0.5907                 0.6174                 1.0068
 IR Inten    --     66.9083                45.2899                10.0387

                     37                     38                     39
                      A                      A                      A
 Frequencies --    877.9353               938.7864               946.2516
 Red. masses --      2.8967                 1.7198                 1.3871
 Frc consts  --      1.3155                 0.8930                 0.7318
 IR Inten    --      7.8998                12.9736                 0.6339

                     40                     41                     42
                      A                      A                      A
 Frequencies --    949.4273               952.5058               963.6544
 Red. masses --      2.3534                 1.6055                 1.7305
 Frc consts  --      1.2499                 0.8582                 0.9468
 IR Inten    --     16.3273                12.2671                 8.1699

                     43                     44                     45
                      A                      A                      A
 Frequencies --    990.7757              1004.5365              1022.5208
 Red. masses --      1.7182                 1.2900                 1.3931
 Frc consts  --      0.9938                 0.7670                 0.8581
 IR Inten    --      8.6634                 2.7914                 0.0949

                     46                     47                     48
                      A                      A                      A
 Frequencies --   1037.8894              1078.7098              1083.9548
 Red. masses --      2.5495                 1.6354                 3.5243
 Frc consts  --      1.6181                 1.1212                 2.4397
 IR Inten    --      3.2963                 2.9821                63.4192

                     49                     50                     51
                      A                      A                      A
 Frequencies --   1111.2693              1145.6454              1156.9791
 Red. masses --      3.7111                 1.4173                 1.9445
 Frc consts  --      2.7001                 1.0960                 1.5336
 IR Inten    --     50.5270                 4.9112                32.9279

                     52                     53                     54
                      A                      A                      A
 Frequencies --   1190.8880              1197.3428              1206.2338
 Red. masses --      1.8443                 1.5065                 1.8290
 Frc consts  --      1.5410                 1.2725                 1.5679
 IR Inten    --     76.2038                 4.5408                38.1550

                     55                     56                     57
                      A                      A                      A
 Frequencies --   1217.9985              1248.0185              1258.7952
 Red. masses --      1.1885                 2.2140                 2.6828
 Frc consts  --      1.0388                 2.0318                 2.5046
 IR Inten    --     21.9862                68.9653                78.5547

                     58                     59                     60
                      A                      A                      A
 Frequencies --   1283.0425              1299.9604              1307.0036
 Red. masses --      1.5255                 4.6078                 1.5004
 Frc consts  --      1.4796                 4.5878                 1.5102
 IR Inten    --      0.4776               281.5165                 3.4706

                     61                     62                     63
                      A                      A                      A
 Frequencies --   1316.8053              1348.3756              1351.5464
 Red. masses --      1.1098                 2.8068                 1.9076
 Frc consts  --      1.1338                 3.0067                 2.0530
 IR Inten    --      0.3454                 8.9006                15.6052

                     64                     65                     66
                      A                      A                      A
 Frequencies --   1397.9179              1418.3742              1422.0541
 Red. masses --      1.4885                 1.2690                 1.2489
 Frc consts  --      1.7139                 1.5042                 1.4881
 IR Inten    --      4.3865                11.2798                11.9810

                     67                     68                     69
                      A                      A                      A
 Frequencies --   1427.3003              1446.7635              1452.4881
 Red. masses --      1.2537                 1.3224                 1.3736
 Frc consts  --      1.5048                 1.6308                 1.7074
 IR Inten    --      6.5026                21.6482                40.7446

                     70                     71                     72
                      A                      A                      A
 Frequencies --   1454.1716              1503.9197              1509.3037
 Red. masses --      1.9517                 1.1070                 1.4389
 Frc consts  --      2.4316                 1.4752                 1.9313
 IR Inten    --      3.9301                18.5439                22.0934

                     73                     74                     75
                      A                      A                      A
 Frequencies --   1512.2754              1514.9931              1516.1371
 Red. masses --      1.1165                 1.0402                 1.0621
 Frc consts  --      1.5044                 1.4066                 1.4384
 IR Inten    --     27.3737                 5.0368                15.7063

                     76                     77                     78
                      A                      A                      A
 Frequencies --   1522.9330              1531.1671              1537.5322
 Red. masses --      1.0870                 1.0508                 1.0878
 Frc consts  --      1.4854                 1.4514                 1.5151
 IR Inten    --     26.1338                 6.6315                15.9104

                     79                     80                     81
                      A                      A                      A
 Frequencies --   1539.2873              1550.8593              1557.7274
 Red. masses --      1.1527                 1.2576                 1.0813
 Frc consts  --      1.6092                 1.7822                 1.5459
 IR Inten    --      8.1110               104.7935                 3.5903

                     82                     83                     84
                      A                      A                      A
 Frequencies --   1569.7601              1640.9456              1678.8218
 Red. masses --      1.9055                 5.4258                 5.7147
 Frc consts  --      2.7665                 8.6081                 9.4897
 IR Inten    --    125.1183                10.8030                23.2954

                     85                     86                     87
                      A                      A                      A
 Frequencies --   2982.7922              3014.3013              3044.9302
 Red. masses --      1.0729                 1.0554                 1.0494
 Frc consts  --      5.6239                 5.6500                 5.7327
 IR Inten    --     92.8934                30.6653                 4.6952

                     88                     89                     90
                      A                      A                      A
 Frequencies --   3046.2142              3050.8463              3053.0736
 Red. masses --      1.0460                 1.1087                 1.0456
 Frc consts  --      5.7186                 6.0798                 5.7424
 IR Inten    --     22.4705                37.9045                34.8569

                     91                     92                     93
                      A                      A                      A
 Frequencies --   3063.5528              3073.9030              3094.3464
 Red. masses --      1.0351                 1.0895                 1.0991
 Frc consts  --      5.7239                 6.0652                 6.2004
 IR Inten    --     21.6221                68.5528                30.9790

                     94                     95                     96
                      A                      A                      A
 Frequencies --   3109.8628              3116.2433              3135.1275
 Red. masses --      1.1002                 1.0984                 1.1011
 Frc consts  --      6.2692                 6.2845                 6.3768
 IR Inten    --      5.9338                52.9166                28.9068

                     97                     98                     99
                      A                      A                      A
 Frequencies --   3135.5747              3138.8608              3141.3101
 Red. masses --      1.1025                 1.1026                 1.1040
 Frc consts  --      6.3864                 6.4007                 6.4189
 IR Inten    --     22.9772                21.6848                28.5247

                    100                    101                    102
                      A                      A                      A
 Frequencies --   3177.3905              3214.9141              3217.2268
 Red. masses --      1.0889                 1.0925                 1.0898
 Frc consts  --      6.4773                 6.6528                 6.6460
 IR Inten    --     18.9809                 6.0685                 5.2644

                    103                    104                    105
                      A                      A                      A
 Frequencies --   3231.7438              3486.1939              3492.6952
 Red. masses --      1.0927                 1.0704                 1.0704
 Frc consts  --      6.7240                 7.6647                 7.6934
 IR Inten    --     12.3157               161.0777               132.5105

 - Thermochemistry -
 -------------------
 Temperature   298.150 Kelvin.  Pressure   1.00000 Atm.
 Atom     1 has atomic number  6 and mass  12.00000

 Molecular mass:   223.15723 amu.
 Principal axes and moments of inertia in atomic units:
                           1         2         3
     Eigenvalues --  1564.452197671.444738478.01412
           X            0.99992  -0.01293   0.00051
           Y            0.01293   0.99983   0.01297
           Z           -0.00067  -0.01296   0.99992
 This molecule is an asymmetric top.
 Rotational symmetry number  1.
 Warning -- assumption of classical behavior for rotation
           may cause significant error
 Rotational temperatures (Kelvin)      0.05536     0.01129     0.01022
 Rotational constants (GHZ):           1.15359     0.23525     0.21287
 Zero-point vibrational energy     860082.9 (Joules/Mol)
                                  205.56474 (Kcal/Mol)
 Warning -- explicit consideration of  26 degrees of freedom as
           vibrations may cause significant error
 Vibrational temperatures:     52.93    63.66   110.09   127.39   155.39
          (Kelvin)            177.15   204.99   278.54   302.99   349.13
                              367.38   375.65   397.26   413.39   442.04
                              485.70   536.81   557.96   586.98   620.20
                              632.63   672.73   702.53   786.92   809.26
                              874.50   946.62  1011.32  1058.19  1077.76
                             1138.83  1191.18  1200.84  1217.68  1240.23
                             1252.09  1263.15  1350.70  1361.45  1366.01
                             1370.44  1386.48  1425.51  1445.30  1471.18
                             1493.29  1552.02  1559.57  1598.87  1648.33
                             1664.63  1713.42  1722.71  1735.50  1752.43
                             1795.62  1811.13  1846.01  1870.35  1880.49
                             1894.59  1940.01  1944.57  2011.29  2040.72
                             2046.02  2053.57  2081.57  2089.81  2092.23
                             2163.81  2171.55  2175.83  2179.74  2181.38
                             2191.16  2203.01  2212.17  2214.69  2231.34
                             2241.22  2258.53  2360.95  2415.45  4291.57
                             4336.91  4380.98  4382.82  4389.49  4392.69
                             4407.77  4422.66  4452.07  4474.40  4483.58
                             4510.75  4511.39  4516.12  4519.64  4571.56
                             4625.54  4628.87  4649.76  5015.86  5025.21

 Zero-point correction=                           0.327588 (Hartree/Particle)
 Thermal correction to Energy=                    0.344139
 Thermal correction to Enthalpy=                  0.345084
 Thermal correction to Gibbs Free Energy=         0.283659
 Sum of electronic and zero-point Energies=           -712.956479
 Sum of electronic and thermal Energies=              -712.939928
 Sum of electronic and thermal Enthalpies=            -712.938984
 Sum of electronic and thermal Free Energies=         -713.000408

                     E (Thermal)             CV                S
                      KCal/Mol        Cal/Mol-Kelvin    Cal/Mol-Kelvin
 Total                  215.951             64.220            129.279
 Electronic               0.000              0.000              0.000
 Translational            0.889              2.981             42.111
 Rotational               0.889              2.981             32.987
 Vibrational            214.173             58.258             54.181
 Vibration     1          0.594              1.982              5.425
 Vibration     2          0.595              1.980              5.059
 Vibration     3          0.599              1.965              3.978
 Vibration     4          0.601              1.957              3.692
 Vibration     5          0.606              1.943              3.305
 Vibration     6          0.610              1.930              3.051
 Vibration     7          0.616              1.911              2.770
 Vibration     8          0.635              1.849              2.193
 Vibration     9          0.643              1.825              2.039
 Vibration    10          0.659              1.775              1.783
 Vibration    11          0.666              1.754              1.693
 Vibration    12          0.669              1.744              1.654
 Vibration    13          0.678              1.718              1.558
 Vibration    14          0.684              1.697              1.490
 Vibration    15          0.697              1.660              1.377
 Vibration    16          0.718              1.600              1.224
 Vibration    17          0.745              1.527              1.067
 Vibration    18          0.756              1.496              1.009
 Vibration    19          0.773              1.453              0.934
 Vibration    20          0.792              1.403              0.855
 Vibration    21          0.800              1.384              0.828
 Vibration    22          0.825              1.322              0.744
 Vibration    23          0.844              1.276              0.688
 Vibration    24          0.902              1.146              0.551
 Vibration    25          0.918              1.112              0.519
 Vibration    26          0.967              1.015              0.436

 Optimization completed.
    -- Stationary point found.
 Normal termination of Gaussian 16 at Fri Dec 11 00:35:58 2020.

 ----------------------------------------------------------------------
 # B3LYP/6-311++G(d,p) empiricaldispersion=gd3bj scf=xqc pop=npa geom=c
 heck
 ----------------------------------------------------------------------

 ---------------------------------------
 CID_117560214_JID_6683_Energie_neutraal
 ---------------------------------------
 Structure from the checkpoint file:  "JID_6683.chk"
 Charge =  0 Multiplicity = 1

 SCF Done:  E(RB3LYP) =  -713.491825922     A.U. after   14 cycles
 Normal termination of Gaussian 16 at Fri Dec 11 00:40:59 2020.

 ----------------------------------------------------------------------
 # B3LYP/6-311++G(d,p) empiricaldispersion=gd3bj scf=xqc pop=npa geom=c
 heck
 ----------------------------------------------------------------------

 -------------------------------------
 CID_117560214_JID_6683_Energie_kation
 -------------------------------------
 Structure from the checkpoint file:  "JID_6683.chk"
 Charge =  1 Multiplicity = 2

 SCF Done:  E(UB3LYP) =  -713.215391401     A.U. after   23 cycles
 Normal termination of Gaussian 16 at Fri Dec 11 00:53:23 2020.
 Gaussian 16:  ES64L-G16RevA.03 25-Dec-2016

 ----------------------------------------------------------------------
 # B3LYP/6-311++G(d,p) empiricaldispersion=gd3bj scf=xqc pop=npa geom=c
 heck
 ----------------------------------------------------------------------

 ------------------------------------
 CID_117560214_JID_6683_Energie_anion
 ------------------------------------
 Structure from the checkpoint file:  "JID_6683.chk"
 Charge = -1 Multiplicity = 2

                         Standard orientation:
 ---------------------------------------------------------------------
 Center     Atomic      Atomic             Coordinates (Angstroms)
 Number     Number       Type             X           Y           Z
 ---------------------------------------------------------------------
      1          6           0       -5.917860    0.456997    0.471411
      2          6           0       -4.448466    0.802530    0.316001
      3          8           0       -3.758332   -0.401142   -0.008686
      4          6           0       -2.407414   -0.341645   -0.195140
      5          6           0       -1.637119    0.821158   -0.088007
      6          6           0       -0.259249    0.770453   -0.309191
      7          6           0        0.376288   -0.436842   -0.610895
      8          6           0       -0.408562   -1.594816   -0.720974
      9          6           0       -1.782388   -1.551313   -0.525960
     10          7           0        1.793470   -0.474895   -0.845703
     11          6           0        2.700835   -0.611449    0.349582
     12          6           0        2.215730   -1.705144    1.314078
     13          6           0        4.074196   -0.998824   -0.215142
     14          6           0        2.770507    0.735850    1.100673
     15          6           0        3.323299    1.913597    0.290128
     16          8           0        2.558890    2.211379   -0.866894
     17          1           0       -6.313799    0.037979   -0.458755
     18          1           0       -6.492449    1.354842    0.722371
     19          1           0       -6.056514   -0.280227    1.268208
     20          1           0       -4.300898    1.544082   -0.482062
     21          1           0       -4.043066    1.225643    1.246309
     22          1           0       -2.096440    1.774735    0.143267
     23          1           0        0.329224    1.680885   -0.279075
     24          1           0        0.066970   -2.542665   -0.962334
     25          1           0       -2.392896   -2.443933   -0.616429
     26          1           0        1.994742   -1.257626   -1.465336
     27          1           0        2.128118   -2.669590    0.799573
     28          1           0        2.923014   -1.827550    2.141893
     29          1           0        1.236467   -1.456512    1.733335
     30          1           0        4.398057   -0.300195   -0.992127
     31          1           0        4.829291   -1.009439    0.577317
     32          1           0        4.039561   -2.003366   -0.655151
     33          1           0        1.768975    0.984627    1.469670
     34          1           0        3.404054    0.595106    1.986521
     35          1           0        3.319035    2.813878    0.915639
     36          1           0        4.376619    1.719513    0.026425
     37          1           0        2.324403    1.338863   -1.254075
 ---------------------------------------------------------------------

 SCF Done:  E(UB3LYP) =  -713.479623799     A.U. after   33 cycles
 SCF Done:  E(UB3LYP) =  -713.479623799     a.u. after    1 cycles

 The electronic state is 2-A.
 Alpha  occ. eigenvalues --  -19.06246 -19.01118 -14.22545 -10.14382 -10.13894
 Alpha  occ. eigenvalues --  -10.12706 -10.11974 -10.11163 -10.08560 -10.08424
 Alpha  occ. eigenvalues --  -10.08273 -10.08087 -10.07850 -10.07616 -10.07087
 Alpha  occ. eigenvalues --  -10.06619  -0.97944  -0.91753  -0.83764  -0.76040
 Alpha  occ. eigenvalues --   -0.70823  -0.68414  -0.66134  -0.63895  -0.62011
 Alpha  occ. eigenvalues --   -0.60125  -0.55816  -0.54454  -0.51639  -0.50018
 Alpha  occ. eigenvalues --   -0.46638  -0.45029  -0.42101  -0.40845  -0.39884
 Alpha  occ. eigenvalues --   -0.39742  -0.38091  -0.36146  -0.35680  -0.34676
 Alpha  occ. eigenvalues --   -0.33751  -0.32790  -0.32269  -0.31446  -0.31311
 Alpha  occ. eigenvalues --   -0.30767  -0.30193  -0.29740  -0.28144  -0.27955
 Alpha  occ. eigenvalues --   -0.27399  -0.27031  -0.25782  -0.24620  -0.24206
 Alpha  occ. eigenvalues --   -0.23666  -0.22528  -0.17553  -0.16854  -0.16785
 Alpha  occ. eigenvalues --   -0.12260   0.03955
 Alpha virt. eigenvalues --    0.05127   0.06497   0.07201   0.07515   0.07605
 Alpha virt. eigenvalues --    0.08129   0.08504   0.08835   0.09111   0.09620
 Alpha virt. eigenvalues --    0.10182   0.10295   0.11103   0.11218   0.11853

  Beta  occ. eigenvalues --  -19.06239 -19.01116 -14.22528 -10.14383 -10.13874
  Beta  occ. eigenvalues --  -10.12706 -10.11964 -10.11164 -10.08542 -10.08416
  Beta  occ. eigenvalues --  -10.08268 -10.08083 -10.07813 -10.07599 -10.07046
  Beta  occ. eigenvalues --  -10.06591  -0.97930  -0.91747  -0.83741  -0.76026
  Beta  occ. eigenvalues --   -0.70801  -0.68382  -0.66113  -0.63866  -0.61976
  Beta  occ. eigenvalues --   -0.60063  -0.55760  -0.54413  -0.51605  -0.49975
  Beta  occ. eigenvalues --   -0.46599  -0.44997  -0.42064  -0.40823  -0.39863
  Beta  occ. eigenvalues --   -0.39717  -0.38063  -0.36123  -0.35649  -0.34643
  Beta  occ. eigenvalues --   -0.33731  -0.32761  -0.32237  -0.31423  -0.31271
  Beta  occ. eigenvalues --   -0.30732  -0.30152  -0.29701  -0.28113  -0.27927
  Beta  occ. eigenvalues --   -0.27362  -0.26997  -0.25754  -0.24593  -0.24175
  Beta  occ. eigenvalues --   -0.23644  -0.22511  -0.17543  -0.16830  -0.16767
  Beta  occ. eigenvalues --   -0.12245
  Beta virt. eigenvalues --    0.05995   0.06317   0.07186   0.07265   0.07845
  Beta virt. eigenvalues --    0.07894   0.08397   0.08889   0.09022   0.09622
  Beta virt. eigenvalues --    0.10004   0.10411   0.10599   0.11222   0.11458

 Mulliken charges and spin densities:
               1          2
     1  C    1.357380  -2.071613
     2  C   -0.523656   0.522526
     3  O   -0.134802   0.036967
     4  C   -0.209098  -0.540602
     5  C    0.096534   0.356243
     6  C   -0.465232   0.327715
     7  C    0.717391  -0.630880
     8  C    0.170980  -0.297795
     9  C   -0.299223  -0.008447
    10  N   -0.097111  -0.048947
    11  C   -1.451736   1.585611
    12  C    0.133970  -0.709084
    13  C    1.006555  -1.517145
    14  C    0.356218  -0.491791
    15  C   -0.149016  -0.433388
    16  O   -0.235686  -0.001393
    17  H   -0.096064   0.242219
    18  H   -0.440070   0.591078
    19  H   -0.099955   0.247741
    20  H   -0.056810   0.207941
    21  H   -0.084779   0.238648
    22  H   -0.077070   0.298770
    23  H    0.224307  -0.022494
    24  H   -0.521953   0.686171
    25  H    0.084814   0.098027
    26  H    0.191820   0.096842
    27  H   -0.007191   0.166580
    28  H   -0.157123   0.299306
    29  H    0.065340   0.090553
    30  H   -0.025262   0.190022
    31  H   -0.151687   0.311920
    32  H   -0.450196   0.613387
    33  H    0.127080   0.034989
    34  H   -0.144223   0.303059
    35  H    0.064382   0.099734
    36  H    0.059265   0.075591
    37  H    0.221905   0.051941
 Sum of Mulliken charges =  -1.00000   1.00000

 Dipole moment (field-independent basis, Debye):
    X=              1.0548    Y=              0.7688    Z=             -0.1422  Tot=              1.3130
 Quadrupole moment (field-independent basis, Debye-Ang):
   XX=           -214.6841   YY=           -147.2685   ZZ=           -132.4913
   XY=             17.1376   XZ=              5.3238   YZ=              0.1690

 Summary of Natural Population Analysis:

                                       Natural Population
                Natural  -----------------------------------------------
    Atom  No    Charge         Core      Valence    Rydberg      Total
 -----------------------------------------------------------------------
      C    1   -0.29186      0.99966     2.28636    0.00584     3.29186
      C    2   -0.01292      0.99959     2.00054    0.01280     3.01292
      O    3   -0.27888      0.99985     3.26910    0.00993     4.27888
      C    4    0.15876      0.99938     1.82999    0.01186     2.84124
      C    5   -0.13890      0.99952     2.13219    0.00719     3.13890
      C    6   -0.10302      0.99951     2.09500    0.00852     3.10302
      C    7    0.06029      0.99945     1.92778    0.01248     2.93971
      C    8   -0.10351      0.99951     2.09425    0.00975     3.10351
      C    9   -0.11604      0.99953     2.10725    0.00926     3.11604
      N   10   -0.35789      0.99970     2.84373    0.01446     3.85789
      C   11    0.06324      0.99956     1.92251    0.01468     2.93676
      C   12   -0.29547      0.99961     2.28838    0.00748     3.29547
      C   13   -0.29322      0.99961     2.28521    0.00840     3.29322
      C   14   -0.21185      0.99956     2.20189    0.01040     3.21185
      C   15   -0.00803      0.99960     1.99671    0.01173     3.00803
      O   16   -0.38731      0.99990     3.38039    0.00702     4.38731
      H   17    0.10041      0.00000     0.39833    0.00126     0.39959
      H   18    0.10366      0.00000     0.39469    0.00165     0.39634
      H   19    0.10085      0.00000     0.39788    0.00127     0.39915
      H   20    0.08336      0.00000     0.41497    0.00167     0.41664
      H   21    0.08387      0.00000     0.41437    0.00177     0.41613
      H   22    0.10551      0.00000     0.39323    0.00125     0.39449
      H   23    0.11454      0.00000     0.38326    0.00221     0.38546
      H   24    0.10340      0.00000     0.39530    0.00131     0.39660
      H   25    0.10612      0.00000     0.39275    0.00113     0.39388
      H   26    0.18379      0.00000     0.31321    0.00301     0.31621
      H   27    0.10218      0.00000     0.39639    0.00143     0.39782
      H   28    0.10351      0.00000     0.39550    0.00099     0.39649
      H   29    0.10535      0.00000     0.39352    0.00113     0.39465
      H   30    0.10274      0.00000     0.39599    0.00127     0.39726
      H   31    0.10517      0.00000     0.39362    0.00121     0.39483
      H   32    0.10360      0.00000     0.39458    0.00181     0.39640
      H   33    0.10383      0.00000     0.39479    0.00138     0.39617
      H   34    0.10492      0.00000     0.39399    0.00109     0.39508
      H   35    0.08283      0.00000     0.41603    0.00114     0.41717
      H   36    0.07332      0.00000     0.42520    0.00148     0.42668
      H   37    0.24366      0.00000     0.25272    0.00362     0.25634
 =======================================================================
   * Total *    0.00000     15.99354    44.81160    0.19486    61.00000

 Normal termination of Gaussian 16 at Fri Dec 11 01:10:02 2020.
