 Gaussian 16, Revision A.03,

 -----------------------------------------------------------
 # opt freq B3LYP/6-31G(d) empiricaldispersion=gd3bj scf=xqc
 -----------------------------------------------------------

 ------------------------------
 CID_65303329_JID_5350_neutraal
 ------------------------------
 Symbolic Z-matrix:
 Charge =  0 Multiplicity = 1

 SCF Done:  E(RB3LYP) =  -962.233403539     A.U. after   14 cycles
 SCF Done:  E(RB3LYP) =  -962.237201568     A.U. after   12 cycles
 SCF Done:  E(RB3LYP) =  -962.237976404     A.U. after   12 cycles
 SCF Done:  E(RB3LYP) =  -962.238251895     A.U. after   12 cycles
 SCF Done:  E(RB3LYP) =  -962.238530661     A.U. after   12 cycles
 SCF Done:  E(RB3LYP) =  -962.238702778     A.U. after   12 cycles
 SCF Done:  E(RB3LYP) =  -962.238809816     A.U. after   12 cycles
 SCF Done:  E(RB3LYP) =  -962.238887286     A.U. after   11 cycles
 SCF Done:  E(RB3LYP) =  -962.238904335     A.U. after   11 cycles
 SCF Done:  E(RB3LYP) =  -962.238914506     A.U. after   11 cycles
 SCF Done:  E(RB3LYP) =  -962.239499304     A.U. after   12 cycles
 SCF Done:  E(RB3LYP) =  -962.239509648     A.U. after   10 cycles
 SCF Done:  E(RB3LYP) =  -962.239517775     A.U. after   10 cycles
 SCF Done:  E(RB3LYP) =  -962.239518041     A.U. after    8 cycles
 SCF Done:  E(RB3LYP) =  -962.239518095     A.U. after    7 cycles
 Optimization completed.
    -- Stationary point found.
 Normal termination of Gaussian 16 at Thu Dec 10 16:00:54 2020.

 --------------------------------------------------------------------
 #N Geom=AllCheck Guess=TCheck SCRF=Check GenChk RB3LYP/6-31G(d) Freq
 --------------------------------------------------------------------

 Structure from the checkpoint file:  "JID_5350.chk"
 ------------------------------
 CID_65303329_JID_5350_neutraal
 ------------------------------
 Charge =  0 Multiplicity = 1

 SCF Done:  E(RB3LYP) =  -962.239518095     A.U. after    1 cycles

  Exact polarizability: 195.421   4.836 152.645   4.012 -12.034 122.070
 Approx polarizability: 262.325   8.792 236.824  11.131 -28.716 187.774

                      1                      2                      3
                      A                      A                      A
 Frequencies --     19.6171                28.8635                30.5536
 Red. masses --      4.3730                 4.0260                 3.1702
 Frc consts  --      0.0010                 0.0020                 0.0017
 IR Inten    --      0.1864                 0.2304                 0.0459

                      4                      5                      6
                      A                      A                      A
 Frequencies --     57.9467                73.7621                91.6449
 Red. masses --      3.0804                 3.1837                 1.5838
 Frc consts  --      0.0061                 0.0102                 0.0078
 IR Inten    --      0.0300                 0.0445                 0.2463

                      7                      8                      9
                      A                      A                      A
 Frequencies --    101.5474               127.1988               178.1488
 Red. masses --      1.8631                 2.7593                 3.5619
 Frc consts  --      0.0113                 0.0263                 0.0666
 IR Inten    --      0.2413                 0.0204                 0.3117

                     10                     11                     12
                      A                      A                      A
 Frequencies --    201.2476               218.6928               240.2589
 Red. masses --      2.3967                 1.2128                 1.1466
 Frc consts  --      0.0572                 0.0342                 0.0390
 IR Inten    --      0.3330                 0.4255                 0.3856

                     13                     14                     15
                      A                      A                      A
 Frequencies --    244.5826               280.4557               302.6266
 Red. masses --      3.0917                 2.3035                 2.3549
 Frc consts  --      0.1090                 0.1067                 0.1271
 IR Inten    --      1.4775                 3.1471                 0.4720

                     16                     17                     18
                      A                      A                      A
 Frequencies --    319.5709               323.1150               355.9025
 Red. masses --      2.1286                 2.2658                 2.6971
 Frc consts  --      0.1281                 0.1394                 0.2013
 IR Inten    --      3.5637                 0.5279                 1.1656

                     19                     20                     21
                      A                      A                      A
 Frequencies --    372.1166               410.7724               427.6814
 Red. masses --      2.3669                 2.2133                 1.8320
 Frc consts  --      0.1931                 0.2200                 0.1974
 IR Inten    --      2.2156                 0.0865                 0.6581

                     22                     23                     24
                      A                      A                      A
 Frequencies --    478.9373               502.4863               542.5787
 Red. masses --      2.8794                 4.5197                 4.5118
 Frc consts  --      0.3891                 0.6724                 0.7826
 IR Inten    --      0.1596                 3.0093                 1.8851

                     25                     26                     27
                      A                      A                      A
 Frequencies --    586.8564               611.4796               653.6474
 Red. masses --      2.9440                 3.2648                 2.6842
 Frc consts  --      0.5974                 0.7192                 0.6757
 IR Inten    --      0.8618                 5.4461                 4.4631

                     28                     29                     30
                      A                      A                      A
 Frequencies --    704.5653               718.6764               735.6809
 Red. masses --      2.2672                 1.8911                 1.6600
 Frc consts  --      0.6631                 0.5755                 0.5293
 IR Inten    --     15.9023                18.3661                56.8723

                     31                     32                     33
                      A                      A                      A
 Frequencies --    769.4117               816.1790               834.1348
 Red. masses --      1.4640                 2.4370                 3.7299
 Frc consts  --      0.5106                 0.9565                 1.5290
 IR Inten    --     20.6347                 6.3589                 4.3320

                     34                     35                     36
                      A                      A                      A
 Frequencies --    844.3224               869.7823               884.9390
 Red. masses --      2.4790                 1.7938                 1.2646
 Frc consts  --      1.0412                 0.7995                 0.5835
 IR Inten    --     30.2550                 1.6568                 0.9202

                     37                     38                     39
                      A                      A                      A
 Frequencies --    900.9280               939.7271               948.2001
 Red. masses --      2.0340                 1.3282                 1.6670
 Frc consts  --      0.9727                 0.6911                 0.8831
 IR Inten    --     10.8916                 2.4041                 2.2786

                     40                     41                     42
                      A                      A                      A
 Frequencies --    949.5973               976.5684               978.1558
 Red. masses --      1.9623                 2.0138                 1.4051
 Frc consts  --      1.0425                 1.1315                 0.7921
 IR Inten    --      2.4805                 7.1073                 0.3893

                     43                     44                     45
                      A                      A                      A
 Frequencies --   1004.9569              1035.5551              1061.6969
 Red. masses --      1.5170                 1.6221                 1.8254
 Frc consts  --      0.9026                 1.0249                 1.2123
 IR Inten    --      7.6641                 1.7975                 5.0343

                     46                     47                     48
                      A                      A                      A
 Frequencies --   1070.9176              1101.1791              1111.3426
 Red. masses --      1.4974                 1.3682                 2.4406
 Frc consts  --      1.0118                 0.9775                 1.7760
 IR Inten    --      5.2348                 1.9056                 0.9802

                     49                     50                     51
                      A                      A                      A
 Frequencies --   1123.0197              1148.9088              1171.8558
 Red. masses --      1.6296                 2.5006                 2.5792
 Frc consts  --      1.2109                 1.9447                 2.0868
 IR Inten    --      3.3859                25.3723                45.8283

                     52                     53                     54
                      A                      A                      A
 Frequencies --   1181.4084              1194.8463              1205.9905
 Red. masses --      1.7885                 2.6439                 1.7329
 Frc consts  --      1.4707                 2.2239                 1.4850
 IR Inten    --      3.1660                 1.1631                 0.2536

                     55                     56                     57
                      A                      A                      A
 Frequencies --   1223.8364              1234.7727              1262.8061
 Red. masses --      1.2979                 1.5578                 1.6671
 Frc consts  --      1.1454                 1.3994                 1.5663
 IR Inten    --      3.3433                 3.0297                 5.9260

                     58                     59                     60
                      A                      A                      A
 Frequencies --   1279.5957              1321.0881              1346.1348
 Red. masses --      1.2705                 1.2243                 1.2273
 Frc consts  --      1.2257                 1.2589                 1.3103
 IR Inten    --      3.8216                 0.2639                 5.3111

                     61                     62                     63
                      A                      A                      A
 Frequencies --   1355.3803              1376.5570              1389.7385
 Red. masses --      1.2721                 1.4376                 1.3498
 Frc consts  --      1.3769                 1.6051                 1.5360
 IR Inten    --      1.6487                 5.2386                 5.0179

                     64                     65                     66
                      A                      A                      A
 Frequencies --   1394.7165              1407.6560              1414.4783
 Red. masses --      1.3396                 1.3646                 1.4698
 Frc consts  --      1.5354                 1.5932                 1.7326
 IR Inten    --     11.4422                 6.9807                 0.2128

                     67                     68                     69
                      A                      A                      A
 Frequencies --   1419.5039              1430.0023              1432.5034
 Red. masses --      2.3190                 1.2980                 1.3529
 Frc consts  --      2.7531                 1.5639                 1.6358
 IR Inten    --      2.6646                 4.6609                 0.8016

                     70                     71                     72
                      A                      A                      A
 Frequencies --   1445.2979              1449.9840              1496.0543
 Red. masses --      1.3542                 1.2457                 2.9519
 Frc consts  --      1.6667                 1.5431                 3.8927
 IR Inten    --      0.7431                 5.9300                 6.5415

                     73                     74                     75
                      A                      A                      A
 Frequencies --   1502.0091              1505.6340              1511.4729
 Red. masses --      1.1375                 1.1350                 1.1352
 Frc consts  --      1.5120                 1.5160                 1.5279
 IR Inten    --      4.1977                 1.1472                 4.6385

                     76                     77                     78
                      A                      A                      A
 Frequencies --   1514.5124              1518.5155              1518.8963
 Red. masses --      1.1503                 1.0589                 1.0666
 Frc consts  --      1.5546                 1.4386                 1.4498
 IR Inten    --     23.7853                10.7474                 2.4475

                     79                     80                     81
                      A                      A                      A
 Frequencies --   1525.1525              1529.1953              1534.3189
 Red. masses --      1.0553                 1.1876                 1.0647
 Frc consts  --      1.4463                 1.6363                 1.4768
 IR Inten    --      7.2689                 8.3239                 4.5260

                     82                     83                     84
                      A                      A                      A
 Frequencies --   1537.3193              1540.1356              1551.1559
 Red. masses --      1.1029                 1.0486                 1.0834
 Frc consts  --      1.5358                 1.4655                 1.5359
 IR Inten    --      3.1398                 6.2169                14.0122

                     85                     86                     87
                      A                      A                      A
 Frequencies --   1622.3067              2966.0007              3020.1350
 Red. masses --      5.6452                 1.0716                 1.0599
 Frc consts  --      8.7538                 5.5543                 5.6962
 IR Inten    --      0.8158                67.7363                34.1842

                     88                     89                     90
                      A                      A                      A
 Frequencies --   3029.5575              3034.5914              3036.5583
 Red. masses --      1.0796                 1.0368                 1.0637
 Frc consts  --      5.8381                 5.6255                 5.7788
 IR Inten    --     15.5717                36.9055                11.0997

                     91                     92                     93
                      A                      A                      A
 Frequencies --   3040.2268              3040.9427              3045.8016
 Red. masses --      1.0401                 1.0411                 1.0614
 Frc consts  --      5.6640                 5.6724                 5.8013
 IR Inten    --     33.3464                29.9544                41.3707

                     94                     95                     96
                      A                      A                      A
 Frequencies --   3048.6789              3060.6732              3063.9222
 Red. masses --      1.0704                 1.0819                 1.1026
 Frc consts  --      5.8615                 5.9713                 6.0985
 IR Inten    --     21.6184                27.7387                48.4195

                     97                     98                     99
                      A                      A                      A
 Frequencies --   3072.9629              3088.9123              3095.0657
 Red. masses --      1.0983                 1.0982                 1.0973
 Frc consts  --      6.1105                 6.1737                 6.1935
 IR Inten    --     12.3309                72.0245                31.7782

                    100                    101                    102
                      A                      A                      A
 Frequencies --   3095.9785              3097.5682              3103.1460
 Red. masses --      1.1040                 1.1002                 1.1000
 Frc consts  --      6.2345                 6.2196                 6.2407
 IR Inten    --     47.2788                16.8873                80.3447

                    103                    104                    105
                      A                      A                      A
 Frequencies --   3109.2316              3112.7606              3125.2689
 Red. masses --      1.1026                 1.1010                 1.1009
 Frc consts  --      6.2802                 6.2851                 6.3355
 IR Inten    --     18.0556                56.0235                18.4784

                    106                    107                    108
                      A                      A                      A
 Frequencies --   3209.0653              3270.8021              3507.7489
 Red. masses --      1.0910                 1.0965                 1.0729
 Frc consts  --      6.6196                 6.9112                 7.7779
 IR Inten    --     11.3356                 1.6122                 1.3530

 - Thermochemistry -
 -------------------
 Temperature   298.150 Kelvin.  Pressure   1.00000 Atm.
 Atom     1 has atomic number  6 and mass  12.00000

 Molecular mass:   225.15512 amu.
 Principal axes and moments of inertia in atomic units:
                           1         2         3
     Eigenvalues --  1884.844877352.387678219.08832
           X            0.99978   0.02074   0.00136
           Y           -0.02073   0.99976  -0.00696
           Z           -0.00150   0.00693   0.99997
 This molecule is an asymmetric top.
 Rotational symmetry number  1.
 Warning -- assumption of classical behavior for rotation
           may cause significant error
 Rotational temperatures (Kelvin)      0.04595     0.01178     0.01054
 Rotational constants (GHZ):           0.95750     0.24546     0.21958
 Zero-point vibrational energy     896787.5 (Joules/Mol)
                                  214.33736 (Kcal/Mol)
 Warning -- explicit consideration of  26 degrees of freedom as
           vibrations may cause significant error
 Vibrational temperatures:     28.22    41.53    43.96    83.37   106.13
          (Kelvin)            131.86   146.10   183.01   256.32   289.55
                              314.65   345.68   351.90   403.51   435.41
                              459.79   464.89   512.06   535.39   591.01
                              615.34   689.08   722.97   780.65   844.36
                              879.78   940.45  1013.71  1034.02  1058.48
                             1107.01  1174.30  1200.13  1214.79  1251.42
                             1273.23  1296.23  1352.06  1364.25  1366.26
                             1405.06  1407.35  1445.91  1489.93  1527.55
                             1540.81  1584.35  1598.97  1615.77  1653.02
                             1686.04  1699.78  1719.12  1735.15  1760.83
                             1776.56  1816.90  1841.05  1900.75  1936.79
                             1950.09  1980.56  1999.52  2006.69  2025.30
                             2035.12  2042.35  2057.45  2061.05  2079.46
                             2086.20  2152.49  2161.06  2166.27  2174.67
                             2179.05  2184.81  2185.35  2194.35  2200.17
                             2207.54  2211.86  2215.91  2231.77  2334.14
                             4267.41  4345.30  4358.86  4366.10  4368.93
                             4374.21  4375.24  4382.23  4386.37  4403.63
                             4408.30  4421.31  4444.26  4453.11  4454.42
                             4456.71  4464.73  4473.49  4478.57  4496.56
                             4617.13  4705.95  5046.87

 Zero-point correction=                           0.341568 (Hartree/Particle)
 Thermal correction to Energy=                    0.359048
 Thermal correction to Enthalpy=                  0.359992
 Thermal correction to Gibbs Free Energy=         0.294025
 Sum of electronic and zero-point Energies=           -961.897950
 Sum of electronic and thermal Energies=              -961.880471
 Sum of electronic and thermal Enthalpies=            -961.879526
 Sum of electronic and thermal Free Energies=         -961.945493

                     E (Thermal)             CV                S
                      KCal/Mol        Cal/Mol-Kelvin    Cal/Mol-Kelvin
 Total                  225.306             64.882            138.838
 Electronic               0.000              0.000              0.000
 Translational            0.889              2.981             42.137
 Rotational               0.889              2.981             33.099
 Vibrational            223.528             58.921             63.602
 Vibration     1          0.593              1.986              6.673
 Vibration     2          0.593              1.984              5.906
 Vibration     3          0.594              1.984              5.793
 Vibration     4          0.596              1.974              4.526
 Vibration     5          0.599              1.966              4.050
 Vibration     6          0.602              1.955              3.625
 Vibration     7          0.604              1.948              3.424
 Vibration     8          0.611              1.926              2.988
 Vibration     9          0.629              1.869              2.348
 Vibration    10          0.638              1.838              2.122
 Vibration    11          0.646              1.813              1.970
 Vibration    12          0.657              1.779              1.801
 Vibration    13          0.660              1.772              1.769
 Vibration    14          0.680              1.710              1.531
 Vibration    15          0.694              1.669              1.402
 Vibration    16          0.706              1.636              1.312
 Vibration    17          0.708              1.629              1.294
 Vibration    18          0.731              1.563              1.140
 Vibration    19          0.744              1.529              1.071
 Vibration    20          0.775              1.447              0.924
 Vibration    21          0.789              1.410              0.866
 Vibration    22          0.835              1.297              0.713
 Vibration    23          0.858              1.244              0.652
 Vibration    24          0.898              1.156              0.560
 Vibration    25          0.944              1.060              0.473
 Vibration    26          0.971              1.008              0.430

                           ! Non-Optimized Parameters !
 Normal termination of Gaussian 16 at Thu Dec 10 16:13:28 2020.

 ----------------------------------------------------------------------
 # B3LYP/6-311++G(d,p) empiricaldispersion=gd3bj scf=xqc pop=npa geom=c
 heck
 ----------------------------------------------------------------------

 --------------------------------------
 CID_65303329_JID_5350_Energie_neutraal
 --------------------------------------
 Structure from the checkpoint file:  "JID_5350.chk"
 Charge =  0 Multiplicity = 1

 SCF Done:  E(RB3LYP) =  -962.423504363     A.U. after   14 cycles
 Normal termination of Gaussian 16 at Thu Dec 10 16:19:37 2020.

 ----------------------------------------------------------------------
 # B3LYP/6-311++G(d,p) empiricaldispersion=gd3bj scf=xqc pop=npa geom=c
 heck
 ----------------------------------------------------------------------

 ------------------------------------
 CID_65303329_JID_5350_Energie_kation
 ------------------------------------
 Structure from the checkpoint file:  "JID_5350.chk"
 Charge =  1 Multiplicity = 2

 SCF Done:  E(UB3LYP) =  -962.144023159     A.U. after   28 cycles
 Normal termination of Gaussian 16 at Thu Dec 10 16:37:56 2020.
 Gaussian 16:  ES64L-G16RevA.03 25-Dec-2016

 ----------------------------------------------------------------------
 # B3LYP/6-311++G(d,p) empiricaldispersion=gd3bj scf=xqc pop=npa geom=c
 heck
 ----------------------------------------------------------------------

 -----------------------------------
 CID_65303329_JID_5350_Energie_anion
 -----------------------------------
 Structure from the checkpoint file:  "JID_5350.chk"
 Charge = -1 Multiplicity = 2

                         Standard orientation:
 ---------------------------------------------------------------------
 Center     Atomic      Atomic             Coordinates (Angstroms)
 Number     Number       Type             X           Y           Z
 ---------------------------------------------------------------------
      1          6           0       -4.072033   -1.368510    0.756353
      2          6           0       -3.362058   -0.120615    0.304570
      3          6           0       -2.014871    0.108716    0.458402
      4         16           0       -1.564269    1.661232   -0.207642
      5          6           0       -3.197710    1.996088   -0.685788
      6          6           0       -4.029672    0.967504   -0.350095
      7          6           0       -0.977819   -0.799110    1.058821
      8          6           0       -0.589162   -1.985607    0.151208
      9          6           0       -0.007945   -1.590301   -1.213374
     10          6           0        1.253011   -0.725163   -1.145794
     11          7           0        2.341674   -1.410431   -0.453751
     12          6           0        3.620576   -0.706186   -0.480859
     13          6           0        3.674565    0.708156    0.139067
     14          6           0        3.222480    0.699968    1.602837
     15          6           0        5.089727    1.280111    0.001903
     16          1           0       -3.510228   -1.896487    1.532970
     17          1           0       -5.061928   -1.131949    1.162328
     18          1           0       -4.221391   -2.071277   -0.073792
     19          1           0       -3.444636    2.928594   -1.174330
     20          1           0       -5.096211    0.972485   -0.551886
     21          1           0       -0.084903   -0.217749    1.316542
     22          1           0       -1.358867   -1.196287    2.008736
     23          1           0        0.125530   -2.620684    0.691682
     24          1           0       -1.478198   -2.606187   -0.013816
     25          1           0        0.226623   -2.504692   -1.770986
     26          1           0       -0.770865   -1.045935   -1.783235
     27          1           0        1.595496   -0.517484   -2.167877
     28          1           0        1.002068    0.256881   -0.707523
     29          1           0        2.075746   -1.588660    0.511853
     30          1           0        4.357046   -1.340658    0.032679
     31          1           0        3.940363   -0.643680   -1.530297
     32          1           0        2.991023    1.357641   -0.425518
     33          1           0        3.869448    0.050409    2.207625
     34          1           0        3.262097    1.705689    2.035757
     35          1           0        2.192978    0.338453    1.708655
     36          1           0        5.409872    1.305258   -1.046559
     37          1           0        5.147744    2.301236    0.395665
     38          1           0        5.813237    0.668074    0.556343
 ---------------------------------------------------------------------

 SCF Done:  E(UB3LYP) =  -962.409461534     A.U. after   33 cycles
 SCF Done:  E(UB3LYP) =  -962.409461534     a.u. after    1 cycles

 The electronic state is 2-A.
 Alpha  occ. eigenvalues --  -88.77489 -14.19998 -10.10011 -10.09989 -10.09532
 Alpha  occ. eigenvalues --  -10.09442 -10.08205 -10.08175 -10.07929 -10.07879
 Alpha  occ. eigenvalues --  -10.07176 -10.07148 -10.06861 -10.06791 -10.06425
 Alpha  occ. eigenvalues --   -7.86121  -5.82404  -5.82041  -5.81725  -0.81224
 Alpha  occ. eigenvalues --   -0.78596  -0.71236  -0.69727  -0.66926  -0.64904
 Alpha  occ. eigenvalues --   -0.60998  -0.59432  -0.57945  -0.56428  -0.53903
 Alpha  occ. eigenvalues --   -0.48410  -0.46954  -0.46501  -0.41666  -0.40286
 Alpha  occ. eigenvalues --   -0.39486  -0.38158  -0.36985  -0.35291  -0.34786
 Alpha  occ. eigenvalues --   -0.34147  -0.32650  -0.32166  -0.30696  -0.30581
 Alpha  occ. eigenvalues --   -0.30028  -0.29448  -0.28344  -0.28061  -0.27328
 Alpha  occ. eigenvalues --   -0.26900  -0.26422  -0.25605  -0.24774  -0.24191
 Alpha  occ. eigenvalues --   -0.23864  -0.23378  -0.22940  -0.22815  -0.15273
 Alpha  occ. eigenvalues --   -0.13233  -0.12825   0.04271
 Alpha virt. eigenvalues --    0.05760   0.06551   0.07277   0.07689   0.07814
 Alpha virt. eigenvalues --    0.08147   0.08665   0.08827   0.09705   0.10190
 Alpha virt. eigenvalues --    0.10297   0.10734   0.11197   0.11431   0.11596

  Beta  occ. eigenvalues --  -88.77484 -14.19985 -10.09981 -10.09950 -10.09520
  Beta  occ. eigenvalues --  -10.09440 -10.08184 -10.08166 -10.07924 -10.07870
  Beta  occ. eigenvalues --  -10.07154 -10.07105 -10.06834 -10.06786 -10.06391
  Beta  occ. eigenvalues --   -7.86116  -5.82401  -5.82038  -5.81710  -0.81204
  Beta  occ. eigenvalues --   -0.78550  -0.71207  -0.69691  -0.66877  -0.64863
  Beta  occ. eigenvalues --   -0.60957  -0.59372  -0.57883  -0.56373  -0.53856
  Beta  occ. eigenvalues --   -0.48363  -0.46901  -0.46452  -0.41610  -0.40253
  Beta  occ. eigenvalues --   -0.39436  -0.38131  -0.36952  -0.35252  -0.34752
  Beta  occ. eigenvalues --   -0.34099  -0.32607  -0.32117  -0.30657  -0.30545
  Beta  occ. eigenvalues --   -0.29987  -0.29415  -0.28309  -0.28028  -0.27291
  Beta  occ. eigenvalues --   -0.26824  -0.26389  -0.25569  -0.24731  -0.24159
  Beta  occ. eigenvalues --   -0.23829  -0.23343  -0.22913  -0.22784  -0.15189
  Beta  occ. eigenvalues --   -0.13113  -0.12755
  Beta virt. eigenvalues --    0.06188   0.06548   0.06937   0.07594   0.07936
  Beta virt. eigenvalues --    0.08247   0.08463   0.09002   0.09335   0.10082
  Beta virt. eigenvalues --    0.10418   0.10531   0.10901   0.11348   0.11667

 Mulliken charges and spin densities:
               1          2
     1  C    1.964968  -2.792681
     2  C   -1.615940   1.646076
     3  C    0.285953   0.370212
     4  S   -0.122422  -0.140636
     5  C   -0.314348   0.261197
     6  C    0.189262  -0.561705
     7  C    0.134913  -0.291751
     8  C    0.615433  -0.713117
     9  C   -0.727534   0.069474
    10  C   -0.010195  -0.334352
    11  N   -0.047420   0.099212
    12  C    0.068003  -0.768224
    13  C   -0.783183   1.351723
    14  C    0.677120  -1.262611
    15  C    0.174936  -0.814847
    16  H   -0.201912   0.341019
    17  H   -0.256954   0.394865
    18  H   -0.170804   0.350586
    19  H    0.088232   0.133607
    20  H   -0.228700   0.378844
    21  H   -0.078640   0.115411
    22  H   -0.432727   0.664790
    23  H   -0.121976   0.293725
    24  H   -0.051247   0.204487
    25  H    0.086911   0.077163
    26  H    0.132773   0.026425
    27  H    0.071046   0.073194
    28  H    0.148555  -0.182223
    29  H    0.124935   0.109067
    30  H   -0.021239   0.178912
    31  H    0.062067   0.078506
    32  H    0.151599   0.001627
    33  H   -0.118818   0.264508
    34  H   -0.246316   0.381147
    35  H   -0.033449   0.202363
    36  H   -0.169681   0.298907
    37  H   -0.181897   0.322800
    38  H   -0.041306   0.172300
 Sum of Mulliken charges =  -1.00000   1.00000

 Dipole moment (field-independent basis, Debye):
    X=             -0.2980    Y=              2.4262    Z=             -4.0327  Tot=              4.7157
 Quadrupole moment (field-independent basis, Debye-Ang):
   XX=           -204.7990   YY=           -146.4092   ZZ=           -140.7225
   XY=            -13.5866   XZ=              1.9327   YZ=              0.8627

 Summary of Natural Population Analysis:

                                       Natural Population
                Natural  -----------------------------------------------
    Atom  No    Charge         Core      Valence    Rydberg      Total
 -----------------------------------------------------------------------
      C    1   -0.29153      0.99963     2.28610    0.00581     3.29153
      C    2   -0.04722      0.99941     2.03655    0.01126     3.04722
      C    3   -0.08912      0.99942     2.07561    0.01409     3.08912
      S    4    0.20279      4.99940     2.77772    0.02009     7.79721
      C    5   -0.19381      0.99954     2.18373    0.01054     3.19381
      C    6   -0.12228      0.99949     2.11212    0.01067     3.12228
      C    7   -0.21182      0.99957     2.20038    0.01187     3.21182
      C    8   -0.18682      0.99962     2.17824    0.00896     3.18682
      C    9   -0.19435      0.99962     2.18542    0.00930     3.19435
      C   10   -0.08990      0.99962     2.08079    0.00949     3.08990
      N   11   -0.34126      0.99974     2.83009    0.01142     3.84126
      C   12   -0.08254      0.99960     2.07052    0.01242     3.08254
      C   13   -0.12616      0.99961     2.11789    0.00865     3.12616
      C   14   -0.28851      0.99964     2.28183    0.00703     3.28851
      C   15   -0.28218      0.99965     2.27757    0.00496     3.28218
      H   16    0.10623      0.00000     0.39246    0.00131     0.39377
      H   17    0.10392      0.00000     0.39495    0.00113     0.39608
      H   18    0.10524      0.00000     0.39334    0.00142     0.39476
      H   19    0.10633      0.00000     0.39294    0.00073     0.39367
      H   20    0.10446      0.00000     0.39463    0.00091     0.39554
      H   21    0.10269      0.00000     0.39550    0.00181     0.39731
      H   22    0.11189      0.00000     0.38633    0.00178     0.38811
      H   23    0.09720      0.00000     0.40141    0.00139     0.40280
      H   24    0.10041      0.00000     0.39824    0.00135     0.39959
      H   25    0.09916      0.00000     0.39972    0.00112     0.40084
      H   26    0.10013      0.00000     0.39882    0.00105     0.39987
      H   27    0.09091      0.00000     0.40801    0.00108     0.40909
      H   28    0.08004      0.00000     0.41770    0.00226     0.41996
      H   29    0.17237      0.00000     0.32383    0.00380     0.32763
      H   30    0.09196      0.00000     0.40708    0.00095     0.40804
      H   31    0.08966      0.00000     0.40927    0.00106     0.41034
      H   32    0.09211      0.00000     0.40587    0.00202     0.40789
      H   33    0.09676      0.00000     0.40207    0.00116     0.40324
      H   34    0.10129      0.00000     0.39774    0.00098     0.39871
      H   35    0.09815      0.00000     0.40029    0.00155     0.40185
      H   36    0.09760      0.00000     0.40134    0.00106     0.40240
      H   37    0.10006      0.00000     0.39892    0.00103     0.39994
      H   38    0.09614      0.00000     0.40273    0.00113     0.40386
 =======================================================================
   * Total *    0.00000     18.99358    42.81778    0.18865    62.00000

 Normal termination of Gaussian 16 at Thu Dec 10 17:06:49 2020.
