 Gaussian 16, Revision A.03,

 -----------------------------------------------------------
 # opt freq B3LYP/6-31G(d) empiricaldispersion=gd3bj scf=xqc
 -----------------------------------------------------------

 ------------------------------
 CID_28890240_JID_8661_neutraal
 ------------------------------
 Symbolic Z-matrix:
 Charge =  0 Multiplicity = 1

 SCF Done:  E(RB3LYP) =  -817.965157022     A.U. after   16 cycles
 SCF Done:  E(RB3LYP) =  -817.968436023     A.U. after   13 cycles
 SCF Done:  E(RB3LYP) =  -817.964275148     A.U. after   15 cycles
 SCF Done:  E(RB3LYP) =  -817.969135259     A.U. after   13 cycles
 SCF Done:  E(RB3LYP) =  -817.972744242     A.U. after   11 cycles
 SCF Done:  E(RB3LYP) =  -817.974489185     A.U. after   12 cycles
 SCF Done:  E(RB3LYP) =  -817.975436463     A.U. after   13 cycles
 SCF Done:  E(RB3LYP) =  -817.975953483     A.U. after   12 cycles
 SCF Done:  E(RB3LYP) =  -817.976344447     A.U. after   12 cycles
 SCF Done:  E(RB3LYP) =  -817.976606667     A.U. after   12 cycles
 SCF Done:  E(RB3LYP) =  -817.976815904     A.U. after    9 cycles
 SCF Done:  E(RB3LYP) =  -817.976816231     A.U. after    8 cycles
 SCF Done:  E(RB3LYP) =  -817.976816649     A.U. after    8 cycles
 SCF Done:  E(RB3LYP) =  -817.976816719     A.U. after    7 cycles
 Optimization completed.
    -- Stationary point found.
 Normal termination of Gaussian 16 at Fri Dec 11 21:35:40 2020.

 --------------------------------------------------------------------
 #N Geom=AllCheck Guess=TCheck SCRF=Check GenChk RB3LYP/6-31G(d) Freq
 --------------------------------------------------------------------

 Structure from the checkpoint file:  "JID_8661.chk"
 ------------------------------
 CID_28890240_JID_8661_neutraal
 ------------------------------
 Charge =  0 Multiplicity = 1

 SCF Done:  E(RB3LYP) =  -817.976816719     A.U. after    1 cycles

  Exact polarizability: 208.979 -23.385 123.046  -2.455   4.795 126.969
 Approx polarizability: 323.182 -48.070 190.102  -3.097   3.803 229.951

                      1                      2                      3
                      A                      A                      A
 Frequencies --     29.1888                45.6165                59.6146
 Red. masses --      5.6320                 5.7884                 4.8124
 Frc consts  --      0.0028                 0.0071                 0.0101
 IR Inten    --      0.1395                 0.3483                 0.1487

                      4                      5                      6
                      A                      A                      A
 Frequencies --     68.3086                94.6142               101.8003
 Red. masses --      5.4343                 4.9823                 3.8367
 Frc consts  --      0.0149                 0.0263                 0.0234
 IR Inten    --      0.8789                 0.9285                 0.5795

                      7                      8                      9
                      A                      A                      A
 Frequencies --    145.6391               174.1272               193.9856
 Red. masses --      1.0495                 4.2558                 4.3541
 Frc consts  --      0.0131                 0.0760                 0.0965
 IR Inten    --      0.4369                 2.5851                 0.9486

                     10                     11                     12
                      A                      A                      A
 Frequencies --    270.3454               284.3345               295.0834
 Red. masses --      5.6027                 3.3929                 6.0496
 Frc consts  --      0.2413                 0.1616                 0.3104
 IR Inten    --      1.7117                 7.2470                 4.6115

                     13                     14                     15
                      A                      A                      A
 Frequencies --    309.1800               329.5197               377.7977
 Red. masses --      3.6111                 1.2929                 4.4041
 Frc consts  --      0.2034                 0.0827                 0.3704
 IR Inten    --      0.8586                29.1370                 5.5033

                     16                     17                     18
                      A                      A                      A
 Frequencies --    407.6797               451.3230               468.6827
 Red. masses --      6.7707                 3.1895                 3.0326
 Frc consts  --      0.6630                 0.3828                 0.3925
 IR Inten    --      2.3738                 1.5124                 9.7856

                     19                     20                     21
                      A                      A                      A
 Frequencies --    487.0781               505.0284               516.6151
 Red. masses --      2.6656                 2.2606                 2.4010
 Frc consts  --      0.3726                 0.3397                 0.3776
 IR Inten    --     29.0125                18.1912                31.5789

                     22                     23                     24
                      A                      A                      A
 Frequencies --    552.2032               569.3455               578.3373
 Red. masses --      4.5668                 4.7361                 4.9001
 Frc consts  --      0.8205                 0.9045                 0.9656
 IR Inten    --      7.0840                12.2367                 2.2488

                     25                     26                     27
                      A                      A                      A
 Frequencies --    614.9100               632.5306               640.1206
 Red. masses --      2.2129                 7.3307                 4.9767
 Frc consts  --      0.4930                 1.7281                 1.2015
 IR Inten    --     52.0231                 2.6958                11.4789

                     28                     29                     30
                      A                      A                      A
 Frequencies --    657.7351               693.5487               728.1428
 Red. masses --      4.8471                 1.5547                 4.9932
 Frc consts  --      1.2355                 0.4406                 1.5598
 IR Inten    --      7.8579               204.8423                 5.3834

                     31                     32                     33
                      A                      A                      A
 Frequencies --    743.7964               772.1229               780.8925
 Red. masses --      4.1361                 1.7292                 2.5681
 Frc consts  --      1.3482                 0.6074                 0.9227
 IR Inten    --     24.6546                18.3354                20.2730

                     34                     35                     36
                      A                      A                      A
 Frequencies --    812.8530               837.2423               852.7587
 Red. masses --      3.4702                 1.6060                 3.0341
 Frc consts  --      1.3509                 0.6633                 1.3000
 IR Inten    --     11.4091                26.8720                 7.8579

                     37                     38                     39
                      A                      A                      A
 Frequencies --    882.9281               903.8697               907.2403
 Red. masses --      1.5075                 2.1996                 2.1810
 Frc consts  --      0.6924                 1.0588                 1.0577
 IR Inten    --      2.7581                29.6162                29.2728

                     40                     41                     42
                      A                      A                      A
 Frequencies --    937.2728               954.3611               955.4107
 Red. masses --      3.7383                 1.3733                 1.4615
 Frc consts  --      1.9349                 0.7369                 0.7860
 IR Inten    --      6.8506                 1.1224                 1.9475

                     43                     44                     45
                      A                      A                      A
 Frequencies --    982.7975              1038.6472              1068.4969
 Red. masses --      1.2524                 1.6007                 1.9011
 Frc consts  --      0.7127                 1.0174                 1.2788
 IR Inten    --      0.0573                18.8966                 9.0514

                     46                     47                     48
                      A                      A                      A
 Frequencies --   1069.5907              1086.3944              1106.3229
 Red. masses --      1.7970                 1.8027                 1.6766
 Frc consts  --      1.2112                 1.2536                 1.2090
 IR Inten    --      2.9527                 0.5047                 3.4402

                     49                     50                     51
                      A                      A                      A
 Frequencies --   1136.2036              1188.9999              1223.7390
 Red. masses --      1.7526                 1.0949                 3.4815
 Frc consts  --      1.3331                 0.9120                 3.0718
 IR Inten    --     17.6195                 1.1060                13.1766

                     52                     53                     54
                      A                      A                      A
 Frequencies --   1237.4367              1248.5655              1283.8760
 Red. masses --      1.6383                 2.4798                 2.9747
 Frc consts  --      1.4780                 2.2776                 2.8889
 IR Inten    --     36.2283                45.1467                82.7876

                     55                     56                     57
                      A                      A                      A
 Frequencies --   1298.6731              1308.2088              1338.5604
 Red. masses --      1.6753                 3.2350                 3.5315
 Frc consts  --      1.6647                 3.2620                 3.7281
 IR Inten    --      7.3457               114.9074                47.6379

                     58                     59                     60
                      A                      A                      A
 Frequencies --   1342.0531              1352.6416              1368.6787
 Red. masses --      5.0667                 3.8356                 1.4324
 Frc consts  --      5.3767                 4.1348                 1.5810
 IR Inten    --     57.8029               207.5157                20.9419

                     61                     62                     63
                      A                      A                      A
 Frequencies --   1425.4968              1444.0061              1471.3074
 Red. masses --      1.3998                 1.9569                 2.5782
 Frc consts  --      1.6758                 2.4041                 3.2883
 IR Inten    --     60.6143                51.1521                35.0677

                     64                     65                     66
                      A                      A                      A
 Frequencies --   1500.4491              1503.4054              1512.7790
 Red. masses --      2.0838                 1.1496                 1.0552
 Frc consts  --      2.7640                 1.5309                 1.4227
 IR Inten    --     44.9240                12.6979                 8.6790

                     67                     68                     69
                      A                      A                      A
 Frequencies --   1542.8930              1549.7122              1626.0283
 Red. masses --      2.9899                 2.7467                 5.7686
 Frc consts  --      4.1936                 3.8866                 8.9862
 IR Inten    --    109.9675               136.7098                93.2651

                     70                     71                     72
                      A                      A                      A
 Frequencies --   1636.2996              1645.3752              1665.8753
 Red. masses --      6.3281                 5.4565                 5.4501
 Frc consts  --      9.9827                 8.7035                 8.9113
 IR Inten    --      3.3041                 0.3240                 5.3462

                     73                     74                     75
                      A                      A                      A
 Frequencies --   1696.3502              1808.9541              3069.0856
 Red. masses --      1.2427                 8.7113                 1.0374
 Frc consts  --      2.1068                16.7954                 5.7570
 IR Inten    --     66.2269               319.8507                 3.2962

                     76                     77                     78
                      A                      A                      A
 Frequencies --   3131.7582              3140.1490              3180.7308
 Red. masses --      1.1004                 1.0891                 1.1023
 Frc consts  --      6.3586                 6.3273                 6.5704
 IR Inten    --      7.4201                33.7207                 8.5464

                     79                     80                     81
                      A                      A                      A
 Frequencies --   3191.2255              3195.8847              3205.6989
 Red. masses --      1.0896                 1.0858                 1.0899
 Frc consts  --      6.5378                 6.5342                 6.5988
 IR Inten    --     21.1288                 0.7743                 9.2448

                     82                     83                     84
                      A                      A                      A
 Frequencies --   3215.4367              3222.3296              3224.9267
 Red. masses --      1.0933                 1.0976                 1.0941
 Frc consts  --      6.6601                 6.7150                 6.7042
 IR Inten    --     12.8443                12.3214                 6.5997

                     85                     86                     87
                      A                      A                      A
 Frequencies --   3537.9025              3575.0118              3634.7360
 Red. masses --      1.0484                 1.0751                 1.0975
 Frc consts  --      7.7318                 8.0956                 8.5425
 IR Inten    --      9.6701                23.9246                11.3097

 - Thermochemistry -
 -------------------
 Temperature   298.150 Kelvin.  Pressure   1.00000 Atm.
 Atom     1 has atomic number  6 and mass  12.00000

 Molecular mass:   243.10078 amu.
 Principal axes and moments of inertia in atomic units:
                           1         2         3
     Eigenvalues --  2511.735624950.370835957.46043
           X            0.99999  -0.00181  -0.00315
           Y            0.00196   0.99892   0.04642
           Z            0.00306  -0.04643   0.99892
 This molecule is an asymmetric top.
 Rotational symmetry number  1.
 Warning -- assumption of classical behavior for rotation
           may cause significant error
 Rotational temperatures (Kelvin)      0.03448     0.01750     0.01454
 Rotational constants (GHZ):           0.71852     0.36457     0.30294
 Zero-point vibrational energy     645127.4 (Joules/Mol)
                                  154.18915 (Kcal/Mol)
 Warning -- explicit consideration of  25 degrees of freedom as
           vibrations may cause significant error
 Vibrational temperatures:     42.00    65.63    85.77    98.28   136.13
          (Kelvin)            146.47   209.54   250.53   279.10   388.97
                              409.09   424.56   444.84   474.11   543.57
                              586.56   649.35   674.33   700.80   726.62
                              743.29   794.50   819.16   832.10   884.72
                              910.07   920.99   946.33   997.86  1047.64
                             1070.16  1110.91  1123.53  1169.51  1204.60
                             1226.93  1270.34  1300.47  1305.32  1348.53
                             1373.11  1374.62  1414.03  1494.38  1537.33
                             1538.90  1563.08  1591.75  1634.74  1710.71
                             1760.69  1780.40  1796.41  1847.21  1868.50
                             1882.22  1925.89  1930.92  1946.15  1969.22
                             2050.97  2077.60  2116.88  2158.81  2163.07
                             2176.55  2219.88  2229.69  2339.49  2354.27
                             2367.33  2396.82  2440.67  2602.68  4415.73
                             4505.90  4517.97  4576.36  4591.46  4598.17
                             4612.29  4626.30  4636.21  4639.95  5090.25
                             5143.64  5229.57

 Zero-point correction=                           0.245716 (Hartree/Particle)
 Thermal correction to Energy=                    0.261592
 Thermal correction to Enthalpy=                  0.262536
 Thermal correction to Gibbs Free Energy=         0.201626
 Sum of electronic and zero-point Energies=           -817.731101
 Sum of electronic and thermal Energies=              -817.715225
 Sum of electronic and thermal Enthalpies=            -817.714281
 Sum of electronic and thermal Free Energies=         -817.775191

                     E (Thermal)             CV                S
                      KCal/Mol        Cal/Mol-Kelvin    Cal/Mol-Kelvin
 Total                  164.151             61.387            128.197
 Electronic               0.000              0.000              0.000
 Translational            0.889              2.981             42.366
 Rotational               0.889              2.981             32.671
 Vibrational            162.374             55.426             53.160
 Vibration     1          0.593              1.984              5.884
 Vibration     2          0.595              1.979              4.999
 Vibration     3          0.597              1.974              4.470
 Vibration     4          0.598              1.969              4.202
 Vibration     5          0.603              1.953              3.562
 Vibration     6          0.604              1.948              3.420
 Vibration     7          0.617              1.907              2.728
 Vibration     8          0.627              1.874              2.390
 Vibration     9          0.635              1.848              2.189
 Vibration    10          0.674              1.728              1.594
 Vibration    11          0.683              1.703              1.507
 Vibration    12          0.689              1.683              1.445
 Vibration    13          0.699              1.656              1.367
 Vibration    14          0.712              1.617              1.262
 Vibration    15          0.748              1.517              1.048
 Vibration    16          0.772              1.454              0.935
 Vibration    17          0.810              1.358              0.792
 Vibration    18          0.826              1.320              0.741
 Vibration    19          0.843              1.279              0.691
 Vibration    20          0.860              1.239              0.646
 Vibration    21          0.872              1.213              0.618
 Vibration    22          0.908              1.135              0.540
 Vibration    23          0.925              1.098              0.505
 Vibration    24          0.935              1.078              0.488
 Vibration    25          0.974              1.000              0.425

                           ! Non-Optimized Parameters !
 Normal termination of Gaussian 16 at Fri Dec 11 21:51:00 2020.

 ----------------------------------------------------------------------
 # B3LYP/6-311++G(d,p) empiricaldispersion=gd3bj scf=xqc pop=npa geom=c
 heck
 ----------------------------------------------------------------------

 --------------------------------------
 CID_28890240_JID_8661_Energie_neutraal
 --------------------------------------
 Structure from the checkpoint file:  "JID_8661.chk"
 Charge =  0 Multiplicity = 1

 SCF Done:  E(RB3LYP) =  -818.207325341     A.U. after   16 cycles
 Normal termination of Gaussian 16 at Fri Dec 11 21:58:05 2020.

 ----------------------------------------------------------------------
 # B3LYP/6-311++G(d,p) empiricaldispersion=gd3bj scf=xqc pop=npa geom=c
 heck
 ----------------------------------------------------------------------

 ------------------------------------
 CID_28890240_JID_8661_Energie_kation
 ------------------------------------
 Structure from the checkpoint file:  "JID_8661.chk"
 Charge =  1 Multiplicity = 2

 SCF Done:  E(UB3LYP) =  -817.912884323     A.U. after   33 cycles
 SCF Done:  E(UB3LYP) =  -817.912884323     a.u. after    1 cycles
 Normal termination of Gaussian 16 at Fri Dec 11 22:19:01 2020.
 Gaussian 16:  ES64L-G16RevA.03 25-Dec-2016

 ----------------------------------------------------------------------
 # B3LYP/6-311++G(d,p) empiricaldispersion=gd3bj scf=xqc pop=npa geom=c
 heck
 ----------------------------------------------------------------------

 -----------------------------------
 CID_28890240_JID_8661_Energie_anion
 -----------------------------------
 Structure from the checkpoint file:  "JID_8661.chk"
 Charge = -1 Multiplicity = 2

                         Standard orientation:
 ---------------------------------------------------------------------
 Center     Atomic      Atomic             Coordinates (Angstroms)
 Number     Number       Type             X           Y           Z
 ---------------------------------------------------------------------
      1          6           0        0.417837    2.702813    0.883898
      2          6           0       -0.229272    2.190473   -0.389115
      3          8           0       -1.234377    2.681230   -0.875364
      4          7           0        0.397483    1.116230   -0.993120
      5          6           0        1.471179    0.356797   -0.459689
      6          6           0        2.735751    0.431445   -1.052578
      7          6           0        3.814239   -0.296451   -0.555886
      8          6           0        3.635792   -1.111665    0.563416
      9          6           0        2.382624   -1.209742    1.162801
     10          6           0        1.300886   -0.492695    0.647684
     11          8           0        0.111650   -0.634819    1.331417
     12          6           0       -1.118718   -0.654120    0.696262
     13          6           0       -1.376861   -1.390604   -0.473086
     14          6           0       -2.703168   -1.373955   -0.933178
     15          7           0       -3.712677   -0.734178   -0.344308
     16          6           0       -3.438302   -0.052268    0.772883
     17          6           0       -2.162637    0.010732    1.327411
     18          7           0       -0.372846   -2.034779   -1.207194
     19          1           0        0.278524    1.982998    1.697724
     20          1           0       -0.060164    3.645070    1.152903
     21          1           0        1.494809    2.851217    0.757034
     22          1           0       -0.097359    0.740877   -1.794960
     23          1           0        2.851852    1.086183   -1.910777
     24          1           0        4.787046   -0.219764   -1.031137
     25          1           0        4.469600   -1.676253    0.969793
     26          1           0        2.214524   -1.842008    2.028631
     27          1           0       -2.943178   -1.927560   -1.842232
     28          1           0       -4.268373    0.468304    1.243473
     29          1           0       -1.963829    0.570333    2.234815
     30          1           0       -0.735646   -2.746878   -1.831325
     31          1           0        0.394194   -2.399280   -0.654957
 ---------------------------------------------------------------------

 SCF Done:  E(UB3LYP) =  -818.202487210     A.U. after   33 cycles
 SCF Done:  E(UB3LYP) =  -818.202487210     a.u. after    1 cycles

 The electronic state is 2-A.
 Alpha  occ. eigenvalues --  -19.07208 -18.98660 -14.23175 -14.21926 -14.20576
 Alpha  occ. eigenvalues --  -10.17335 -10.14645 -10.13533 -10.12197 -10.10167
 Alpha  occ. eigenvalues --  -10.10113 -10.10036 -10.08094 -10.07747 -10.06707
 Alpha  occ. eigenvalues --  -10.06419 -10.06309 -10.06248  -0.99025  -0.93811
 Alpha  occ. eigenvalues --   -0.84724  -0.82658  -0.81054  -0.74614  -0.70102
 Alpha  occ. eigenvalues --   -0.65008  -0.64786  -0.63853  -0.63093  -0.55272
 Alpha  occ. eigenvalues --   -0.53937  -0.51629  -0.50288  -0.47961  -0.45381
 Alpha  occ. eigenvalues --   -0.43253  -0.41822  -0.40524  -0.39091  -0.37706
 Alpha  occ. eigenvalues --   -0.36705  -0.36239  -0.35476  -0.34414  -0.34026
 Alpha  occ. eigenvalues --   -0.32792  -0.31992  -0.31787  -0.30902  -0.30377
 Alpha  occ. eigenvalues --   -0.28726  -0.27733  -0.27132  -0.26404  -0.25001
 Alpha  occ. eigenvalues --   -0.24148  -0.23363  -0.17740  -0.16733  -0.16211
 Alpha  occ. eigenvalues --   -0.15649  -0.14931  -0.13349  -0.11679   0.04411
 Alpha virt. eigenvalues --    0.06783   0.07007   0.07492   0.07907   0.08198
 Alpha virt. eigenvalues --    0.08874   0.09128   0.09486   0.10028   0.10435
 Alpha virt. eigenvalues --    0.10824   0.11332   0.12058   0.12086   0.13060

  Beta  occ. eigenvalues --  -19.07204 -18.98646 -14.23183 -14.21865 -14.20553
  Beta  occ. eigenvalues --  -10.17320 -10.14620 -10.13566 -10.12198 -10.10093
  Beta  occ. eigenvalues --  -10.10050 -10.10038 -10.08088 -10.07746 -10.06742
  Beta  occ. eigenvalues --  -10.06273 -10.06148 -10.06129  -0.99012  -0.93782
  Beta  occ. eigenvalues --   -0.84683  -0.82562  -0.80971  -0.74448  -0.70029
  Beta  occ. eigenvalues --   -0.64932  -0.64695  -0.63685  -0.62922  -0.55201
  Beta  occ. eigenvalues --   -0.53894  -0.51323  -0.50199  -0.47902  -0.45285
  Beta  occ. eigenvalues --   -0.43210  -0.41708  -0.40440  -0.38981  -0.37657
  Beta  occ. eigenvalues --   -0.36638  -0.36174  -0.35417  -0.34373  -0.33994
  Beta  occ. eigenvalues --   -0.32678  -0.31934  -0.31706  -0.30850  -0.30357
  Beta  occ. eigenvalues --   -0.28636  -0.27661  -0.26969  -0.26325  -0.24879
  Beta  occ. eigenvalues --   -0.23967  -0.23147  -0.17569  -0.16495  -0.16174
  Beta  occ. eigenvalues --   -0.15620  -0.14209  -0.13015  -0.11561
  Beta virt. eigenvalues --    0.06994   0.07228   0.07808   0.07973   0.08427
  Beta virt. eigenvalues --    0.08810   0.09082   0.09181   0.09718   0.10217
  Beta virt. eigenvalues --    0.10708   0.11176   0.11489   0.12120   0.12196

 Mulliken charges and spin densities:
               1          2
     1  C   -0.327262  -0.054797
     2  C    0.000409  -0.062023
     3  O   -0.316003   0.011883
     4  N    0.282001  -0.128008
     5  C    0.132688  -0.333787
     6  C   -1.106906   1.186328
     7  C    0.606788  -0.875316
     8  C    0.672256  -0.898675
     9  C   -0.867403   0.881009
    10  C    0.245815  -0.436854
    11  O   -0.058155  -0.006992
    12  C    0.447214  -0.819078
    13  C    0.892383  -0.601824
    14  C   -0.346814  -0.126667
    15  N   -0.111286   0.015620
    16  C   -0.324163  -0.245730
    17  C   -0.235367   0.751119
    18  N   -0.334601   0.034207
    19  H    0.195028  -0.013370
    20  H    0.172752   0.001870
    21  H    0.152549   0.002852
    22  H    0.173962   0.128912
    23  H   -0.022352   0.168647
    24  H   -0.143899   0.295533
    25  H   -0.307207   0.448979
    26  H   -0.126110   0.287032
    27  H   -0.206189   0.357215
    28  H    0.154834  -0.005910
    29  H    0.154623   0.016059
    30  H   -0.348397   0.636690
    31  H   -0.101184   0.385079
 Sum of Mulliken charges =  -1.00000   1.00000

 Dipole moment (field-independent basis, Debye):
    X=             -0.2939    Y=              3.7012    Z=              4.3866  Tot=              5.7469
 Quadrupole moment (field-independent basis, Debye-Ang):
   XX=           -165.5821   YY=           -145.9291   ZZ=           -131.3844
   XY=              8.3559   XZ=             -8.3661   YZ=             -0.5652

 Summary of Natural Population Analysis:

                                       Natural Population
                Natural  -----------------------------------------------
    Atom  No    Charge         Core      Valence    Rydberg      Total
 -----------------------------------------------------------------------
      C    1   -0.33591      0.99962     2.33222    0.00407     3.33591
      C    2    0.34645      0.99970     1.63124    0.02261     2.65355
      O    3   -0.31758      0.99987     3.31174    0.00597     4.31758
      N    4   -0.32631      0.99965     2.81589    0.01077     3.82631
      C    5    0.05361      0.99940     1.93454    0.01244     2.94639
      C    6   -0.06446      0.99952     2.05524    0.00970     3.06446
      C    7   -0.11720      0.99956     2.10771    0.00993     3.11720
      C    8   -0.07003      0.99956     2.06075    0.00971     3.07003
      C    9   -0.10363      0.99951     2.09341    0.01071     3.10363
      C   10    0.13934      0.99930     1.84607    0.01529     2.86066
      O   11   -0.27166      0.99983     3.26178    0.01004     4.27166
      C   12    0.15132      0.99930     1.83472    0.01467     2.84868
      C   13    0.04291      0.99942     1.94542    0.01225     2.95709
      C   14    0.01170      0.99955     1.97323    0.01552     2.98830
      N   15   -0.23138      0.99971     2.72086    0.01081     3.73138
      C   16    0.01407      0.99960     1.97347    0.01287     2.98593
      C   17   -0.13337      0.99951     2.12436    0.00951     3.13337
      N   18   -0.39489      0.99972     2.88390    0.01127     3.89489
      H   19    0.11281      0.00000     0.38614    0.00105     0.38719
      H   20    0.10756      0.00000     0.39161    0.00083     0.39244
      H   21    0.11062      0.00000     0.38861    0.00078     0.38938
      H   22    0.20499      0.00000     0.29261    0.00240     0.29501
      H   23    0.10083      0.00000     0.39827    0.00090     0.39917
      H   24    0.09888      0.00000     0.40027    0.00086     0.40112
      H   25    0.09740      0.00000     0.40159    0.00101     0.40260
      H   26    0.10499      0.00000     0.39397    0.00103     0.39501
      H   27    0.08903      0.00000     0.40939    0.00158     0.41097
      H   28    0.08713      0.00000     0.41190    0.00097     0.41287
      H   29    0.10582      0.00000     0.39317    0.00101     0.39418
      H   30    0.18970      0.00000     0.30460    0.00570     0.31030
      H   31    0.19726      0.00000     0.29816    0.00458     0.30274
 =======================================================================
   * Total *   -0.00000     17.99233    45.77686    0.23081    64.00000

 Normal termination of Gaussian 16 at Fri Dec 11 22:40:27 2020.
