 Gaussian 16, Revision A.03,

 -----------------------------------------------------------
 # opt freq B3LYP/6-31G(d) empiricaldispersion=gd3bj scf=xqc
 -----------------------------------------------------------

 ------------------------------
 CID_89848229_JID_8680_neutraal
 ------------------------------
 Symbolic Z-matrix:
 Charge =  0 Multiplicity = 1

 SCF Done:  E(RB3LYP) =  -816.508183783     A.U. after   16 cycles
 SCF Done:  E(RB3LYP) =  -816.510738094     A.U. after   13 cycles
 SCF Done:  E(RB3LYP) =  -816.512748763     A.U. after   14 cycles
 SCF Done:  E(RB3LYP) =  -816.513355822     A.U. after   14 cycles
 SCF Done:  E(RB3LYP) =  -816.513576554     A.U. after   14 cycles
 SCF Done:  E(RB3LYP) =  -816.513605037     A.U. after   14 cycles
 SCF Done:  E(RB3LYP) =  -816.513695788     A.U. after   12 cycles
 SCF Done:  E(RB3LYP) =  -816.513723128     A.U. after   12 cycles
 SCF Done:  E(RB3LYP) =  -816.513741586     A.U. after   10 cycles
 SCF Done:  E(RB3LYP) =  -816.513752836     A.U. after   12 cycles
 SCF Done:  E(RB3LYP) =  -816.513756869     A.U. after   10 cycles
 SCF Done:  E(RB3LYP) =  -816.513757106     A.U. after    8 cycles
 SCF Done:  E(RB3LYP) =  -816.513757163     A.U. after    8 cycles
 SCF Done:  E(RB3LYP) =  -816.513757177     A.U. after    7 cycles
 Optimization completed.
    -- Stationary point found.
 Normal termination of Gaussian 16 at Fri Dec 11 21:31:00 2020.

 --------------------------------------------------------------------
 #N Geom=AllCheck Guess=TCheck SCRF=Check GenChk RB3LYP/6-31G(d) Freq
 --------------------------------------------------------------------

 Structure from the checkpoint file:  "JID_8680.chk"
 ------------------------------
 CID_89848229_JID_8680_neutraal
 ------------------------------
 Charge =  0 Multiplicity = 1

 SCF Done:  E(RB3LYP) =  -816.513757177     A.U. after    1 cycles

  Exact polarizability: 243.448  15.651 146.855  -8.055   5.475 103.367
 Approx polarizability: 337.076  24.087 246.520 -25.141   9.947 160.164

                      1                      2                      3
                      A                      A                      A
 Frequencies --     19.3030                26.5218                28.2261
 Red. masses --      6.6678                 4.0011                 4.2103
 Frc consts  --      0.0015                 0.0017                 0.0020
 IR Inten    --      0.5950                 1.2401                 0.1453

                      4                      5                      6
                      A                      A                      A
 Frequencies --     41.3864                55.2645                65.0812
 Red. masses --      4.7610                 6.8609                 4.4328
 Frc consts  --      0.0048                 0.0123                 0.0111
 IR Inten    --      0.5523                 1.3542                 0.6600

                      7                      8                      9
                      A                      A                      A
 Frequencies --     86.9582               100.2429               153.0760
 Red. masses --      5.5224                 4.7249                 4.3811
 Frc consts  --      0.0246                 0.0280                 0.0605
 IR Inten    --      1.1006                 0.8690                 1.4022

                     10                     11                     12
                      A                      A                      A
 Frequencies --    175.6803               204.3509               221.1199
 Red. masses --      4.3843                 4.1412                 2.6538
 Frc consts  --      0.0797                 0.1019                 0.0764
 IR Inten    --      1.3127                 7.1380                 5.9881

                     13                     14                     15
                      A                      A                      A
 Frequencies --    240.4380               262.2223               269.5389
 Red. masses --      1.7886                 2.1277                 2.2287
 Frc consts  --      0.0609                 0.0862                 0.0954
 IR Inten    --      0.1773                 1.1524                 0.7329

                     16                     17                     18
                      A                      A                      A
 Frequencies --    289.5983               336.9718               356.0098
 Red. masses --      1.0746                 2.6970                 3.5971
 Frc consts  --      0.0531                 0.1804                 0.2686
 IR Inten    --      0.1400                 1.4552                10.3583

                     19                     20                     21
                      A                      A                      A
 Frequencies --    377.5389               403.5038               420.6911
 Red. masses --      2.9279                 2.8503                 3.7044
 Frc consts  --      0.2459                 0.2734                 0.3863
 IR Inten    --      4.4948                 0.5946                 3.0051

                     22                     23                     24
                      A                      A                      A
 Frequencies --    474.0020               516.3842               533.5587
 Red. masses --      3.5051                 2.9242                 3.3663
 Frc consts  --      0.4640                 0.4594                 0.5646
 IR Inten    --      0.6043                 0.6667                10.5396

                     25                     26                     27
                      A                      A                      A
 Frequencies --    574.2193               587.1463               590.0927
 Red. masses --     13.0961                 2.9221                 3.3016
 Frc consts  --      2.5442                 0.5935                 0.6774
 IR Inten    --     12.5977                23.3087                18.4809

                     28                     29                     30
                      A                      A                      A
 Frequencies --    635.5543               657.7649               667.2638
 Red. masses --      8.1082                 7.7009                 2.7013
 Frc consts  --      1.9296                 1.9631                 0.7086
 IR Inten    --     11.4116                 0.7669                13.0415

                     31                     32                     33
                      A                      A                      A
 Frequencies --    696.2822               766.0026               775.5302
 Red. masses --      1.9828                 2.1585                 1.8589
 Frc consts  --      0.5664                 0.7462                 0.6587
 IR Inten    --     27.5602                55.7319                28.7446

                     34                     35                     36
                      A                      A                      A
 Frequencies --    800.9713               818.8202               864.5293
 Red. masses --      4.7831                 3.9838                 1.5135
 Frc consts  --      1.8080                 1.5737                 0.6665
 IR Inten    --     14.3503                 5.2966                19.5553

                     37                     38                     39
                      A                      A                      A
 Frequencies --    888.1147               911.0993               926.6382
 Red. masses --      3.4659                 2.4302                 2.6180
 Frc consts  --      1.6107                 1.1885                 1.3245
 IR Inten    --      7.4404                 3.2661                28.5062

                     40                     41                     42
                      A                      A                      A
 Frequencies --    944.6516               972.7238               980.9499
 Red. masses --      1.1745                 1.4463                 1.4461
 Frc consts  --      0.6175                 0.8063                 0.8198
 IR Inten    --      1.0243                 2.5872                 0.9104

                     43                     44                     45
                      A                      A                      A
 Frequencies --    989.4231               994.6064              1046.2659
 Red. masses --      1.3402                 1.9522                 3.2207
 Frc consts  --      0.7730                 1.1378                 2.0772
 IR Inten    --      1.3000                30.2461                20.6049

                     46                     47                     48
                      A                      A                      A
 Frequencies --   1068.1396              1095.8982              1106.9848
 Red. masses --      2.0759                 1.5764                 2.1827
 Frc consts  --      1.3954                 1.1155                 1.5759
 IR Inten    --      8.4950                20.6530                 8.1893

                     49                     50                     51
                      A                      A                      A
 Frequencies --   1132.9242              1143.0082              1169.9619
 Red. masses --      2.5646                 2.7882                 1.7589
 Frc consts  --      1.9394                 2.1462                 1.4185
 IR Inten    --     10.5911                 7.4122                14.2734

                     52                     53                     54
                      A                      A                      A
 Frequencies --   1187.0898              1195.4935              1235.1493
 Red. masses --      2.0219                 1.9575                 1.1473
 Frc consts  --      1.6788                 1.6484                 1.0313
 IR Inten    --     18.0641                15.0553                 4.0311

                     55                     56                     57
                      A                      A                      A
 Frequencies --   1253.9088              1261.9724              1320.9052
 Red. masses --      2.2055                 1.3550                 2.4248
 Frc consts  --      2.0431                 1.2714                 2.4927
 IR Inten    --      9.6828                23.6051                 1.7571

                     58                     59                     60
                      A                      A                      A
 Frequencies --   1326.1779              1329.6024              1341.8620
 Red. masses --      1.3134                 2.0777                 8.8058
 Frc consts  --      1.3610                 2.1641                 9.3418
 IR Inten    --    126.3713                 1.5666               191.3034

                     61                     62                     63
                      A                      A                      A
 Frequencies --   1348.7534              1373.6735              1382.1371
 Red. masses --      1.3489                 1.7701                 1.5414
 Frc consts  --      1.4457                 1.9680                 1.7349
 IR Inten    --      0.7207               253.0545                 2.6716

                     64                     65                     66
                      A                      A                      A
 Frequencies --   1399.2876              1410.0736              1420.5116
 Red. masses --      1.5713                 1.4862                 1.3801
 Frc consts  --      1.8127                 1.7411                 1.6408
 IR Inten    --     10.9506                 2.3898                 3.9185

                     67                     68                     69
                      A                      A                      A
 Frequencies --   1425.2683              1440.8209              1447.8498
 Red. masses --      1.6304                 1.6763                 1.3439
 Frc consts  --      1.9514                 2.0503                 1.6598
 IR Inten    --     38.3209                52.8431                 7.6522

                     70                     71                     72
                      A                      A                      A
 Frequencies --   1491.1536              1504.3390              1519.1139
 Red. masses --      1.6408                 1.0989                 1.1977
 Frc consts  --      2.1495                 1.4652                 1.6284
 IR Inten    --     93.1828                 5.4131                 3.6750

                     73                     74                     75
                      A                      A                      A
 Frequencies --   1521.2234              1522.6126              1526.4335
 Red. masses --      1.0446                 1.0937                 1.1093
 Frc consts  --      1.4242                 1.4939                 1.5229
 IR Inten    --      3.3226                 6.6291                18.9455

                     76                     77                     78
                      A                      A                      A
 Frequencies --   1530.2992              1536.9260              1545.5417
 Red. masses --      1.7254                 1.0788                 1.1443
 Frc consts  --      2.3806                 1.5014                 1.6104
 IR Inten    --     15.1909                 3.5647                 8.2274

                     79                     80                     81
                      A                      A                      A
 Frequencies --   1615.4767              1655.8857              1768.7519
 Red. masses --      5.6077                 5.9085                 8.2757
 Frc consts  --      8.6225                 9.5452                15.2542
 IR Inten    --     21.1395               117.3412               341.4067

                     82                     83                     84
                      A                      A                      A
 Frequencies --   2269.4576              3038.5945              3044.2143
 Red. masses --     13.4549                 1.0567                 1.0368
 Frc consts  --     40.8296                 5.7483                 5.6612
 IR Inten    --    611.9101                21.6543                22.4994

                     85                     86                     87
                      A                      A                      A
 Frequencies --   3045.9040              3052.0599              3058.0259
 Red. masses --      1.0571                 1.0619                 1.0626
 Frc consts  --      5.7781                 5.8282                 5.8544
 IR Inten    --     10.8960                23.9562                17.1316

                     88                     89                     90
                      A                      A                      A
 Frequencies --   3072.5114              3080.9174              3104.5747
 Red. masses --      1.0725                 1.1024                 1.1020
 Frc consts  --      5.9656                 6.1652                 6.2580
 IR Inten    --     10.7448                27.3793                55.1179

                     91                     92                     93
                      A                      A                      A
 Frequencies --   3108.0526              3114.0244              3122.4540
 Red. masses --      1.1014                 1.1013                 1.1023
 Frc consts  --      6.2686                 6.2924                 6.3317
 IR Inten    --      7.3871                60.4543                42.2013

                     94                     95                     96
                      A                      A                      A
 Frequencies --   3140.5789              3144.4141              3197.3813
 Red. masses --      1.1014                 1.0983                 1.0910
 Frc consts  --      6.4007                 6.3979                 6.5714
 IR Inten    --     18.8973                18.4003                 8.0164

                     97                     98                     99
                      A                      A                      A
 Frequencies --   3207.0708              3227.4800              3572.3545
 Red. masses --      1.0878                 1.0934                 1.0751
 Frc consts  --      6.5920                 6.7103                 8.0836
 IR Inten    --      9.2720                10.0843                26.1468

 - Thermochemistry -
 -------------------
 Temperature   298.150 Kelvin.  Pressure   1.00000 Atm.
 Atom     1 has atomic number  6 and mass  12.00000

 Molecular mass:   247.14331 amu.
 Principal axes and moments of inertia in atomic units:
                           1         2         3
     Eigenvalues --  1717.31000********************
           X            0.99997   0.00793  -0.00245
           Y           -0.00787   0.99971   0.02270
           Z            0.00263  -0.02268   0.99974
 This molecule is an asymmetric top.
 Rotational symmetry number  1.
 Warning -- assumption of classical behavior for rotation
           may cause significant error
 Rotational temperatures (Kelvin)      0.05044     0.00712     0.00656
 Rotational constants (GHZ):           1.05091     0.14830     0.13665
 Zero-point vibrational energy     765021.5 (Joules/Mol)
                                  182.84452 (Kcal/Mol)
 Warning -- explicit consideration of  27 degrees of freedom as
           vibrations may cause significant error
 Vibrational temperatures:     27.77    38.16    40.61    59.55    79.51
          (Kelvin)             93.64   125.11   144.23   220.24   252.76
                              294.02   318.14   345.94   377.28   387.81
                              416.67   484.83   512.22   543.19   580.55
                              605.28   681.98   742.96   767.67   826.17
                              844.77   849.01   914.42   946.38   960.04
                             1001.79  1102.11  1115.81  1152.42  1178.10
                             1243.86  1277.80  1310.87  1333.23  1359.14
                             1399.53  1411.37  1423.56  1431.02  1505.34
                             1536.81  1576.75  1592.70  1630.03  1644.53
                             1683.31  1707.96  1720.05  1777.10  1804.10
                             1815.70  1900.49  1908.07  1913.00  1930.64
                             1940.56  1976.41  1988.59  2013.26  2028.78
                             2043.80  2050.64  2073.02  2083.13  2145.44
                             2164.41  2185.67  2188.70  2190.70  2196.20
                             2201.76  2211.29  2223.69  2324.31  2382.45
                             2544.84  3265.24  4371.86  4379.95  4382.38
                             4391.23  4399.82  4420.66  4432.75  4466.79
                             4471.79  4480.39  4492.51  4518.59  4524.11
                             4600.32  4614.26  4643.62  5139.82

 Zero-point correction=                           0.291381 (Hartree/Particle)
 Thermal correction to Energy=                    0.309520
 Thermal correction to Enthalpy=                  0.310464
 Thermal correction to Gibbs Free Energy=         0.241602
 Sum of electronic and zero-point Energies=           -816.222376
 Sum of electronic and thermal Energies=              -816.204237
 Sum of electronic and thermal Enthalpies=            -816.203293
 Sum of electronic and thermal Free Energies=         -816.272155

                     E (Thermal)             CV                S
                      KCal/Mol        Cal/Mol-Kelvin    Cal/Mol-Kelvin
 Total                  194.227             65.972            144.933
 Electronic               0.000              0.000              0.000
 Translational            0.889              2.981             42.415
 Rotational               0.889              2.981             33.978
 Vibrational            192.449             60.010             68.540
 Vibration     1          0.593              1.986              6.705
 Vibration     2          0.593              1.984              6.074
 Vibration     3          0.593              1.984              5.950
 Vibration     4          0.594              1.981              5.192
 Vibration     5          0.596              1.975              4.620
 Vibration     6          0.597              1.971              4.297
 Vibration     7          0.601              1.958              3.727
 Vibration     8          0.604              1.949              3.450
 Vibration     9          0.619              1.899              2.634
 Vibration    10          0.628              1.872              2.374
 Vibration    11          0.640              1.834              2.094
 Vibration    12          0.648              1.809              1.950
 Vibration    13          0.658              1.779              1.800
 Vibration    14          0.670              1.742              1.647
 Vibration    15          0.674              1.729              1.599
 Vibration    16          0.686              1.693              1.476
 Vibration    17          0.718              1.602              1.226
 Vibration    18          0.732              1.563              1.139
 Vibration    19          0.748              1.518              1.049
 Vibration    20          0.769              1.463              0.950
 Vibration    21          0.783              1.425              0.890
 Vibration    22          0.831              1.308              0.726
 Vibration    23          0.871              1.214              0.618
 Vibration    24          0.889              1.176              0.579
 Vibration    25          0.931              1.087              0.496
 Vibration    26          0.944              1.059              0.472
 Vibration    27          0.947              1.053              0.467

                           ! Non-Optimized Parameters !
 Normal termination of Gaussian 16 at Fri Dec 11 21:45:34 2020.

 ----------------------------------------------------------------------
 # B3LYP/6-311++G(d,p) empiricaldispersion=gd3bj scf=xqc pop=npa geom=c
 heck
 ----------------------------------------------------------------------

 --------------------------------------
 CID_89848229_JID_8680_Energie_neutraal
 --------------------------------------
 Structure from the checkpoint file:  "JID_8680.chk"
 Charge =  0 Multiplicity = 1

 SCF Done:  E(RB3LYP) =  -816.739364739     A.U. after   16 cycles
 Normal termination of Gaussian 16 at Fri Dec 11 21:52:40 2020.

 ----------------------------------------------------------------------
 # B3LYP/6-311++G(d,p) empiricaldispersion=gd3bj scf=xqc pop=npa geom=c
 heck
 ----------------------------------------------------------------------

 ------------------------------------
 CID_89848229_JID_8680_Energie_kation
 ------------------------------------
 Structure from the checkpoint file:  "JID_8680.chk"
 Charge =  1 Multiplicity = 2

 SCF Done:  E(UB3LYP) =  -816.421685330     A.U. after   33 cycles
 SCF Done:  E(UB3LYP) =  -816.421685329     a.u. after    1 cycles
 Normal termination of Gaussian 16 at Fri Dec 11 22:14:13 2020.
 Gaussian 16:  ES64L-G16RevA.03 25-Dec-2016

 ----------------------------------------------------------------------
 # B3LYP/6-311++G(d,p) empiricaldispersion=gd3bj scf=xqc pop=npa geom=c
 heck
 ----------------------------------------------------------------------

 -----------------------------------
 CID_89848229_JID_8680_Energie_anion
 -----------------------------------
 Structure from the checkpoint file:  "JID_8680.chk"
 Charge = -1 Multiplicity = 2

                         Standard orientation:
 ---------------------------------------------------------------------
 Center     Atomic      Atomic             Coordinates (Angstroms)
 Number     Number       Type             X           Y           Z
 ---------------------------------------------------------------------
      1          6           0       -5.122703   -1.653597   -0.880563
      2          6           0       -4.774662   -0.416253   -0.048008
      3          6           0       -5.132767   -0.624015    1.435790
      4          6           0       -3.326348    0.023755   -0.158489
      5          7           0       -3.081076    1.283367    0.253316
      6          6           0       -1.829912    1.735261    0.211422
      7          6           0       -0.732996    0.969191   -0.209238
      8          6           0       -0.993860   -0.330601   -0.645587
      9          6           0       -2.301899   -0.807745   -0.624146
     10          6           0        0.611549    1.624440   -0.250850
     11          8           0        0.726213    2.802742   -0.570744
     12          7           0        1.717944    0.858553    0.045057
     13          6           0        1.787230   -0.310530    0.919707
     14          6           0        2.402388   -1.538554    0.236027
     15          6           0        3.725385   -1.237361   -0.458993
     16          7           0        4.638229   -0.596966    0.521185
     17          7           0        5.792733   -0.407337    0.125624
     18          7           0        6.884780   -0.186857   -0.124598
     19          1           0       -4.615175   -2.549792   -0.503299
     20          1           0       -4.849801   -1.525219   -1.933906
     21          1           0       -6.199391   -1.846757   -0.832022
     22          1           0       -5.369732    0.430642   -0.412813
     23          1           0       -4.560208   -1.458871    1.858375
     24          1           0       -4.905475    0.276390    2.013186
     25          1           0       -6.198775   -0.852194    1.546872
     26          1           0       -1.666560    2.763396    0.525111
     27          1           0       -0.191292   -0.954490   -1.026078
     28          1           0       -2.520699   -1.809718   -0.974890
     29          1           0        2.562835    1.418875    0.008782
     30          1           0        2.392354   -0.052519    1.795531
     31          1           0        0.783245   -0.546364    1.276992
     32          1           0        2.549808   -2.319719    0.991175
     33          1           0        1.715566   -1.938712   -0.519339
     34          1           0        4.171376   -2.159852   -0.851525
     35          1           0        3.555530   -0.556295   -1.302717
 ---------------------------------------------------------------------

 SCF Done:  E(UB3LYP) =  -816.748839502     A.U. after   33 cycles
 SCF Done:  E(UB3LYP) =  -816.748839502     a.u. after    1 cycles

 The electronic state is 2-A.
 Alpha  occ. eigenvalues --  -18.96051 -14.35514 -14.25793 -14.24619 -14.21670
 Alpha  occ. eigenvalues --  -14.18029 -10.14440 -10.11513 -10.10405 -10.08464
 Alpha  occ. eigenvalues --  -10.08023 -10.08006 -10.07664 -10.07175 -10.06310
 Alpha  occ. eigenvalues --  -10.06139 -10.06052 -10.05374  -1.02350  -0.91444
 Alpha  occ. eigenvalues --   -0.86645  -0.82176  -0.80609  -0.70644  -0.69756
 Alpha  occ. eigenvalues --   -0.68486  -0.63573  -0.60680  -0.59417  -0.54545
 Alpha  occ. eigenvalues --   -0.52203  -0.51005  -0.48167  -0.45841  -0.44276
 Alpha  occ. eigenvalues --   -0.41074  -0.40141  -0.39546  -0.38444  -0.38005
 Alpha  occ. eigenvalues --   -0.36313  -0.35338  -0.34910  -0.34416  -0.33280
 Alpha  occ. eigenvalues --   -0.32358  -0.31383  -0.30977  -0.30426  -0.29601
 Alpha  occ. eigenvalues --   -0.28859  -0.28003  -0.27285  -0.26895  -0.25883
 Alpha  occ. eigenvalues --   -0.25491  -0.24535  -0.23884  -0.23145  -0.19952
 Alpha  occ. eigenvalues --   -0.17123  -0.15370  -0.14708  -0.14282  -0.13783
 Alpha  occ. eigenvalues --   -0.12751   0.03639
 Alpha virt. eigenvalues --    0.05527   0.06421   0.07174   0.08325   0.08538
 Alpha virt. eigenvalues --    0.08893   0.09145   0.09647   0.09835   0.10681
 Alpha virt. eigenvalues --    0.10967   0.11577   0.11697   0.11795   0.12303

  Beta  occ. eigenvalues --  -18.95892 -14.35277 -14.25469 -14.24672 -14.21666
  Beta  occ. eigenvalues --  -14.17932 -10.14330 -10.11427 -10.10398 -10.08477
  Beta  occ. eigenvalues --  -10.08000 -10.07741 -10.07683 -10.07170 -10.06277
  Beta  occ. eigenvalues --  -10.06216 -10.05825 -10.05239  -1.01888  -0.91169
  Beta  occ. eigenvalues --   -0.86418  -0.81894  -0.80514  -0.70506  -0.69647
  Beta  occ. eigenvalues --   -0.68137  -0.63344  -0.60551  -0.59376  -0.54225
  Beta  occ. eigenvalues --   -0.52053  -0.50812  -0.48020  -0.45682  -0.44179
  Beta  occ. eigenvalues --   -0.40876  -0.39839  -0.38821  -0.38312  -0.37853
  Beta  occ. eigenvalues --   -0.36072  -0.35222  -0.34788  -0.33859  -0.33175
  Beta  occ. eigenvalues --   -0.32105  -0.31268  -0.30802  -0.30074  -0.29518
  Beta  occ. eigenvalues --   -0.28730  -0.27656  -0.27099  -0.26712  -0.25552
  Beta  occ. eigenvalues --   -0.25364  -0.24396  -0.23708  -0.23004  -0.19396
  Beta  occ. eigenvalues --   -0.16200  -0.15076  -0.14612  -0.13887  -0.13435
  Beta  occ. eigenvalues --   -0.12172
  Beta virt. eigenvalues --    0.06153   0.06870   0.07897   0.08387   0.08439
  Beta virt. eigenvalues --    0.08751   0.09100   0.09218   0.09673   0.09843
  Beta virt. eigenvalues --    0.10800   0.11029   0.11529   0.11647   0.11696

 Mulliken charges and spin densities:
               1          2
     1  C   -0.473420  -0.065799
     2  C   -0.284916   0.235693
     3  C   -0.436239  -0.226335
     4  C    0.232186   0.041437
     5  N    0.007571   0.045951
     6  C   -0.281920   0.080051
     7  C    0.504467   0.107171
     8  C   -0.099849   0.093561
     9  C   -0.407406  -0.016482
    10  C   -0.128320  -0.168923
    11  O   -0.367809   0.057286
    12  N   -0.128853   0.013388
    13  C   -0.379730  -0.109553
    14  C   -0.219301   0.067690
    15  C   -0.219732  -0.417621
    16  N   -0.589976   0.341775
    17  N    0.637125  -0.042369
    18  N   -0.201982  -0.006571
    19  H    0.125379   0.004610
    20  H    0.125286   0.002506
    21  H    0.089948   0.055455
    22  H    0.119175   0.065048
    23  H    0.097463   0.034982
    24  H    0.156601  -0.004399
    25  H    0.021222   0.095205
    26  H    0.205297   0.004345
    27  H    0.030266   0.087641
    28  H    0.087694   0.054712
    29  H    0.279040   0.023124
    30  H    0.094043   0.111010
    31  H    0.204471  -0.020690
    32  H    0.060017   0.105520
    33  H    0.095458   0.020509
    34  H   -0.086536   0.246938
    35  H    0.133280   0.083133
 Sum of Mulliken charges =  -1.00000   1.00000

 Dipole moment (field-independent basis, Debye):
    X=             -3.7511    Y=             -4.8597    Z=              0.6288  Tot=              6.1711
 Quadrupole moment (field-independent basis, Debye-Ang):
   XX=           -215.1130   YY=           -135.7724   ZZ=           -121.6243
   XY=              3.7610   XZ=              2.5098   YZ=              4.1230

 Summary of Natural Population Analysis:

                                       Natural Population
                Natural  -----------------------------------------------
    Atom  No    Charge         Core      Valence    Rydberg      Total
 -----------------------------------------------------------------------
      C    1   -0.28467      0.99966     2.28037    0.00464     3.28467
      C    2   -0.12813      0.99959     2.11936    0.00919     3.12813
      C    3   -0.27615      0.99965     2.27180    0.00470     3.27615
      C    4    0.15878      0.99952     1.82767    0.01404     2.84122
      N    5   -0.23982      0.99968     2.72861    0.01152     3.73982
      C    6    0.04909      0.99956     1.93810    0.01325     2.95091
      C    7   -0.07360      0.99945     2.06391    0.01023     3.07360
      C    8   -0.03472      0.99954     2.02653    0.00864     3.03472
      C    9   -0.14882      0.99951     2.14098    0.00833     3.14882
      C   10    0.35231      0.99963     1.62610    0.02196     2.64769
      O   11   -0.31158      0.99988     3.30621    0.00550     4.31158
      N   12   -0.32849      0.99967     2.81905    0.00977     3.82849
      C   13   -0.09166      0.99961     2.08213    0.00991     3.09166
      C   14   -0.19394      0.99962     2.18635    0.00797     3.19394
      C   15   -0.08847      0.99960     2.07905    0.00982     3.08847
      N   16   -0.21685      0.99970     2.70273    0.01442     3.71685
      N   17    0.13570      0.99971     2.34912    0.01547     3.36430
      N   18   -0.02171      0.99982     2.50782    0.01407     3.52171
      H   19    0.09423      0.00000     0.40465    0.00112     0.40577
      H   20    0.09998      0.00000     0.39907    0.00096     0.40002
      H   21    0.09558      0.00000     0.40355    0.00088     0.40442
      H   22    0.10107      0.00000     0.39664    0.00228     0.39893
      H   23    0.09325      0.00000     0.40563    0.00112     0.40675
      H   24    0.10678      0.00000     0.39201    0.00122     0.39322
      H   25    0.09072      0.00000     0.40802    0.00127     0.40928
      H   26    0.09324      0.00000     0.40541    0.00135     0.40676
      H   27    0.09380      0.00000     0.40389    0.00231     0.40620
      H   28    0.09870      0.00000     0.40016    0.00114     0.40130
      H   29    0.19111      0.00000     0.30565    0.00324     0.30889
      H   30    0.09762      0.00000     0.40104    0.00134     0.40238
      H   31    0.10614      0.00000     0.39284    0.00102     0.39386
      H   32    0.09760      0.00000     0.40108    0.00132     0.40240
      H   33    0.09885      0.00000     0.39990    0.00124     0.40115
      H   34    0.09004      0.00000     0.40797    0.00198     0.40996
      H   35    0.09402      0.00000     0.40410    0.00188     0.40598
 =======================================================================
   * Total *   -0.00000     17.99339    47.78749    0.21911    66.00000

 Normal termination of Gaussian 16 at Fri Dec 11 22:34:58 2020.
