 Gaussian 16, Revision A.03,

 -----------------------------------------------------------
 # opt freq B3LYP/6-31G(d) empiricaldispersion=gd3bj scf=xqc
 -----------------------------------------------------------

 ------------------------------
 CID_68476973_JID_3687_neutraal
 ------------------------------
 Symbolic Z-matrix:
 Charge =  0 Multiplicity = 1

 SCF Done:  E(RB3LYP) =  -557.967958839     A.U. after   13 cycles
 SCF Done:  E(RB3LYP) =  -557.973982905     A.U. after   11 cycles
 SCF Done:  E(RB3LYP) =  -557.973909789     A.U. after   11 cycles
 SCF Done:  E(RB3LYP) =  -557.974925348     A.U. after   10 cycles
 SCF Done:  E(RB3LYP) =  -557.975112439     A.U. after   10 cycles
 SCF Done:  E(RB3LYP) =  -557.975111827     A.U. after   10 cycles
 SCF Done:  E(RB3LYP) =  -557.975143379     A.U. after    9 cycles
 SCF Done:  E(RB3LYP) =  -557.975147339     A.U. after    8 cycles
 SCF Done:  E(RB3LYP) =  -557.975148419     A.U. after    7 cycles
 SCF Done:  E(RB3LYP) =  -557.975148935     A.U. after    7 cycles
 SCF Done:  E(RB3LYP) =  -557.975149022     A.U. after    6 cycles
 Optimization completed.
    -- Stationary point found.
 Normal termination of Gaussian 16 at Mon Dec 14 16:31:13 2020.

 --------------------------------------------------------------------
 #N Geom=AllCheck Guess=TCheck SCRF=Check GenChk RB3LYP/6-31G(d) Freq
 --------------------------------------------------------------------

 Structure from the checkpoint file:  "JID_3687.chk"
 ------------------------------
 CID_68476973_JID_3687_neutraal
 ------------------------------
 Charge =  0 Multiplicity = 1

 SCF Done:  E(RB3LYP) =  -557.975149022     A.U. after    1 cycles

  Exact polarizability: 138.340   1.495 118.611   2.386  -3.086 104.503
 Approx polarizability: 174.686   4.227 167.980   2.691  -5.102 162.683

                      1                      2                      3
                      A                      A                      A
 Frequencies --     42.5270                60.1724               101.8995
 Red. masses --      2.5604                 2.7000                 2.7806
 Frc consts  --      0.0027                 0.0058                 0.0170
 IR Inten    --      0.0835                 0.1796                 0.2013

                      4                      5                      6
                      A                      A                      A
 Frequencies --    134.0567               221.0272               253.4806
 Red. masses --      2.5963                 2.3869                 1.7214
 Frc consts  --      0.0275                 0.0687                 0.0652
 IR Inten    --      0.3313                 0.3913                 0.1411

                      7                      8                      9
                      A                      A                      A
 Frequencies --    258.0683               272.6702               278.5456
 Red. masses --      1.8785                 1.1025                 1.2312
 Frc consts  --      0.0737                 0.0483                 0.0563
 IR Inten    --      0.2589                 0.2982                 0.2248

                     10                     11                     12
                      A                      A                      A
 Frequencies --    302.5952               315.6293               352.9904
 Red. masses --      1.7476                 2.4869                 2.4230
 Frc consts  --      0.0943                 0.1460                 0.1779
 IR Inten    --      1.8516                 0.4810                 0.4764

                     13                     14                     15
                      A                      A                      A
 Frequencies --    390.3221               423.5045               432.3304
 Red. masses --      2.1198                 1.9980                 2.0088
 Frc consts  --      0.1903                 0.2111                 0.2212
 IR Inten    --      5.1041                 0.3859                 0.2143

                     16                     17                     18
                      A                      A                      A
 Frequencies --    468.3668               489.3789               514.8186
 Red. masses --      2.2835                 2.4272                 3.0299
 Frc consts  --      0.2951                 0.3425                 0.4731
 IR Inten    --      0.1020                 0.7460                 0.4247

                     19                     20                     21
                      A                      A                      A
 Frequencies --    575.4667               618.5116               663.3434
 Red. masses --      3.4810                 9.8029                 3.2245
 Frc consts  --      0.6792                 2.2095                 0.8360
 IR Inten    --      0.1019                 0.3843                 2.4671

                     22                     23                     24
                      A                      A                      A
 Frequencies --    772.2058               780.0777               830.0650
 Red. masses --      3.1274                 4.0734                 1.3045
 Frc consts  --      1.0987                 1.4604                 0.5296
 IR Inten    --      1.2505                46.7168                 4.2660

                     25                     26                     27
                      A                      A                      A
 Frequencies --    854.2374               866.2229               886.6351
 Red. masses --      2.4550                 3.6073                 3.4685
 Frc consts  --      1.0555                 1.5948                 1.6065
 IR Inten    --      0.7042                26.0388                 5.4659

                     28                     29                     30
                      A                      A                      A
 Frequencies --    927.2317               930.3147               937.3222
 Red. masses --      1.7446                 1.9919                 3.4380
 Frc consts  --      0.8837                 1.0157                 1.7797
 IR Inten    --      5.8925                10.3034                 1.4377

                     31                     32                     33
                      A                      A                      A
 Frequencies --    954.6889              1031.4588              1054.1490
 Red. masses --      1.5273                 2.5615                 2.7607
 Frc consts  --      0.8202                 1.6057                 1.8075
 IR Inten    --      2.3507                 9.7774                55.1378

                     34                     35                     36
                      A                      A                      A
 Frequencies --   1057.6892              1071.1949              1076.9215
 Red. masses --      2.7789                 1.7962                 1.7068
 Frc consts  --      1.8317                 1.2144                 1.1663
 IR Inten    --      4.0991                15.1780                 5.0897

                     37                     38                     39
                      A                      A                      A
 Frequencies --   1085.7332              1097.6253              1112.0686
 Red. masses --      2.4940                 3.3039                 2.4905
 Frc consts  --      1.7322                 2.3452                 1.8147
 IR Inten    --     11.0978                31.3223                20.1450

                     40                     41                     42
                      A                      A                      A
 Frequencies --   1126.9241              1135.8598              1156.0340
 Red. masses --      2.5205                 1.3287                 2.0316
 Frc consts  --      1.8859                 1.0100                 1.5997
 IR Inten    --     14.2573                 7.2602                10.8226

                     43                     44                     45
                      A                      A                      A
 Frequencies --   1176.3684              1208.2570              1221.3718
 Red. masses --      1.5590                 1.9374                 2.2112
 Frc consts  --      1.2711                 1.6664                 1.9435
 IR Inten    --      7.5571                 9.7155                 0.5603

                     46                     47                     48
                      A                      A                      A
 Frequencies --   1225.3190              1247.5784              1298.5004
 Red. masses --      1.6484                 1.3894                 1.3535
 Frc consts  --      1.4582                 1.2741                 1.3446
 IR Inten    --     11.9278                 2.9415                10.1325

                     49                     50                     51
                      A                      A                      A
 Frequencies --   1312.5452              1324.8442              1345.2801
 Red. masses --      1.8091                 1.6228                 1.2291
 Frc consts  --      1.8362                 1.6782                 1.3106
 IR Inten    --      8.7052                 2.4631                 0.4559

                     52                     53                     54
                      A                      A                      A
 Frequencies --   1349.1131              1354.7000              1364.1415
 Red. masses --      1.2336                 1.3121                 1.3838
 Frc consts  --      1.3229                 1.4188                 1.5172
 IR Inten    --      0.0337                 8.5098                 0.5083

                     55                     56                     57
                      A                      A                      A
 Frequencies --   1366.2256              1370.7749              1380.2377
 Red. masses --      1.3762                 1.3091                 1.3033
 Frc consts  --      1.5135                 1.4493                 1.4629
 IR Inten    --      0.7763                 1.2366                12.1921

                     58                     59                     60
                      A                      A                      A
 Frequencies --   1390.7433              1394.7346              1428.3451
 Red. masses --      1.3103                 1.3018                 1.2922
 Frc consts  --      1.4932                 1.4920                 1.5533
 IR Inten    --      1.8831                 0.7371                 8.0449

                     61                     62                     63
                      A                      A                      A
 Frequencies --   1435.4403              1446.6808              1468.3369
 Red. masses --      1.2880                 1.3357                 1.1624
 Frc consts  --      1.5636                 1.6470                 1.4766
 IR Inten    --      6.9206                 6.3882                 2.6645

                     64                     65                     66
                      A                      A                      A
 Frequencies --   1497.2357              1508.0184              1512.6735
 Red. masses --      1.1627                 1.0765                 1.0786
 Frc consts  --      1.5357                 1.4424                 1.4542
 IR Inten    --      0.0464                 4.5444                 2.1518

                     67                     68                     69
                      A                      A                      A
 Frequencies --   1514.3927              1518.9445              1520.0961
 Red. masses --      1.0584                 1.0819                 1.0710
 Frc consts  --      1.4301                 1.4707                 1.4581
 IR Inten    --     10.9109                 1.9493                 0.9926

                     70                     71                     72
                      A                      A                      A
 Frequencies --   1526.9454              1528.0204              1528.8191
 Red. masses --      1.0623                 1.0785                 1.0670
 Frc consts  --      1.4593                 1.4836                 1.4694
 IR Inten    --     11.1422                 7.3994                 2.2226

                     73                     74                     75
                      A                      A                      A
 Frequencies --   1531.2695              1539.6635              1546.0288
 Red. masses --      1.0565                 1.0564                 1.0671
 Frc consts  --      1.4595                 1.4755                 1.5027
 IR Inten    --     12.9318                12.3576                 1.3679

                     76                     77                     78
                      A                      A                      A
 Frequencies --   2913.4798              2923.9619              2937.8408
 Red. masses --      1.0714                 1.0621                 1.0638
 Frc consts  --      5.3583                 5.3502                 5.4095
 IR Inten    --     44.9989                42.2012               152.3270

                     79                     80                     81
                      A                      A                      A
 Frequencies --   3035.3362              3039.1330              3042.4882
 Red. masses --      1.0787                 1.0629                 1.0602
 Frc consts  --      5.8553                 5.7841                 5.7823
 IR Inten    --     12.5619                49.8361                41.6841

                     82                     83                     84
                      A                      A                      A
 Frequencies --   3047.4218              3055.0719              3056.7568
 Red. masses --      1.0597                 1.0494                 1.0592
 Frc consts  --      5.7985                 5.7709                 5.8308
 IR Inten    --     55.1028                77.2017                24.8985

                     85                     86                     87
                      A                      A                      A
 Frequencies --   3061.8354              3077.8770              3084.5362
 Red. masses --      1.0763                 1.0695                 1.1071
 Frc consts  --      5.9452                 5.9695                 6.2059
 IR Inten    --     16.6444                35.5772                11.5048

                     88                     89                     90
                      A                      A                      A
 Frequencies --   3085.3762              3089.5856              3092.0327
 Red. masses --      1.1070                 1.0804                 1.0963
 Frc consts  --      6.2090                 6.0762                 6.1756
 IR Inten    --     15.0544                26.0018                62.3546

                     91                     92                     93
                      A                      A                      A
 Frequencies --   3102.3179              3108.5994              3118.9374
 Red. masses --      1.0886                 1.1085                 1.0994
 Frc consts  --      6.1727                 6.3111                 6.3009
 IR Inten    --     14.1460                78.3471                36.3961

                     94                     95                     96
                      A                      A                      A
 Frequencies --   3123.7844              3139.1863              3143.2979
 Red. masses --      1.1035                 1.1003                 1.1015
 Frc consts  --      6.3446                 6.3886                 6.4123
 IR Inten    --     32.9507                35.0145                30.4114

 - Thermochemistry -
 -------------------
 Temperature   298.150 Kelvin.  Pressure   1.00000 Atm.
 Atom     1 has atomic number  6 and mass  12.00000

 Molecular mass:   183.17355 amu.
 Principal axes and moments of inertia in atomic units:
                           1         2         3
     Eigenvalues --  1331.135193314.180443783.64573
           X            0.99995   0.00389   0.00879
           Y           -0.00367   0.99967  -0.02547
           Z           -0.00889   0.02543   0.99964
 This molecule is an asymmetric top.
 Rotational symmetry number  1.
 Warning -- assumption of classical behavior for rotation
           may cause significant error
 Rotational temperatures (Kelvin)      0.06507     0.02613     0.02289
 Rotational constants (GHZ):           1.35579     0.54455     0.47698
 Zero-point vibrational energy     828861.8 (Joules/Mol)
                                  198.10272 (Kcal/Mol)
 Warning -- explicit consideration of  20 degrees of freedom as
           vibrations may cause significant error
 Vibrational temperatures:     61.19    86.57   146.61   192.88   318.01
          (Kelvin)            364.70   371.30   392.31   400.76   435.37
                              454.12   507.87   561.59   609.33   622.03
                              673.88   704.11   740.71   827.97   889.90
                              954.40  1111.03  1122.36  1194.28  1229.06
                             1246.30  1275.67  1334.08  1338.52  1348.60
                             1373.58  1484.04  1516.69  1521.78  1541.21
                             1549.45  1562.13  1579.24  1600.02  1621.39
                             1634.25  1663.28  1692.53  1738.41  1757.28
                             1762.96  1794.99  1868.25  1888.46  1906.16
                             1935.56  1941.07  1949.11  1962.70  1965.69
                             1972.24  1985.85  2000.97  2006.71  2055.07
                             2065.28  2081.45  2112.61  2154.19  2169.70
                             2176.40  2178.87  2185.42  2187.08  2196.93
                             2198.48  2199.63  2203.16  2215.23  2224.39
                             4191.85  4206.93  4226.90  4367.17  4372.63
                             4377.46  4384.56  4395.57  4397.99  4405.30
                             4428.38  4437.96  4439.17  4445.22  4448.75
                             4463.54  4472.58  4487.46  4494.43  4516.59
                             4522.50

 Zero-point correction=                           0.315697 (Hartree/Particle)
 Thermal correction to Energy=                    0.328356
 Thermal correction to Enthalpy=                  0.329300
 Thermal correction to Gibbs Free Energy=         0.277058
 Sum of electronic and zero-point Energies=           -557.659452
 Sum of electronic and thermal Energies=              -557.646793
 Sum of electronic and thermal Enthalpies=            -557.645849
 Sum of electronic and thermal Free Energies=         -557.698091

                     E (Thermal)             CV                S
                      KCal/Mol        Cal/Mol-Kelvin    Cal/Mol-Kelvin
 Total                  206.046             50.776            109.952
 Electronic               0.000              0.000              0.000
 Translational            0.889              2.981             41.522
 Rotational               0.889              2.981             31.190
 Vibrational            204.269             44.814             37.239
 Vibration     1          0.595              1.980              5.138
 Vibration     2          0.597              1.973              4.452
 Vibration     3          0.604              1.948              3.418
 Vibration     4          0.613              1.919              2.887
 Vibration     5          0.648              1.809              1.951
 Vibration     6          0.665              1.757              1.706
 Vibration     7          0.667              1.749              1.675
 Vibration     8          0.676              1.724              1.579
 Vibration     9          0.679              1.713              1.543
 Vibration    10          0.694              1.669              1.403
 Vibration    11          0.703              1.644              1.333
 Vibration    12          0.729              1.569              1.153
 Vibration    13          0.758              1.491              0.999
 Vibration    14          0.786              1.419              0.880
 Vibration    15          0.793              1.400              0.851
 Vibration    16          0.826              1.320              0.742
 Vibration    17          0.845              1.274              0.685
 Vibration    18          0.870              1.217              0.622
 Vibration    19          0.932              1.084              0.494
 Vibration    20          0.978              0.993              0.419

 Optimization completed.
    -- Stationary point found.
 Normal termination of Gaussian 16 at Mon Dec 14 16:41:41 2020.

 ----------------------------------------------------------------------
 # B3LYP/6-311++G(d,p) empiricaldispersion=gd3bj scf=xqc pop=npa geom=c
 heck
 ----------------------------------------------------------------------

 --------------------------------------
 CID_68476973_JID_3687_Energie_neutraal
 --------------------------------------
 Structure from the checkpoint file:  "JID_3687.chk"
 Charge =  0 Multiplicity = 1

 SCF Done:  E(RB3LYP) =  -558.125685090     A.U. after   13 cycles
 Normal termination of Gaussian 16 at Mon Dec 14 16:46:13 2020.

 ----------------------------------------------------------------------
 # B3LYP/6-311++G(d,p) empiricaldispersion=gd3bj scf=xqc pop=npa geom=c
 heck
 ----------------------------------------------------------------------

 ------------------------------------
 CID_68476973_JID_3687_Energie_kation
 ------------------------------------
 Structure from the checkpoint file:  "JID_3687.chk"
 Charge =  1 Multiplicity = 2

 SCF Done:  E(UB3LYP) =  -557.866870803     A.U. after   22 cycles
 Normal termination of Gaussian 16 at Mon Dec 14 16:57:18 2020.
 Gaussian 16:  ES64L-G16RevA.03 25-Dec-2016

 ----------------------------------------------------------------------
 # B3LYP/6-311++G(d,p) empiricaldispersion=gd3bj scf=xqc pop=npa geom=c
 heck
 ----------------------------------------------------------------------

 -----------------------------------
 CID_68476973_JID_3687_Energie_anion
 -----------------------------------
 Structure from the checkpoint file:  "JID_3687.chk"
 Charge = -1 Multiplicity = 2

                         Standard orientation:
 ---------------------------------------------------------------------
 Center     Atomic      Atomic             Coordinates (Angstroms)
 Number     Number       Type             X           Y           Z
 ---------------------------------------------------------------------
      1          6           0        0.912906    2.529580   -0.402121
      2          6           0        1.648640    1.267626    0.039077
      3          6           0        2.120739    0.379573   -1.156515
      4          7           0        1.811319   -1.034447   -0.904776
      5          6           0        2.419709   -1.438944    0.372295
      6          6           0        1.859563   -0.557146    1.538604
      7          7           0        0.897415    0.427803    1.008049
      8          6           0       -0.212178   -0.355766    0.399303
      9          6           0        0.352845   -1.180270   -0.804914
     10          6           0       -1.451845    0.502165    0.098127
     11          7           0       -2.703799   -0.211292    0.348987
     12          6           0       -3.831789    0.708616    0.326135
     13          6           0       -2.919745   -1.308970   -0.582160
     14          1           0        0.083718    2.314310   -1.081240
     15          1           0        1.608566    3.187112   -0.936953
     16          1           0        0.521821    3.072738    0.463997
     17          1           0        2.530549    1.599736    0.600515
     18          1           0        1.616210    0.670882   -2.086171
     19          1           0        3.200250    0.476347   -1.323460
     20          1           0        2.200504   -2.500857    0.531926
     21          1           0        3.506828   -1.336758    0.278197
     22          1           0        2.662036   -0.012261    2.048151
     23          1           0        1.345782   -1.166624    2.289879
     24          1           0       -0.532076   -1.041328    1.191550
     25          1           0       -0.083178   -0.844375   -1.753415
     26          1           0        0.125833   -2.247379   -0.697843
     27          1           0       -1.426505    1.365678    0.768986
     28          1           0       -1.424179    0.887327   -0.940999
     29          1           0       -3.977362    1.197014   -0.658336
     30          1           0       -4.751710    0.167794    0.573026
     31          1           0       -3.683858    1.493145    1.075384
     32          1           0       -2.950606   -0.979724   -1.640607
     33          1           0       -2.128728   -2.056825   -0.483058
     34          1           0       -3.871508   -1.799182   -0.352341
 ---------------------------------------------------------------------

 SCF Done:  E(UB3LYP) =  -558.109585152     A.U. after   29 cycles

 The electronic state is 2-A.
 Alpha  occ. eigenvalues --  -14.20821 -14.20594 -14.20561 -10.09632 -10.09573
 Alpha  occ. eigenvalues --  -10.09196 -10.09167 -10.09019 -10.08914 -10.08815
 Alpha  occ. eigenvalues --  -10.08754 -10.08684 -10.05814  -0.86562  -0.82658
 Alpha  occ. eigenvalues --   -0.78432  -0.68284  -0.67038  -0.61042  -0.60696
 Alpha  occ. eigenvalues --   -0.59352  -0.53802  -0.52911  -0.50781  -0.48369
 Alpha  occ. eigenvalues --   -0.42833  -0.40215  -0.39921  -0.38830  -0.37013
 Alpha  occ. eigenvalues --   -0.36708  -0.34874  -0.32983  -0.32335  -0.31694
 Alpha  occ. eigenvalues --   -0.30891  -0.30270  -0.29498  -0.28635  -0.28071
 Alpha  occ. eigenvalues --   -0.27555  -0.26897  -0.26574  -0.26024  -0.24677
 Alpha  occ. eigenvalues --   -0.22700  -0.21990  -0.21561  -0.16399  -0.12403
 Alpha  occ. eigenvalues --   -0.09460   0.04467
 Alpha virt. eigenvalues --    0.06224   0.06978   0.07855   0.08390   0.08696
 Alpha virt. eigenvalues --    0.09195   0.09898   0.10270   0.10625   0.11208
 Alpha virt. eigenvalues --    0.11920   0.12098   0.12557   0.13076   0.13953

  Beta  occ. eigenvalues --  -14.20809 -14.20595 -14.20562 -10.09618 -10.09565
  Beta  occ. eigenvalues --  -10.09177 -10.09152 -10.09002 -10.08903 -10.08794
  Beta  occ. eigenvalues --  -10.08726 -10.08654 -10.05789  -0.86550  -0.82633
  Beta  occ. eigenvalues --   -0.78422  -0.68255  -0.67011  -0.60999  -0.60654
  Beta  occ. eigenvalues --   -0.59308  -0.53766  -0.52863  -0.50733  -0.48311
  Beta  occ. eigenvalues --   -0.42796  -0.40183  -0.39885  -0.38799  -0.36979
  Beta  occ. eigenvalues --   -0.36670  -0.34839  -0.32950  -0.32307  -0.31667
  Beta  occ. eigenvalues --   -0.30864  -0.30239  -0.29466  -0.28598  -0.28036
  Beta  occ. eigenvalues --   -0.27522  -0.26863  -0.26544  -0.25992  -0.24655
  Beta  occ. eigenvalues --   -0.22673  -0.21956  -0.21533  -0.16391  -0.12340
  Beta  occ. eigenvalues --   -0.09439
  Beta virt. eigenvalues --    0.06578   0.07276   0.07671   0.08319   0.09075
  Beta virt. eigenvalues --    0.09208   0.09630   0.10263   0.10484   0.11077
  Beta virt. eigenvalues --    0.11581   0.12263   0.12497   0.12769   0.13375

 Mulliken charges and spin densities:
               1          2
     1  C    0.768971  -1.480585
     2  C   -1.001768   1.112943
     3  C    0.935310  -1.422464
     4  N    0.072057   0.146536
     5  C    0.139963  -0.551000
     6  C    0.013869   0.146144
     7  N    0.177430  -0.001590
     8  C   -0.914658   0.293465
     9  C   -0.340511  -0.388193
    10  C   -0.230556  -0.277021
    11  N    0.123056   0.083937
    12  C    0.830993  -1.075072
    13  C    0.569828  -0.955389
    14  H   -0.344829   0.477462
    15  H   -0.419927   0.571451
    16  H    0.004312   0.147263
    17  H   -0.295521   0.491558
    18  H    0.058000   0.112833
    19  H   -0.249915   0.421303
    20  H   -0.157406   0.285035
    21  H   -0.111592   0.266410
    22  H   -0.190511   0.345010
    23  H   -0.064444   0.198867
    24  H    0.288254  -0.073969
    25  H   -0.040863   0.247395
    26  H    0.155727   0.030454
    27  H    0.273844  -0.078933
    28  H    0.323989  -0.203831
    29  H   -0.230855   0.336772
    30  H   -0.156648   0.290548
    31  H   -0.221417   0.340788
    32  H   -0.053446   0.164885
    33  H   -0.341164   0.477973
    34  H   -0.369570   0.519018
 Sum of Mulliken charges =  -1.00000   1.00000

 Dipole moment (field-independent basis, Debye):
    X=              0.8802    Y=             -1.2197    Z=              0.9004  Tot=              1.7531
 Quadrupole moment (field-independent basis, Debye-Ang):
   XX=           -163.0954   YY=           -131.0677   ZZ=           -117.5603
   XY=             -6.6498   XZ=              1.0019   YZ=             -0.4655

 Summary of Natural Population Analysis:

                                       Natural Population
                Natural  -----------------------------------------------
    Atom  No    Charge         Core      Valence    Rydberg      Total
 -----------------------------------------------------------------------
      C    1   -0.28879      0.99964     2.28254    0.00662     3.28879
      C    2   -0.02257      0.99958     2.00845    0.01454     3.02257
      C    3   -0.09555      0.99959     2.08369    0.01227     3.09555
      N    4   -0.26978      0.99976     2.75604    0.01398     3.76978
      C    5   -0.10054      0.99962     2.09022    0.01070     3.10054
      C    6   -0.09758      0.99962     2.08658    0.01139     3.09758
      N    7   -0.27099      0.99974     2.75834    0.01292     3.77099
      C    8   -0.02787      0.99957     2.01473    0.01358     3.02787
      C    9   -0.09887      0.99959     2.08744    0.01184     3.09887
      C   10   -0.08772      0.99958     2.07630    0.01185     3.08772
      N   11   -0.27424      0.99973     2.76210    0.01242     3.77424
      C   12   -0.17531      0.99965     2.16704    0.00863     3.17531
      C   13   -0.17930      0.99964     2.17058    0.00909     3.17930
      H   14    0.09685      0.00000     0.40177    0.00138     0.40315
      H   15    0.10183      0.00000     0.39708    0.00109     0.39817
      H   16    0.10387      0.00000     0.39470    0.00142     0.39613
      H   17    0.09561      0.00000     0.40268    0.00171     0.40439
      H   18    0.09380      0.00000     0.40479    0.00141     0.40620
      H   19    0.09857      0.00000     0.39992    0.00151     0.40143
      H   20    0.09455      0.00000     0.40427    0.00118     0.40545
      H   21    0.09642      0.00000     0.40225    0.00134     0.40358
      H   22    0.09535      0.00000     0.40328    0.00137     0.40465
      H   23    0.09352      0.00000     0.40518    0.00130     0.40648
      H   24    0.10170      0.00000     0.39597    0.00233     0.39830
      H   25    0.09594      0.00000     0.40251    0.00155     0.40406
      H   26    0.09691      0.00000     0.40179    0.00130     0.40309
      H   27    0.10441      0.00000     0.39332    0.00228     0.39559
      H   28    0.07734      0.00000     0.42075    0.00191     0.42266
      H   29    0.07996      0.00000     0.41858    0.00146     0.42004
      H   30    0.09514      0.00000     0.40362    0.00124     0.40486
      H   31    0.09531      0.00000     0.40341    0.00129     0.40469
      H   32    0.07998      0.00000     0.41857    0.00145     0.42002
      H   33    0.09529      0.00000     0.40307    0.00163     0.40471
      H   34    0.09680      0.00000     0.40195    0.00125     0.40320
 =======================================================================
   * Total *   -0.00000     12.99530    37.82347    0.18123    51.00000

 Normal termination of Gaussian 16 at Mon Dec 14 17:10:51 2020.
