 Gaussian 16, Revision A.03,

 -----------------------------------------------------------
 # opt freq B3LYP/6-31G(d) empiricaldispersion=gd3bj scf=xqc
 -----------------------------------------------------------

 -------------------------------
 CID_24257698_JID_10787_neutraal
 -------------------------------
 Symbolic Z-matrix:
 Charge =  0 Multiplicity = 1

 SCF Done:  E(RB3LYP) =  -880.530155103     A.U. after   14 cycles
 SCF Done:  E(RB3LYP) =  -880.535848363     A.U. after   12 cycles
 SCF Done:  E(RB3LYP) =  -880.536728971     A.U. after   12 cycles
 SCF Done:  E(RB3LYP) =  -880.537473509     A.U. after   13 cycles
 SCF Done:  E(RB3LYP) =  -880.537772806     A.U. after   15 cycles
 SCF Done:  E(RB3LYP) =  -880.538611642     A.U. after   12 cycles
 SCF Done:  E(RB3LYP) =  -880.539095702     A.U. after   11 cycles
 SCF Done:  E(RB3LYP) =  -880.540047246     A.U. after   14 cycles
 SCF Done:  E(RB3LYP) =  -880.534483697     A.U. after   15 cycles
 SCF Done:  E(RB3LYP) =  -880.541145509     A.U. after   13 cycles
 SCF Done:  E(RB3LYP) =  -880.543781922     A.U. after   11 cycles
 SCF Done:  E(RB3LYP) =  -880.543785872     A.U. after    9 cycles
 SCF Done:  E(RB3LYP) =  -880.543786631     A.U. after    8 cycles
 SCF Done:  E(RB3LYP) =  -880.543786839     A.U. after    8 cycles
 SCF Done:  E(RB3LYP) =  -880.543786893     A.U. after    6 cycles
 Optimization completed.
    -- Stationary point found.
 Normal termination of Gaussian 16 at Mon Dec 14 18:00:02 2020.

 --------------------------------------------------------------------
 #N Geom=AllCheck Guess=TCheck SCRF=Check GenChk RB3LYP/6-31G(d) Freq
 --------------------------------------------------------------------

 Structure from the checkpoint file:  "JID_10787.chk"
 -------------------------------
 CID_24257698_JID_10787_neutraal
 -------------------------------
 Charge =  0 Multiplicity = 1

 SCF Done:  E(RB3LYP) =  -880.543786893     A.U. after    1 cycles

  Exact polarizability: 219.994   0.758 208.466   2.574   5.512 117.865
 Approx polarizability: 302.058  -8.482 331.181   0.904  10.686 190.784

                      1                      2                      3
                      A                      A                      A
 Frequencies --     22.5632                40.5659                62.0298
 Red. masses --      4.6150                 4.1843                 3.7810
 Frc consts  --      0.0014                 0.0041                 0.0086
 IR Inten    --      0.4160                 0.7785                 2.3664

                      4                      5                      6
                      A                      A                      A
 Frequencies --     87.4164                90.7589               129.7146
 Red. masses --      3.6139                 3.5272                 3.8993
 Frc consts  --      0.0163                 0.0171                 0.0387
 IR Inten    --      2.5006                 2.6257                 1.2131

                      7                      8                      9
                      A                      A                      A
 Frequencies --    170.0209               177.0850               186.4342
 Red. masses --      3.0540                 3.4718                 3.3151
 Frc consts  --      0.0520                 0.0641                 0.0679
 IR Inten    --      1.4657                 0.4199                 2.8091

                     10                     11                     12
                      A                      A                      A
 Frequencies --    202.8270               217.4613               242.0663
 Red. masses --      3.5427                 1.8926                 1.7963
 Frc consts  --      0.0859                 0.0527                 0.0620
 IR Inten    --      0.6466                 0.5577                 0.6772

                     13                     14                     15
                      A                      A                      A
 Frequencies --    278.7676               290.9575               296.5374
 Red. masses --      1.7604                 2.0668                 2.7022
 Frc consts  --      0.0806                 0.1031                 0.1400
 IR Inten    --      0.6219                 1.2301                 4.5196

                     16                     17                     18
                      A                      A                      A
 Frequencies --    329.6402               348.4471               375.5115
 Red. masses --      3.7074                 3.3929                 3.3488
 Frc consts  --      0.2374                 0.2427                 0.2782
 IR Inten    --      0.6609                 3.5486                 9.5949

                     19                     20                     21
                      A                      A                      A
 Frequencies --    407.0649               419.0816               458.6801
 Red. masses --      4.7391                 3.7211                 4.1439
 Frc consts  --      0.4627                 0.3850                 0.5137
 IR Inten    --      2.0568                 1.6426                 0.2476

                     22                     23                     24
                      A                      A                      A
 Frequencies --    478.9209               513.1579               524.2059
 Red. masses --      3.5549                 4.1369                 4.6539
 Frc consts  --      0.4804                 0.6418                 0.7535
 IR Inten    --      7.2600                 0.7304                 4.2653

                     25                     26                     27
                      A                      A                      A
 Frequencies --    571.5240               602.3231               609.5162
 Red. masses --      3.8883                 3.9907                 4.5483
 Frc consts  --      0.7483                 0.8530                 0.9956
 IR Inten    --      9.9012                 1.1893                 5.9413

                     28                     29                     30
                      A                      A                      A
 Frequencies --    635.3881               644.2957               669.6615
 Red. masses --      4.3107                 5.3925                 3.5879
 Frc consts  --      1.0254                 1.3189                 0.9480
 IR Inten    --      1.1838                 3.5829                16.7259

                     31                     32                     33
                      A                      A                      A
 Frequencies --    710.8848               739.4307               756.5233
 Red. masses --      3.1348                 4.0161                 3.1131
 Frc consts  --      0.9334                 1.2937                 1.0497
 IR Inten    --      9.1189                 9.9971                 1.7395

                     34                     35                     36
                      A                      A                      A
 Frequencies --    771.0897               788.2291               816.7252
 Red. masses --      1.6291                 2.5942                 1.8964
 Frc consts  --      0.5707                 0.9497                 0.7453
 IR Inten    --     12.7218                27.1114                43.3749

                     37                     38                     39
                      A                      A                      A
 Frequencies --    833.2713               836.6194               862.8883
 Red. masses --      1.6605                 1.8401                 2.7447
 Frc consts  --      0.6793                 0.7588                 1.2041
 IR Inten    --     53.5301                52.4720                 9.7853

                     40                     41                     42
                      A                      A                      A
 Frequencies --    915.7869               930.0315               953.8838
 Red. masses --      1.6690                 1.5022                 2.3412
 Frc consts  --      0.8247                 0.7656                 1.2551
 IR Inten    --     12.7046                 7.9990                 0.3601

                     43                     44                     45
                      A                      A                      A
 Frequencies --    971.5219               976.0553              1010.3180
 Red. masses --      4.6884                 1.4322                 3.2014
 Frc consts  --      2.6072                 0.8039                 1.9253
 IR Inten    --     16.0256                 0.8692                22.0924

                     46                     47                     48
                      A                      A                      A
 Frequencies --   1015.4694              1017.3702              1030.6366
 Red. masses --      1.5084                 5.2736                 2.8683
 Frc consts  --      0.9164                 3.2160                 1.7951
 IR Inten    --      7.5892                 4.9734                 1.8634

                     49                     50                     51
                      A                      A                      A
 Frequencies --   1080.0532              1096.6839              1103.5338
 Red. masses --      2.2731                 3.0405                 2.0305
 Frc consts  --      1.5623                 2.1546                 1.4569
 IR Inten    --      4.1903                46.1169                 6.4656

                     52                     53                     54
                      A                      A                      A
 Frequencies --   1120.5784              1134.5387              1164.7165
 Red. masses --      1.6719                 3.6618                 3.8262
 Frc consts  --      1.2369                 2.7770                 3.0581
 IR Inten    --      5.7333                30.8017                46.8563

                     55                     56                     57
                      A                      A                      A
 Frequencies --   1181.2756              1186.9348              1188.1046
 Red. masses --      1.1302                 1.4037                 1.2965
 Frc consts  --      0.9292                 1.1651                 1.0783
 IR Inten    --      1.3328                17.4130                 4.8685

                     58                     59                     60
                      A                      A                      A
 Frequencies --   1188.8043              1212.5267              1222.3751
 Red. masses --      2.1707                 1.4138                 1.5784
 Frc consts  --      1.8075                 1.2247                 1.3896
 IR Inten    --     77.6855                23.3491                40.8846

                     61                     62                     63
                      A                      A                      A
 Frequencies --   1225.1716              1242.8069              1244.6576
 Red. masses --      1.3860                 1.8118                 2.1272
 Frc consts  --      1.2257                 1.6488                 1.9416
 IR Inten    --      4.9775               118.9366                56.6023

                     64                     65                     66
                      A                      A                      A
 Frequencies --   1266.7415              1276.2232              1295.7728
 Red. masses --      1.6425                 1.5156                 1.4966
 Frc consts  --      1.5528                 1.4544                 1.4805
 IR Inten    --     57.4350                 8.6121                 9.4291

                     67                     68                     69
                      A                      A                      A
 Frequencies --   1320.4744              1328.2720              1337.3478
 Red. masses --      4.8156                 1.5922                 4.3789
 Frc consts  --      4.9473                 1.6551                 4.6142
 IR Inten    --      4.6143                 1.8950               102.0678

                     70                     71                     72
                      A                      A                      A
 Frequencies --   1364.0146              1389.8640              1405.5531
 Red. masses --      1.8698                 1.5058                 1.5939
 Frc consts  --      2.0496                 1.7138                 1.8552
 IR Inten    --     34.1072                15.9926                38.0886

                     73                     74                     75
                      A                      A                      A
 Frequencies --   1413.4044              1471.6343              1476.3034
 Red. masses --      2.2478                 2.1679                 2.1212
 Frc consts  --      2.6458                 2.7662                 2.7239
 IR Inten    --     26.2462                47.6277                58.7170

                     76                     77                     78
                      A                      A                      A
 Frequencies --   1498.2982              1502.0218              1511.4063
 Red. masses --      1.3075                 1.2156                 1.4030
 Frc consts  --      1.7293                 1.6158                 1.8883
 IR Inten    --     27.2411                 0.9878                21.8970

                     79                     80                     81
                      A                      A                      A
 Frequencies --   1514.2896              1517.0864              1519.1387
 Red. masses --      1.3503                 1.8446                 1.0818
 Frc consts  --      1.8243                 2.5013                 1.4709
 IR Inten    --      6.3008                23.4596                 1.5616

                     82                     83                     84
                      A                      A                      A
 Frequencies --   1519.7071              1521.8603              1531.7322
 Red. masses --      1.0487                 1.0938                 1.3449
 Frc consts  --      1.4269                 1.4926                 1.8591
 IR Inten    --      5.4187                 0.9791                90.9442

                     85                     86                     87
                      A                      A                      A
 Frequencies --   1539.1532              1547.7641              1631.2367
 Red. masses --      1.0634                 1.8291                 5.9393
 Frc consts  --      1.4842                 2.5816                 9.3115
 IR Inten    --     21.4017                16.3472                 6.8672

                     88                     89                     90
                      A                      A                      A
 Frequencies --   1644.6651              1650.2483              1667.9183
 Red. masses --      6.4389                 6.4774                 6.2809
 Frc consts  --     10.2617                10.3933                10.2949
 IR Inten    --    135.2079                16.4703               177.1661

                     91                     92                     93
                      A                      A                      A
 Frequencies --   3009.7351              3025.9288              3026.2866
 Red. masses --      1.0725                 1.0343                 1.0348
 Frc consts  --      5.7242                 5.5800                 5.5835
 IR Inten    --     35.9482                66.5790                45.8229

                     94                     95                     96
                      A                      A                      A
 Frequencies --   3029.9108              3056.0116              3075.7641
 Red. masses --      1.0833                 1.0616                 1.0871
 Frc consts  --      5.8597                 5.8414                 6.0595
 IR Inten    --     21.7931                32.7572                35.0780

                     97                     98                     99
                      A                      A                      A
 Frequencies --   3084.3330              3085.3258              3099.6645
 Red. masses --      1.1065                 1.1059                 1.1067
 Frc consts  --      6.2018                 6.2026                 6.2647
 IR Inten    --     34.3507                46.3479                45.7594

                    100                    101                    102
                      A                      A                      A
 Frequencies --   3153.6987              3154.8045              3164.5233
 Red. masses --      1.1005                 1.1002                 1.0890
 Frc consts  --      6.4490                 6.4514                 6.4252
 IR Inten    --     35.4757                28.0348                26.6024

                    103                    104                    105
                      A                      A                      A
 Frequencies --   3190.4206              3212.8918              3243.2595
 Red. masses --      1.0889                 1.0961                 1.0900
 Frc consts  --      6.5302                 6.6665                 6.7551
 IR Inten    --     15.2857                29.4504                 4.4835

                    106                    107                    108
                      A                      A                      A
 Frequencies --   3244.4491              3265.9895              3491.2227
 Red. masses --      1.0920                 1.0895                 1.0743
 Frc consts  --      6.7727                 6.8473                 7.7148
 IR Inten    --      2.7363                 3.1954                 0.4535

 - Thermochemistry -
 -------------------
 Temperature   298.150 Kelvin.  Pressure   1.00000 Atm.
 Atom     1 has atomic number  6 and mass  12.00000

 Molecular mass:   270.13683 amu.
 Principal axes and moments of inertia in atomic units:
                           1         2         3
     Eigenvalues --  3733.800007115.542029714.30256
           X            0.99999   0.00148  -0.00288
           Y           -0.00150   0.99999  -0.00469
           Z            0.00287   0.00469   0.99998
 This molecule is an asymmetric top.
 Rotational symmetry number  1.
 Warning -- assumption of classical behavior for rotation
           may cause significant error
 Rotational temperatures (Kelvin)      0.02320     0.01217     0.00892
 Rotational constants (GHZ):           0.48335     0.25363     0.18578
 Zero-point vibrational energy     836718.9 (Joules/Mol)
                                  199.98061 (Kcal/Mol)
 Warning -- explicit consideration of  27 degrees of freedom as
           vibrations may cause significant error
 Vibrational temperatures:     32.46    58.37    89.25   125.77   130.58
          (Kelvin)            186.63   244.62   254.79   268.24   291.82
                              312.88   348.28   401.08   418.62   426.65
                              474.28   501.34   540.28   585.68   602.96
                              659.94   689.06   738.32   754.22   822.30
                              866.61   876.96   914.18   927.00   963.49
                             1022.80  1063.88  1088.47  1109.43  1134.09
                             1175.09  1198.89  1203.71  1241.50  1317.61
                             1338.11  1372.43  1397.80  1404.33  1453.62
                             1461.03  1463.77  1482.86  1553.96  1577.88
                             1587.74  1612.26  1632.35  1675.77  1699.59
                             1707.73  1709.42  1710.42  1744.56  1758.73
                             1762.75  1788.12  1790.78  1822.56  1836.20
                             1864.33  1899.87  1911.09  1924.15  1962.51
                             1999.70  2022.28  2033.57  2117.35  2124.07
                             2155.72  2161.07  2174.58  2178.72  2182.75
                             2185.70  2186.52  2189.62  2203.82  2214.50
                             2226.89  2346.99  2366.31  2374.34  2399.76
                             4330.34  4353.64  4354.15  4359.37  4396.92
                             4425.34  4437.67  4439.10  4459.73  4537.47
                             4539.06  4553.04  4590.30  4622.63  4666.33
                             4668.04  4699.03  5023.09

 Zero-point correction=                           0.318689 (Hartree/Particle)
 Thermal correction to Energy=                    0.335996
 Thermal correction to Enthalpy=                  0.336940
 Thermal correction to Gibbs Free Energy=         0.272875
 Sum of electronic and zero-point Energies=           -880.225098
 Sum of electronic and thermal Energies=              -880.207791
 Sum of electronic and thermal Enthalpies=            -880.206847
 Sum of electronic and thermal Free Energies=         -880.270912

                     E (Thermal)             CV                S
                      KCal/Mol        Cal/Mol-Kelvin    Cal/Mol-Kelvin
 Total                  210.841             67.882            134.837
 Electronic               0.000              0.000              0.000
 Translational            0.889              2.981             42.680
 Rotational               0.889              2.981             33.911
 Vibrational            209.063             61.920             58.245
 Vibration     1          0.593              1.985              6.395
 Vibration     2          0.594              1.981              5.231
 Vibration     3          0.597              1.972              4.392
 Vibration     4          0.601              1.958              3.717
 Vibration     5          0.602              1.956              3.644
 Vibration     6          0.612              1.924              2.950
 Vibration     7          0.625              1.879              2.435
 Vibration     8          0.628              1.871              2.359
 Vibration     9          0.632              1.858              2.263
 Vibration    10          0.639              1.836              2.107
 Vibration    11          0.646              1.814              1.980
 Vibration    12          0.658              1.776              1.788
 Vibration    13          0.679              1.713              1.541
 Vibration    14          0.687              1.691              1.468
 Vibration    15          0.690              1.680              1.436
 Vibration    16          0.712              1.616              1.262
 Vibration    17          0.726              1.578              1.173
 Vibration    18          0.746              1.522              1.057
 Vibration    19          0.772              1.455              0.937
 Vibration    20          0.782              1.429              0.895
 Vibration    21          0.817              1.342              0.770
 Vibration    22          0.835              1.297              0.713
 Vibration    23          0.868              1.221              0.626
 Vibration    24          0.879              1.196              0.600
 Vibration    25          0.928              1.093              0.501
 Vibration    26          0.961              1.027              0.446
 Vibration    27          0.968              1.012              0.434

                           ! Non-Optimized Parameters !
 Normal termination of Gaussian 16 at Mon Dec 14 18:20:05 2020.

 ----------------------------------------------------------------------
 # B3LYP/6-311++G(d,p) empiricaldispersion=gd3bj scf=xqc pop=npa geom=c
 heck
 ----------------------------------------------------------------------

 ---------------------------------------
 CID_24257698_JID_10787_Energie_neutraal
 ---------------------------------------
 Structure from the checkpoint file:  "JID_10787.chk"
 Charge =  0 Multiplicity = 1

 SCF Done:  E(RB3LYP) =  -880.777869287     A.U. after   15 cycles
 Normal termination of Gaussian 16 at Mon Dec 14 18:28:36 2020.

 ----------------------------------------------------------------------
 # B3LYP/6-311++G(d,p) empiricaldispersion=gd3bj scf=xqc pop=npa geom=c
 heck
 ----------------------------------------------------------------------

 -------------------------------------
 CID_24257698_JID_10787_Energie_kation
 -------------------------------------
 Structure from the checkpoint file:  "JID_10787.chk"
 Charge =  1 Multiplicity = 2

 SCF Done:  E(UB3LYP) =  -880.511564709     A.U. after   27 cycles
 Normal termination of Gaussian 16 at Mon Dec 14 18:51:43 2020.
 Gaussian 16:  ES64L-G16RevA.03 25-Dec-2016

 ----------------------------------------------------------------------
 # B3LYP/6-311++G(d,p) empiricaldispersion=gd3bj scf=xqc pop=npa geom=c
 heck
 ----------------------------------------------------------------------

 ------------------------------------
 CID_24257698_JID_10787_Energie_anion
 ------------------------------------
 Structure from the checkpoint file:  "JID_10787.chk"
 Charge = -1 Multiplicity = 2

                         Standard orientation:
 ---------------------------------------------------------------------
 Center     Atomic      Atomic             Coordinates (Angstroms)
 Number     Number       Type             X           Y           Z
 ---------------------------------------------------------------------
      1          6           0       -1.430468    3.921801   -0.615208
      2          8           0       -2.326064    2.909123   -0.189290
      3          6           0       -1.871386    1.619192   -0.206704
      4          6           0       -0.615901    1.234788   -0.662262
      5          6           0       -0.243509   -0.118665   -0.620775
      6          6           0       -1.125894   -1.088733   -0.143571
      7          6           0       -0.775806   -2.558145   -0.115242
      8          6           0        0.718610   -2.779571   -0.346884
      9          7           0        1.260711   -1.961111   -1.437885
     10          6           0        1.131890   -0.526823   -1.157312
     11          6           0        2.296002   -0.056090   -0.269195
     12          6           0        3.401239   -0.881456   -0.030551
     13          6           0        4.443312   -0.400326    0.758449
     14          6           0        4.361636    0.891602    1.274376
     15          6           0        3.232787    1.646449    0.959799
     16          7           0        2.223670    1.193584    0.209854
     17          6           0       -2.402575   -0.673472    0.295499
     18          6           0       -2.778604    0.663283    0.274116
     19          8           0       -3.218569   -1.682706    0.732023
     20          6           0       -4.508397   -1.336496    1.203025
     21          1           0       -1.961943    4.866676   -0.486713
     22          1           0       -1.156786    3.799707   -1.671755
     23          1           0       -0.515176    3.928430   -0.009526
     24          1           0        0.101297    1.960121   -1.016826
     25          1           0       -1.356682   -3.089605   -0.884897
     26          1           0       -1.085162   -3.000467    0.839075
     27          1           0        0.926925   -3.832907   -0.565247
     28          1           0        1.276760   -2.522799    0.560950
     29          1           0        0.743966   -2.169330   -2.290405
     30          1           0        1.269332   -0.009841   -2.116985
     31          1           0        3.428371   -1.868752   -0.474041
     32          1           0        5.308298   -1.025559    0.963557
     33          1           0        5.149110    1.307819    1.895050
     34          1           0        3.132364    2.667262    1.325872
     35          1           0       -3.748709    1.002864    0.612892
     36          1           0       -4.453022   -0.661760    2.067381
     37          1           0       -5.109525   -0.860971    0.416848
     38          1           0       -4.980653   -2.273567    1.503767
 ---------------------------------------------------------------------

 SCF Done:  E(UB3LYP) =  -880.765909284     A.U. after   33 cycles
 SCF Done:  E(UB3LYP) =  -880.765909284     a.u. after    1 cycles

 The electronic state is 2-A.
 Alpha  occ. eigenvalues --  -19.05642 -19.05433 -14.19999 -14.18854 -10.13070
 Alpha  occ. eigenvalues --  -10.12888 -10.12762 -10.12743 -10.10497 -10.09796
 Alpha  occ. eigenvalues --  -10.09793 -10.09263 -10.07707 -10.07567 -10.07033
 Alpha  occ. eigenvalues --  -10.06929 -10.06862 -10.06690 -10.06440 -10.05530
 Alpha  occ. eigenvalues --   -0.97244  -0.96966  -0.83786  -0.81534  -0.74952
 Alpha  occ. eigenvalues --   -0.69462  -0.68521  -0.67205  -0.65096  -0.63723
 Alpha  occ. eigenvalues --   -0.60818  -0.59624  -0.55780  -0.52721  -0.52146
 Alpha  occ. eigenvalues --   -0.50676  -0.48707  -0.46297  -0.43839  -0.41866
 Alpha  occ. eigenvalues --   -0.40795  -0.40111  -0.38289  -0.37725  -0.37493
 Alpha  occ. eigenvalues --   -0.37158  -0.35816  -0.35381  -0.35099  -0.34121
 Alpha  occ. eigenvalues --   -0.33455  -0.31648  -0.31189  -0.30479  -0.29634
 Alpha  occ. eigenvalues --   -0.29154  -0.28390  -0.27801  -0.26945  -0.26109
 Alpha  occ. eigenvalues --   -0.25364  -0.24905  -0.24012  -0.23882  -0.23095
 Alpha  occ. eigenvalues --   -0.19437  -0.18225  -0.15310  -0.15081  -0.13387
 Alpha  occ. eigenvalues --   -0.12768  -0.10932   0.04304
 Alpha virt. eigenvalues --    0.05729   0.06357   0.06783   0.06909   0.07875
 Alpha virt. eigenvalues --    0.08317   0.08587   0.09067   0.09257   0.09735
 Alpha virt. eigenvalues --    0.09996   0.10304   0.10489   0.11061   0.11417

  Beta  occ. eigenvalues --  -19.05635 -19.05425 -14.19986 -14.18674 -10.13059
  Beta  occ. eigenvalues --  -10.12879 -10.12726 -10.12724 -10.10503 -10.09803
  Beta  occ. eigenvalues --  -10.09688 -10.09252 -10.07697 -10.07417 -10.06984
  Beta  occ. eigenvalues --  -10.06932 -10.06854 -10.06724 -10.06437 -10.05525
  Beta  occ. eigenvalues --   -0.97226  -0.96949  -0.83575  -0.81444  -0.74936
  Beta  occ. eigenvalues --   -0.69231  -0.68463  -0.67143  -0.65019  -0.63671
  Beta  occ. eigenvalues --   -0.60781  -0.59586  -0.55705  -0.52662  -0.52012
  Beta  occ. eigenvalues --   -0.50554  -0.48656  -0.46225  -0.43801  -0.41827
  Beta  occ. eigenvalues --   -0.40729  -0.40073  -0.38262  -0.37691  -0.37416
  Beta  occ. eigenvalues --   -0.37133  -0.35730  -0.35316  -0.35055  -0.34081
  Beta  occ. eigenvalues --   -0.33420  -0.31603  -0.31145  -0.30317  -0.29457
  Beta  occ. eigenvalues --   -0.29105  -0.28286  -0.27644  -0.26904  -0.26055
  Beta  occ. eigenvalues --   -0.25260  -0.24859  -0.23968  -0.23850  -0.23069
  Beta  occ. eigenvalues --   -0.19399  -0.17421  -0.15080  -0.14734  -0.13339
  Beta  occ. eigenvalues --   -0.12725  -0.10896
  Beta virt. eigenvalues --    0.06246   0.06672   0.06858   0.07212   0.07864
  Beta virt. eigenvalues --    0.08088   0.08396   0.08919   0.09371   0.09562
  Beta virt. eigenvalues --    0.09817   0.10332   0.10390   0.10629   0.11209

 Mulliken charges and spin densities:
               1          2
     1  C    0.065873  -0.429876
     2  O   -0.175196   0.022782
     3  C   -0.562434  -0.267647
     4  C    0.848896  -0.238669
     5  C    1.377376  -0.521813
     6  C   -0.018149   0.159815
     7  C   -0.051994  -0.295882
     8  C   -0.076178  -0.321839
     9  N   -0.166124   0.145095
    10  C    0.790084  -1.097314
    11  C   -1.359143   0.564559
    12  C    0.674860  -0.557901
    13  C   -0.991559   0.643328
    14  C    0.383897  -0.607651
    15  C   -0.374731   0.370361
    16  N    0.055222   0.148732
    17  C   -0.830015   0.760598
    18  C   -0.926137   0.084314
    19  O   -0.190383   0.044346
    20  C    0.655349  -0.961507
    21  H   -0.167803   0.329434
    22  H   -0.095333   0.239627
    23  H    0.105194   0.075620
    24  H    0.415490  -0.144135
    25  H    0.003510   0.193194
    26  H    0.161301   0.025903
    27  H   -0.075607   0.254769
    28  H    0.165436  -0.034361
    29  H    0.105700   0.156618
    30  H   -0.280554   0.486164
    31  H    0.181467   0.032331
    32  H    0.005342   0.140855
    33  H    0.065487   0.064105
    34  H   -0.068185   0.218925
    35  H    0.144913   0.044186
    36  H   -0.062345   0.207469
    37  H   -0.184713   0.333729
    38  H   -0.548811   0.731734
 Sum of Mulliken charges =  -1.00000   1.00000

 Dipole moment (field-independent basis, Debye):
    X=              2.9349    Y=              0.3700    Z=              0.4609  Tot=              2.9938
 Quadrupole moment (field-independent basis, Debye-Ang):
   XX=           -194.7444   YY=           -163.7469   ZZ=           -148.5505
   XY=             -8.3043   XZ=              7.6280   YZ=              1.2085

 Summary of Natural Population Analysis:

                                       Natural Population
                Natural  -----------------------------------------------
    Atom  No    Charge         Core      Valence    Rydberg      Total
 -----------------------------------------------------------------------
      C    1   -0.09952      0.99960     2.09188    0.00804     3.09952
      O    2   -0.27549      0.99986     3.26638    0.00925     4.27549
      C    3    0.16920      0.99939     1.81937    0.01204     2.83080
      C    4   -0.14926      0.99947     2.14070    0.00910     3.14926
      C    5    0.00173      0.99947     1.98815    0.01064     2.99827
      C    6   -0.04939      0.99943     2.04090    0.00906     3.04939
      C    7   -0.20375      0.99960     2.19507    0.00908     3.20375
      C    8   -0.08979      0.99963     2.07883    0.01133     3.08979
      N    9   -0.33784      0.99976     2.82630    0.01178     3.83784
      C   10   -0.02714      0.99952     2.01332    0.01430     3.02714
      C   11    0.12876      0.99951     1.85679    0.01495     2.87124
      C   12   -0.13225      0.99950     2.12471    0.00803     3.13225
      C   13   -0.06131      0.99957     2.05191    0.00984     3.06131
      C   14   -0.12621      0.99956     2.11733    0.00933     3.12621
      C   15    0.02662      0.99959     1.95986    0.01393     2.97338
      N   16   -0.22182      0.99967     2.71030    0.01185     3.72182
      C   17    0.17384      0.99935     1.81443    0.01238     2.82616
      C   18   -0.16775      0.99948     2.15958    0.00869     3.16775
      O   19   -0.27486      0.99986     3.26521    0.00980     4.27486
      C   20   -0.10016      0.99960     2.09139    0.00917     3.10016
      H   21    0.08964      0.00000     0.40930    0.00107     0.41036
      H   22    0.08377      0.00000     0.41454    0.00169     0.41623
      H   23    0.08764      0.00000     0.41072    0.00164     0.41236
      H   24    0.11467      0.00000     0.38305    0.00228     0.38533
      H   25    0.09971      0.00000     0.39874    0.00155     0.40029
      H   26    0.10746      0.00000     0.39121    0.00133     0.39254
      H   27    0.09298      0.00000     0.40614    0.00087     0.40702
      H   28    0.09438      0.00000     0.40432    0.00130     0.40562
      H   29    0.17377      0.00000     0.32368    0.00255     0.32623
      H   30    0.11056      0.00000     0.38735    0.00209     0.38944
      H   31    0.11286      0.00000     0.38585    0.00129     0.38714
      H   32    0.09479      0.00000     0.40444    0.00078     0.40521
      H   33    0.09771      0.00000     0.40148    0.00082     0.40229
      H   34    0.08550      0.00000     0.41335    0.00115     0.41450
      H   35    0.10851      0.00000     0.38985    0.00165     0.39149
      H   36    0.08354      0.00000     0.41510    0.00136     0.41646
      H   37    0.08466      0.00000     0.41375    0.00160     0.41534
      H   38    0.09426      0.00000     0.40442    0.00131     0.40574
 =======================================================================
   * Total *   -0.00000     19.99141    51.76968    0.23891    72.00000

 Normal termination of Gaussian 16 at Mon Dec 14 19:20:21 2020.
