 Gaussian 16, Revision A.03,

 -----------------------------------------------------------
 # opt freq B3LYP/6-31G(d) empiricaldispersion=gd3bj scf=xqc
 -----------------------------------------------------------

 ------------------------------
 CID_64513717_JID_8471_neutraal
 ------------------------------
 Symbolic Z-matrix:
 Charge =  0 Multiplicity = 1

 SCF Done:  E(RB3LYP) =  -811.770973748     A.U. after   14 cycles
 SCF Done:  E(RB3LYP) =  -811.776086129     A.U. after   11 cycles
 SCF Done:  E(RB3LYP) =  -811.776989409     A.U. after   11 cycles
 SCF Done:  E(RB3LYP) =  -811.777644253     A.U. after   12 cycles
 SCF Done:  E(RB3LYP) =  -811.777906712     A.U. after   11 cycles
 SCF Done:  E(RB3LYP) =  -811.778045290     A.U. after   11 cycles
 SCF Done:  E(RB3LYP) =  -811.778128149     A.U. after   11 cycles
 SCF Done:  E(RB3LYP) =  -811.778159232     A.U. after   10 cycles
 SCF Done:  E(RB3LYP) =  -811.778170258     A.U. after    9 cycles
 SCF Done:  E(RB3LYP) =  -811.778174730     A.U. after    9 cycles
 SCF Done:  E(RB3LYP) =  -811.778176115     A.U. after    8 cycles
 SCF Done:  E(RB3LYP) =  -811.778176534     A.U. after    7 cycles
 SCF Done:  E(RB3LYP) =  -811.778176668     A.U. after    7 cycles
 Optimization completed.
    -- Stationary point found.
 Normal termination of Gaussian 16 at Fri Dec 11 20:45:46 2020.

 --------------------------------------------------------------------
 #N Geom=AllCheck Guess=TCheck SCRF=Check GenChk RB3LYP/6-31G(d) Freq
 --------------------------------------------------------------------

 Structure from the checkpoint file:  "JID_8471.chk"
 ------------------------------
 CID_64513717_JID_8471_neutraal
 ------------------------------
 Charge =  0 Multiplicity = 1

 SCF Done:  E(RB3LYP) =  -811.778176668     A.U. after    1 cycles

  Exact polarizability: 209.159   0.304 165.950  15.450   3.738 129.529
 Approx polarizability: 277.035   0.538 255.686  25.061   8.328 187.076

                      1                      2                      3
                      A                      A                      A
 Frequencies --     24.4516                28.3856                39.9485
 Red. masses --      4.1189                 3.2258                 3.5667
 Frc consts  --      0.0015                 0.0015                 0.0034
 IR Inten    --      0.4641                 0.1181                 0.2530

                      4                      5                      6
                      A                      A                      A
 Frequencies --     42.4186                51.4469                75.6245
 Red. masses --      2.9296                 2.5651                 2.7197
 Frc consts  --      0.0031                 0.0040                 0.0092
 IR Inten    --      0.1807                 0.3783                 1.8128

                      7                      8                      9
                      A                      A                      A
 Frequencies --     89.3832                96.7057               129.2504
 Red. masses --      3.4677                 2.7277                 2.9719
 Frc consts  --      0.0163                 0.0150                 0.0293
 IR Inten    --      2.6637                 0.4303                 1.0359

                     10                     11                     12
                      A                      A                      A
 Frequencies --    139.4491               172.2671               202.4030
 Red. masses --      2.6587                 1.9191                 2.8106
 Frc consts  --      0.0305                 0.0336                 0.0678
 IR Inten    --      1.8789                 0.5643                 0.6912

                     13                     14                     15
                      A                      A                      A
 Frequencies --    235.9481               249.2016               252.4277
 Red. masses --      1.6338                 1.8598                 1.3566
 Frc consts  --      0.0536                 0.0680                 0.0509
 IR Inten    --      1.7159                 1.0499                 0.4970

                     16                     17                     18
                      A                      A                      A
 Frequencies --    260.4025               282.8410               288.8419
 Red. masses --      2.0296                 2.2127                 3.1069
 Frc consts  --      0.0811                 0.1043                 0.1527
 IR Inten    --      0.0473                 0.7358                 1.6529

                     19                     20                     21
                      A                      A                      A
 Frequencies --    305.0190               325.8593               356.4432
 Red. masses --      2.7228                 2.5362                 3.0712
 Frc consts  --      0.1492                 0.1587                 0.2299
 IR Inten    --      0.9620                 0.8435                 3.9424

                     22                     23                     24
                      A                      A                      A
 Frequencies --    373.6294               397.1337               418.5423
 Red. masses --      1.2908                 2.6547                 2.4536
 Frc consts  --      0.1062                 0.2467                 0.2532
 IR Inten    --     63.8854                 6.7796                23.6018

                     25                     26                     27
                      A                      A                      A
 Frequencies --    455.4188               457.5567               475.8343
 Red. masses --      3.5280                 3.3226                 3.8732
 Frc consts  --      0.4311                 0.4098                 0.5167
 IR Inten    --      3.5579                16.3305                 0.3232

                     28                     29                     30
                      A                      A                      A
 Frequencies --    514.1510               550.3027               590.8495
 Red. masses --      3.8307                 3.5798                 2.3790
 Frc consts  --      0.5966                 0.6387                 0.4893
 IR Inten    --      2.2967                 2.8119                 0.1224

                     31                     32                     33
                      A                      A                      A
 Frequencies --    633.1309               660.1876               719.3521
 Red. masses --      4.0325                 3.5038                 3.8206
 Frc consts  --      0.9524                 0.8998                 1.1648
 IR Inten    --      5.8529                 4.6661                 4.5552

                     34                     35                     36
                      A                      A                      A
 Frequencies --    743.7994               759.3984               778.7538
 Red. masses --      4.4504                 2.1047                 2.7922
 Frc consts  --      1.4507                 0.7151                 0.9977
 IR Inten    --      1.0864                 1.9484                11.4813

                     37                     38                     39
                      A                      A                      A
 Frequencies --    819.1523               832.0889               834.0270
 Red. masses --      1.2059                 1.1220                 1.3699
 Frc consts  --      0.4767                 0.4577                 0.5614
 IR Inten    --      2.0021                 1.1086                 0.9188

                     40                     41                     42
                      A                      A                      A
 Frequencies --    847.2969               875.1138               890.1969
 Red. masses --      1.6201                 2.4119                 1.5430
 Frc consts  --      0.6853                 1.0883                 0.7204
 IR Inten    --     15.4699                 7.6137                 6.2462

                     43                     44                     45
                      A                      A                      A
 Frequencies --    908.5683               912.3764               934.9840
 Red. masses --      1.9276                 2.3433                 1.9531
 Frc consts  --      0.9375                 1.1493                 1.0060
 IR Inten    --      9.7770                13.3776                19.7473

                     46                     47                     48
                      A                      A                      A
 Frequencies --    953.2843               975.3167              1002.7955
 Red. masses --      1.3242                 2.8091                 1.7161
 Frc consts  --      0.7090                 1.5744                 1.0168
 IR Inten    --      0.6336                17.1171                 1.1072

                     49                     50                     51
                      A                      A                      A
 Frequencies --   1018.0437              1059.4769              1065.4209
 Red. masses --      2.2296                 4.3537                 2.8231
 Frc consts  --      1.3615                 2.8794                 1.8881
 IR Inten    --      4.7335                62.2221                15.2676

                     52                     53                     54
                      A                      A                      A
 Frequencies --   1071.3656              1071.6462              1119.2096
 Red. masses --      1.9436                 3.2425                 1.6142
 Frc consts  --      1.3144                 2.1940                 1.1913
 IR Inten    --     42.0634                98.2107                20.2918

                     55                     56                     57
                      A                      A                      A
 Frequencies --   1124.7393              1145.2601              1155.6649
 Red. masses --      1.9506                 2.1424                 1.8115
 Frc consts  --      1.4539                 1.6556                 1.4254
 IR Inten    --     28.1633                55.8232                34.0786

                     58                     59                     60
                      A                      A                      A
 Frequencies --   1158.9487              1188.0621              1196.0498
 Red. masses --      1.6946                 1.8260                 1.5956
 Frc consts  --      1.3410                 1.5185                 1.3449
 IR Inten    --     12.0031                44.8186                 7.0605

                     61                     62                     63
                      A                      A                      A
 Frequencies --   1202.9525              1218.8649              1244.7130
 Red. masses --      1.6624                 1.4097                 2.2495
 Frc consts  --      1.4173                 1.2339                 2.0534
 IR Inten    --      0.5929                 6.8882                72.1414

                     64                     65                     66
                      A                      A                      A
 Frequencies --   1253.6434              1287.8099              1290.1450
 Red. masses --      1.2999                 1.3328                 1.6547
 Frc consts  --      1.2037                 1.3023                 1.6227
 IR Inten    --     19.5890                 5.5799                55.3802

                     67                     68                     69
                      A                      A                      A
 Frequencies --   1309.2588              1314.8123              1318.8551
 Red. masses --      1.4877                 1.3503                 1.7291
 Frc consts  --      1.5025                 1.3753                 1.7720
 IR Inten    --     62.6286                 7.1297                66.1494

                     70                     71                     72
                      A                      A                      A
 Frequencies --   1339.2947              1345.1884              1367.8752
 Red. masses --      1.5076                 2.5643                 1.3922
 Frc consts  --      1.5932                 2.7339                 1.5348
 IR Inten    --     75.4568                 7.3446                 5.2282

                     73                     74                     75
                      A                      A                      A
 Frequencies --   1387.3581              1402.4787              1415.1680
 Red. masses --      1.4966                 1.4651                 1.3617
 Frc consts  --      1.6972                 1.6979                 1.6068
 IR Inten    --      1.8913                15.5833                15.9802

                     76                     77                     78
                      A                      A                      A
 Frequencies --   1417.0835              1419.8182              1441.6037
 Red. masses --      1.2570                 1.3532                 1.2620
 Frc consts  --      1.4873                 1.6073                 1.5452
 IR Inten    --      4.3551                 7.6262                 4.0843

                     79                     80                     81
                      A                      A                      A
 Frequencies --   1443.4872              1445.3612              1454.8772
 Red. masses --      1.3958                 1.3042                 1.2172
 Frc consts  --      1.7135                 1.6052                 1.5179
 IR Inten    --     32.8904                34.5178                32.1946

                     82                     83                     84
                      A                      A                      A
 Frequencies --   1478.1280              1505.5406              1511.4208
 Red. masses --      2.4737                 1.0833                 1.0473
 Frc consts  --      3.1843                 1.4467                 1.4096
 IR Inten    --      7.8202                 4.7765                 1.4917

                     85                     86                     87
                      A                      A                      A
 Frequencies --   1515.2488              1516.6836              1518.7597
 Red. masses --      1.0511                 1.0978                 1.0517
 Frc consts  --      1.4218                 1.4879                 1.4293
 IR Inten    --      8.8262                 3.3600                 2.2128

                     88                     89                     90
                      A                      A                      A
 Frequencies --   1530.0591              1532.0869              1532.2372
 Red. masses --      1.0827                 1.0566                 1.0503
 Frc consts  --      1.4935                 1.4613                 1.4528
 IR Inten    --      3.2042                 5.7077                 2.5757

                     91                     92                     93
                      A                      A                      A
 Frequencies --   1533.4114              1541.3897              1554.3136
 Red. masses --      1.1386                 1.0831                 2.4540
 Frc consts  --      1.5773                 1.5162                 3.4931
 IR Inten    --     16.3299                 6.9410               126.1848

                     94                     95                     96
                      A                      A                      A
 Frequencies --   1556.0385              1627.9617              1664.4407
 Red. masses --      1.1144                 7.0209                 6.1468
 Frc consts  --      1.5897                10.9630                10.0331
 IR Inten    --      5.7611                19.0198                 9.7322

                     97                     98                     99
                      A                      A                      A
 Frequencies --   3028.3611              3036.7910              3036.9942
 Red. masses --      1.0688                 1.0744                 1.0672
 Frc consts  --      5.7752                 5.8376                 5.7997
 IR Inten    --     49.7673                 2.1121                40.5123

                    100                    101                    102
                      A                      A                      A
 Frequencies --   3040.9284              3045.3654              3051.4703
 Red. masses --      1.0666                 1.0390                 1.0627
 Frc consts  --      5.8112                 5.6772                 5.8301
 IR Inten    --     32.9950                 9.5287                10.9151

                    103                    104                    105
                      A                      A                      A
 Frequencies --   3056.1162              3059.3548              3061.1903
 Red. masses --      1.0668                 1.0350                 1.0370
 Frc consts  --      5.8704                 5.7078                 5.7255
 IR Inten    --    105.2025                17.6199                13.1043

                    106                    107                    108
                      A                      A                      A
 Frequencies --   3080.2353              3085.4734              3095.7060
 Red. masses --      1.1007                 1.1009                 1.0997
 Frc consts  --      6.1529                 6.1749                 6.2092
 IR Inten    --     11.3325                20.5636                55.1037

                    109                    110                    111
                      A                      A                      A
 Frequencies --   3110.7090              3111.6348              3111.9297
 Red. masses --      1.0962                 1.1019                 1.0984
 Frc consts  --      6.2495                 6.2861                 6.2671
 IR Inten    --      2.7920                55.6492                21.0634

                    112                    113                    114
                      A                      A                      A
 Frequencies --   3118.1826              3130.5782              3131.0814
 Red. masses --      1.1018                 1.1010                 1.1010
 Frc consts  --      6.3117                 6.3572                 6.3595
 IR Inten    --     44.7473                53.5774                19.1661

                    115                    116                    117
                      A                      A                      A
 Frequencies --   3138.6196              3148.7865              3188.8721
 Red. masses --      1.1031                 1.1039                 1.0875
 Frc consts  --      6.4024                 6.4488                 6.5156
 IR Inten    --     32.4621                36.4118                10.0412

                    118                    119                    120
                      A                      A                      A
 Frequencies --   3199.6279              3207.6330              3732.2636
 Red. masses --      1.0902                 1.0943                 1.0653
 Frc consts  --      6.5760                 6.6339                 8.7427
 IR Inten    --      9.4841                 8.9055                84.6824

 - Thermochemistry -
 -------------------
 Temperature   298.150 Kelvin.  Pressure   1.00000 Atm.
 Atom     1 has atomic number  6 and mass  12.00000

 Molecular mass:   252.17254 amu.
 Principal axes and moments of inertia in atomic units:
                           1         2         3
     Eigenvalues --  2900.404567823.332538575.86896
           X            0.99995  -0.00114   0.00952
           Y            0.00122   0.99996  -0.00851
           Z           -0.00951   0.00852   0.99992
 This molecule is an asymmetric top.
 Rotational symmetry number  1.
 Warning -- assumption of classical behavior for rotation
           may cause significant error
 Rotational temperatures (Kelvin)      0.02986     0.01107     0.01010
 Rotational constants (GHZ):           0.62224     0.23069     0.21044
 Zero-point vibrational energy     973653.3 (Joules/Mol)
                                  232.70873 (Kcal/Mol)
 Warning -- explicit consideration of  30 degrees of freedom as
           vibrations may cause significant error
 Vibrational temperatures:     35.18    40.84    57.48    61.03    74.02
          (Kelvin)            108.81   128.60   139.14   185.96   200.64
                              247.85   291.21   339.48   358.55   363.19
                              374.66   406.95   415.58   438.85   468.84
                              512.84   537.57   571.39   602.19   655.25
                              658.32   684.62   739.75   791.76   850.10
                              910.93   949.86  1034.99  1070.16  1092.60
                             1120.45  1178.58  1197.19  1199.98  1219.07
                             1259.09  1280.79  1307.23  1312.71  1345.23
                             1371.56  1403.26  1442.80  1464.74  1524.35
                             1532.90  1541.46  1541.86  1610.29  1618.25
                             1647.77  1662.74  1667.47  1709.36  1720.85
                             1730.78  1753.67  1790.86  1803.71  1852.87
                             1856.23  1883.73  1891.72  1897.54  1926.95
                             1935.43  1968.07  1996.10  2017.85  2036.11
                             2038.87  2042.80  2074.15  2076.86  2079.55
                             2093.24  2126.70  2166.14  2174.60  2180.11
                             2182.17  2185.16  2201.41  2204.33  2204.55
                             2206.24  2217.72  2236.31  2238.79  2342.27
                             2394.76  4357.14  4369.26  4369.56  4375.22
                             4381.60  4390.39  4397.07  4401.73  4404.37
                             4431.77  4439.31  4454.03  4475.62  4476.95
                             4477.37  4486.37  4504.20  4504.93  4515.77
                             4530.40  4588.08  4603.55  4615.07  5369.89

 Zero-point correction=                           0.370845 (Hartree/Particle)
 Thermal correction to Energy=                    0.390889
 Thermal correction to Enthalpy=                  0.391833
 Thermal correction to Gibbs Free Energy=         0.320385
 Sum of electronic and zero-point Energies=           -811.407332
 Sum of electronic and thermal Energies=              -811.387288
 Sum of electronic and thermal Enthalpies=            -811.386344
 Sum of electronic and thermal Free Energies=         -811.457791

                     E (Thermal)             CV                S
                      KCal/Mol        Cal/Mol-Kelvin    Cal/Mol-Kelvin
 Total                  245.286             74.293            150.375
 Electronic               0.000              0.000              0.000
 Translational            0.889              2.981             42.475
 Rotational               0.889              2.981             33.631
 Vibrational            243.509             68.332             74.269
 Vibration     1          0.593              1.985              6.235
 Vibration     2          0.593              1.984              5.939
 Vibration     3          0.594              1.981              5.262
 Vibration     4          0.595              1.980              5.143
 Vibration     5          0.596              1.977              4.761
 Vibration     6          0.599              1.965              4.001
 Vibration     7          0.602              1.957              3.674
 Vibration     8          0.603              1.952              3.520
 Vibration     9          0.612              1.924              2.957
 Vibration    10          0.615              1.914              2.811
 Vibration    11          0.626              1.877              2.411
 Vibration    12          0.639              1.836              2.111
 Vibration    13          0.655              1.786              1.833
 Vibration    14          0.662              1.764              1.736
 Vibration    15          0.664              1.759              1.714
 Vibration    16          0.668              1.745              1.659
 Vibration    17          0.682              1.705              1.516
 Vibration    18          0.685              1.694              1.481
 Vibration    19          0.696              1.664              1.389
 Vibration    20          0.710              1.624              1.281
 Vibration    21          0.732              1.562              1.138
 Vibration    22          0.745              1.526              1.065
 Vibration    23          0.764              1.476              0.973
 Vibration    24          0.781              1.430              0.897
 Vibration    25          0.814              1.349              0.780
 Vibration    26          0.816              1.344              0.773
 Vibration    27          0.832              1.304              0.721
 Vibration    28          0.869              1.219              0.624
 Vibration    29          0.906              1.139              0.544
 Vibration    30          0.948              1.051              0.466

                           ! Non-Optimized Parameters !
 Normal termination of Gaussian 16 at Fri Dec 11 21:04:16 2020.

 ----------------------------------------------------------------------
 # B3LYP/6-311++G(d,p) empiricaldispersion=gd3bj scf=xqc pop=npa geom=c
 heck
 ----------------------------------------------------------------------

 --------------------------------------
 CID_64513717_JID_8471_Energie_neutraal
 --------------------------------------
 Structure from the checkpoint file:  "JID_8471.chk"
 Charge =  0 Multiplicity = 1

 SCF Done:  E(RB3LYP) =  -812.012220141     A.U. after   14 cycles
 Normal termination of Gaussian 16 at Fri Dec 11 21:11:33 2020.

 ----------------------------------------------------------------------
 # B3LYP/6-311++G(d,p) empiricaldispersion=gd3bj scf=xqc pop=npa geom=c
 heck
 ----------------------------------------------------------------------

 ------------------------------------
 CID_64513717_JID_8471_Energie_kation
 ------------------------------------
 Structure from the checkpoint file:  "JID_8471.chk"
 Charge =  1 Multiplicity = 2

 SCF Done:  E(UB3LYP) =  -811.718793088     A.U. after   25 cycles
 Normal termination of Gaussian 16 at Fri Dec 11 21:29:45 2020.
 Gaussian 16:  ES64L-G16RevA.03 25-Dec-2016

 ----------------------------------------------------------------------
 # B3LYP/6-311++G(d,p) empiricaldispersion=gd3bj scf=xqc pop=npa geom=c
 heck
 ----------------------------------------------------------------------

 -----------------------------------
 CID_64513717_JID_8471_Energie_anion
 -----------------------------------
 Structure from the checkpoint file:  "JID_8471.chk"
 Charge = -1 Multiplicity = 2

                         Standard orientation:
 ---------------------------------------------------------------------
 Center     Atomic      Atomic             Coordinates (Angstroms)
 Number     Number       Type             X           Y           Z
 ---------------------------------------------------------------------
      1          6           0       -4.667959    1.829489    0.605589
      2          6           0       -3.390457    1.161353    1.121012
      3          6           0       -3.344812   -0.358170    0.906570
      4          6           0       -3.472612   -0.801724   -0.562877
      5          6           0       -2.481193   -0.161944   -1.557790
      6          6           0       -1.024449   -0.427321   -1.241372
      7          6           0       -0.174002    0.607971   -0.837248
      8          6           0        1.157746    0.368017   -0.486292
      9          6           0        1.662891   -0.940522   -0.551351
     10          6           0        0.829050   -1.974402   -0.983267
     11          6           0       -0.497746   -1.724250   -1.320881
     12          8           0        2.976377   -1.191156   -0.220760
     13          6           0        3.173636   -1.779892    1.077500
     14          6           0        2.901725   -0.805016    2.213637
     15          8           0        1.909231    1.416314   -0.023970
     16          6           0        3.052033    1.772728   -0.824100
     17          6           0        3.775875    2.892277   -0.102034
     18          8           0       -2.196914   -0.923865    1.539222
     19          1           0       -4.752940    1.762555   -0.484903
     20          1           0       -4.691645    2.891258    0.873448
     21          1           0       -5.560330    1.358541    1.036070
     22          1           0       -2.512268    1.621561    0.649447
     23          1           0       -3.283345    1.336587    2.197801
     24          1           0       -4.192554   -0.798615    1.447457
     25          1           0       -3.355900   -1.891730   -0.582561
     26          1           0       -4.491408   -0.589052   -0.911305
     27          1           0       -2.710120   -0.550939   -2.558561
     28          1           0       -2.649634    0.919766   -1.605346
     29          1           0       -0.535158    1.630249   -0.772428
     30          1           0        1.240053   -2.977745   -1.045636
     31          1           0       -1.134204   -2.544539   -1.640864
     32          1           0        2.540330   -2.672771    1.170803
     33          1           0        4.218561   -2.102611    1.076051
     34          1           0        1.857689   -0.478120    2.211010
     35          1           0        3.106632   -1.288452    3.175835
     36          1           0        3.534658    0.082193    2.122007
     37          1           0        3.696822    0.899045   -0.953544
     38          1           0        2.702838    2.099487   -1.813817
     39          1           0        4.123084    2.552966    0.879369
     40          1           0        4.644401    3.218550   -0.684292
     41          1           0        3.112488    3.750239    0.046335
     42          1           0       -1.415962   -0.590343    1.069113
 ---------------------------------------------------------------------

 SCF Done:  E(UB3LYP) =  -811.999697258     A.U. after   33 cycles
 SCF Done:  E(UB3LYP) =  -811.999697258     a.u. after    1 cycles

 The electronic state is 2-A.
 Alpha  occ. eigenvalues --  -19.04660 -19.04622 -19.01743 -10.13516 -10.13404
 Alpha  occ. eigenvalues --  -10.12962 -10.12695 -10.12317 -10.08562 -10.08321
 Alpha  occ. eigenvalues --  -10.07900 -10.07828 -10.07788 -10.07508 -10.07298
 Alpha  occ. eigenvalues --  -10.07254 -10.07244 -10.07039  -0.97226  -0.95231
 Alpha  occ. eigenvalues --   -0.92184  -0.76596  -0.70907  -0.68690  -0.68132
 Alpha  occ. eigenvalues --   -0.66504  -0.64281  -0.62715  -0.58384  -0.55297
 Alpha  occ. eigenvalues --   -0.53805  -0.53205  -0.51409  -0.49018  -0.47267
 Alpha  occ. eigenvalues --   -0.43600  -0.41595  -0.40794  -0.39523  -0.38937
 Alpha  occ. eigenvalues --   -0.38202  -0.37212  -0.36921  -0.35026  -0.34194
 Alpha  occ. eigenvalues --   -0.33760  -0.33550  -0.32669  -0.31321  -0.30692
 Alpha  occ. eigenvalues --   -0.30445  -0.29691  -0.29591  -0.28853  -0.28506
 Alpha  occ. eigenvalues --   -0.28023  -0.27195  -0.26850  -0.25691  -0.25165
 Alpha  occ. eigenvalues --   -0.24630  -0.24077  -0.23873  -0.21717  -0.20284
 Alpha  occ. eigenvalues --   -0.18247  -0.17382  -0.15678  -0.13608   0.04080
 Alpha virt. eigenvalues --    0.05583   0.06399   0.06772   0.07448   0.07797
 Alpha virt. eigenvalues --    0.07975   0.08240   0.08551   0.08980   0.09501
 Alpha virt. eigenvalues --    0.09647   0.10289   0.10475   0.10817   0.11151

  Beta  occ. eigenvalues --  -19.04663 -19.04622 -19.01738 -10.13520 -10.13375
  Beta  occ. eigenvalues --  -10.12895 -10.12680 -10.12312 -10.08488 -10.08310
  Beta  occ. eigenvalues --  -10.07895 -10.07810 -10.07776 -10.07485 -10.07292
  Beta  occ. eigenvalues --  -10.07239 -10.07222 -10.07008  -0.97206  -0.95216
  Beta  occ. eigenvalues --   -0.92173  -0.76521  -0.70859  -0.68644  -0.68089
  Beta  occ. eigenvalues --   -0.66467  -0.64231  -0.62657  -0.58331  -0.55228
  Beta  occ. eigenvalues --   -0.53758  -0.53156  -0.51363  -0.48956  -0.47219
  Beta  occ. eigenvalues --   -0.43569  -0.41558  -0.40752  -0.39498  -0.38877
  Beta  occ. eigenvalues --   -0.38162  -0.37178  -0.36892  -0.34988  -0.34153
  Beta  occ. eigenvalues --   -0.33728  -0.33519  -0.32632  -0.31287  -0.30642
  Beta  occ. eigenvalues --   -0.30416  -0.29650  -0.29551  -0.28784  -0.28468
  Beta  occ. eigenvalues --   -0.27981  -0.27158  -0.26796  -0.25660  -0.25139
  Beta  occ. eigenvalues --   -0.24578  -0.24022  -0.23835  -0.21677  -0.20258
  Beta  occ. eigenvalues --   -0.18219  -0.17363  -0.15522  -0.13379
  Beta virt. eigenvalues --    0.05983   0.06407   0.06823   0.07269   0.07643
  Beta virt. eigenvalues --    0.08104   0.08190   0.08471   0.09053   0.09164
  Beta virt. eigenvalues --    0.09663   0.09963   0.10506   0.10644   0.11112

 Mulliken charges and spin densities:
               1          2
     1  C    0.529729  -1.187487
     2  C   -0.788717   0.750316
     3  C   -0.027048  -0.372717
     4  C    0.240846  -0.569760
     5  C    0.657195  -0.942823
     6  C    0.268639   0.686345
     7  C   -0.724116   0.213221
     8  C   -0.125944  -0.329792
     9  C    0.934777  -0.948008
    10  C   -0.300145   0.055409
    11  C   -0.850932   0.458453
    12  O   -0.128073   0.018567
    13  C    0.209998  -0.371763
    14  C   -0.215425  -0.259095
    15  O   -0.052905   0.016247
    16  C   -0.290640   0.150057
    17  C    0.444745  -0.907424
    18  O   -0.218998   0.007317
    19  H   -0.183447   0.333699
    20  H   -0.194653   0.332499
    21  H   -0.076715   0.208857
    22  H    0.242211  -0.080389
    23  H    0.059695   0.100958
    24  H    0.083996   0.104780
    25  H    0.121094   0.052353
    26  H   -0.192809   0.361676
    27  H   -0.265152   0.455446
    28  H   -0.121576   0.308605
    29  H   -0.025129   0.190837
    30  H   -0.067836   0.239798
    31  H   -0.089278   0.239151
    32  H    0.186040  -0.081319
    33  H   -0.434430   0.611252
    34  H    0.052472   0.119602
    35  H   -0.044449   0.186083
    36  H    0.203293  -0.051825
    37  H    0.161676   0.031406
    38  H   -0.094164   0.231681
    39  H   -0.071783   0.214022
    40  H   -0.153608   0.285309
    41  H   -0.034149   0.176627
    42  H    0.375718  -0.038171
 Sum of Mulliken charges =  -1.00000   1.00000

 Dipole moment (field-independent basis, Debye):
    X=              1.5720    Y=             -1.2990    Z=              1.5001  Tot=              2.5316
 Quadrupole moment (field-independent basis, Debye-Ang):
   XX=           -210.1282   YY=           -153.7172   ZZ=           -152.5023
   XY=              3.1333   XZ=             -6.6199   YZ=              1.8002

 Summary of Natural Population Analysis:

                                       Natural Population
                Natural  -----------------------------------------------
    Atom  No    Charge         Core      Valence    Rydberg      Total
 -----------------------------------------------------------------------
      C    1   -0.28794      0.99966     2.28348    0.00480     3.28794
      C    2   -0.20415      0.99962     2.19599    0.00855     3.20415
      C    3    0.06543      0.99955     1.92092    0.01411     2.93457
      C    4   -0.19766      0.99960     2.18913    0.00893     3.19766
      C    5   -0.20267      0.99959     2.19233    0.01075     3.20267
      C    6   -0.01605      0.99952     2.00556    0.01097     3.01605
      C    7   -0.12106      0.99947     2.11168    0.00991     3.12106
      C    8    0.14000      0.99932     1.84700    0.01368     2.86000
      C    9    0.13480      0.99931     1.85229    0.01359     2.86520
      C   10   -0.11160      0.99952     2.10320    0.00889     3.11160
      C   11   -0.10274      0.99951     2.09398    0.00926     3.10274
      O   12   -0.29663      0.99987     3.28611    0.01066     4.29663
      C   13   -0.00489      0.99957     1.99379    0.01153     3.00489
      C   14   -0.30208      0.99966     2.29647    0.00595     3.30208
      O   15   -0.29377      0.99986     3.28300    0.01092     4.29377
      C   16   -0.01177      0.99957     2.00063    0.01157     3.01177
      C   17   -0.29143      0.99966     2.28722    0.00455     3.29143
      O   18   -0.37475      0.99990     3.36869    0.00616     4.37475
      H   19    0.09925      0.00000     0.39947    0.00128     0.40075
      H   20    0.09943      0.00000     0.39978    0.00078     0.40057
      H   21    0.09604      0.00000     0.40288    0.00108     0.40396
      H   22    0.09539      0.00000     0.40295    0.00165     0.40461
      H   23    0.09954      0.00000     0.39940    0.00106     0.40046
      H   24    0.08251      0.00000     0.41576    0.00173     0.41749
      H   25    0.10077      0.00000     0.39805    0.00118     0.39923
      H   26    0.10350      0.00000     0.39514    0.00136     0.39650
      H   27    0.10844      0.00000     0.38967    0.00189     0.39156
      H   28    0.10109      0.00000     0.39738    0.00153     0.39891
      H   29    0.10621      0.00000     0.39196    0.00183     0.39379
      H   30    0.10361      0.00000     0.39540    0.00098     0.39639
      H   31    0.10145      0.00000     0.39755    0.00099     0.39855
      H   32    0.07969      0.00000     0.41916    0.00115     0.42031
      H   33    0.08949      0.00000     0.40884    0.00167     0.41051
      H   34    0.10401      0.00000     0.39487    0.00113     0.39599
      H   35    0.09893      0.00000     0.40023    0.00084     0.40107
      H   36    0.10280      0.00000     0.39611    0.00109     0.39720
      H   37    0.09306      0.00000     0.40516    0.00177     0.40694
      H   38    0.07997      0.00000     0.41868    0.00135     0.42003
      H   39    0.09974      0.00000     0.39886    0.00139     0.40026
      H   40    0.10000      0.00000     0.39907    0.00094     0.40000
      H   41    0.09976      0.00000     0.39883    0.00140     0.40024
      H   42    0.23426      0.00000     0.26253    0.00321     0.26574
 =======================================================================
   * Total *   -0.00000     17.99274    50.79919    0.20807    69.00000

 Normal termination of Gaussian 16 at Fri Dec 11 21:52:55 2020.
