 Gaussian 16, Revision A.03,

 -----------------------------------------------------------
 # opt freq B3LYP/6-31G(d) empiricaldispersion=gd3bj scf=xqc
 -----------------------------------------------------------

 -------------------------------
 CID_130021443_JID_5774_neutraal
 -------------------------------
 Symbolic Z-matrix:
 Charge =  0 Multiplicity = 1

 SCF Done:  E(RB3LYP) =  -708.631232342     A.U. after   14 cycles
 SCF Done:  E(RB3LYP) =  -708.634915272     A.U. after   12 cycles
 SCF Done:  E(RB3LYP) =  -708.634926544     A.U. after   11 cycles
 SCF Done:  E(RB3LYP) =  -708.635653654     A.U. after   11 cycles
 SCF Done:  E(RB3LYP) =  -708.635956322     A.U. after   11 cycles
 SCF Done:  E(RB3LYP) =  -708.636148765     A.U. after   11 cycles
 SCF Done:  E(RB3LYP) =  -708.636284405     A.U. after   10 cycles
 SCF Done:  E(RB3LYP) =  -708.636351443     A.U. after   10 cycles
 SCF Done:  E(RB3LYP) =  -708.636372580     A.U. after    9 cycles
 SCF Done:  E(RB3LYP) =  -708.636379405     A.U. after    9 cycles
 SCF Done:  E(RB3LYP) =  -708.636380716     A.U. after    8 cycles
 SCF Done:  E(RB3LYP) =  -708.636380970     A.U. after    7 cycles
 SCF Done:  E(RB3LYP) =  -708.636381032     A.U. after    7 cycles
 Optimization completed.
    -- Stationary point found.
 Normal termination of Gaussian 16 at Thu Dec 10 16:49:40 2020.

 --------------------------------------------------------------------
 #N Geom=AllCheck Guess=TCheck SCRF=Check GenChk RB3LYP/6-31G(d) Freq
 --------------------------------------------------------------------

 Structure from the checkpoint file:  "JID_5774.chk"
 -------------------------------
 CID_130021443_JID_5774_neutraal
 -------------------------------
 Charge =  0 Multiplicity = 1

 SCF Done:  E(RB3LYP) =  -708.636381032     A.U. after    1 cycles

  Exact polarizability: 162.755  -6.252 138.168  -4.731   3.905  80.887
 Approx polarizability: 226.379   1.870 223.627  -4.703  12.817 121.790

                      1                      2                      3
                      A                      A                      A
 Frequencies --     40.7143                80.9266                93.0466
 Red. masses --      3.9105                 4.9558                 3.7298
 Frc consts  --      0.0038                 0.0191                 0.0190
 IR Inten    --      0.2242                 1.1408                 0.9741

                      4                      5                      6
                      A                      A                      A
 Frequencies --    133.5394               153.4510               178.1458
 Red. masses --      1.8633                 1.5846                 2.6488
 Frc consts  --      0.0196                 0.0220                 0.0495
 IR Inten    --      0.4355                 0.7661                 6.5523

                      7                      8                      9
                      A                      A                      A
 Frequencies --    221.5613               230.6857               262.7827
 Red. masses --      3.3658                 4.5144                 4.1040
 Frc consts  --      0.0973                 0.1415                 0.1670
 IR Inten    --      0.2132                 2.3942                 2.1411

                     10                     11                     12
                      A                      A                      A
 Frequencies --    264.5156               303.6626               321.7735
 Red. masses --      2.6790                 4.7197                 5.4300
 Frc consts  --      0.1104                 0.2564                 0.3312
 IR Inten    --      6.6591                 0.7577                20.5871

                     13                     14                     15
                      A                      A                      A
 Frequencies --    366.8967               413.4770               461.5824
 Red. masses --      2.4769                 4.0616                 4.7870
 Frc consts  --      0.1964                 0.4091                 0.6009
 IR Inten    --      1.1997                 9.0667                 1.5465

                     16                     17                     18
                      A                      A                      A
 Frequencies --    461.9404               513.0913               545.1425
 Red. masses --      3.4962                 3.8026                 3.0063
 Frc consts  --      0.4396                 0.5898                 0.5264
 IR Inten    --      2.7400                 3.1784                 4.4636

                     19                     20                     21
                      A                      A                      A
 Frequencies --    555.2401               573.7910               596.4241
 Red. masses --      1.4314                 2.2082                 2.7559
 Frc consts  --      0.2600                 0.4284                 0.5776
 IR Inten    --     68.2913                19.1907                 9.7880

                     22                     23                     24
                      A                      A                      A
 Frequencies --    613.6006               625.1145               739.2216
 Red. masses --      5.3032                 3.9306                 3.7334
 Frc consts  --      1.1764                 0.9050                 1.2020
 IR Inten    --      4.1861                 6.8495                14.2867

                     25                     26                     27
                      A                      A                      A
 Frequencies --    754.7852               794.5932               823.9136
 Red. masses --      3.2860                 1.6227                 2.6176
 Frc consts  --      1.1030                 0.6036                 1.0469
 IR Inten    --      8.8838                48.5308                65.3113

                     28                     29                     30
                      A                      A                      A
 Frequencies --    843.2540               861.2230               889.7475
 Red. masses --      2.6823                 2.5585                 1.4174
 Frc consts  --      1.1238                 1.1181                 0.6611
 IR Inten    --     41.5890                37.0970                 1.5375

                     31                     32                     33
                      A                      A                      A
 Frequencies --    899.6917               956.0462               962.2422
 Red. masses --      2.1589                 1.8500                 1.2507
 Frc consts  --      1.0296                 0.9963                 0.6823
 IR Inten    --      4.9976                 7.6863                 0.2986

                     34                     35                     36
                      A                      A                      A
 Frequencies --    999.3114              1028.0638              1037.9660
 Red. masses --      3.3061                 7.7170                 2.0018
 Frc consts  --      1.9452                 4.8055                 1.2707
 IR Inten    --      1.5288                59.3774                36.4024

                     37                     38                     39
                      A                      A                      A
 Frequencies --   1054.9844              1089.6000              1101.8410
 Red. masses --      3.7038                 2.6239                 2.0083
 Frc consts  --      2.4288                 1.8354                 1.4365
 IR Inten    --      2.9597                 4.4088                29.7983

                     40                     41                     42
                      A                      A                      A
 Frequencies --   1142.1949              1154.6282              1181.2470
 Red. masses --      5.5600                 4.1533                 2.0912
 Frc consts  --      4.2737                 3.2623                 1.7192
 IR Inten    --    139.3609                 3.6033                22.0953

                     43                     44                     45
                      A                      A                      A
 Frequencies --   1188.6910              1190.6329              1207.2490
 Red. masses --      1.4121                 1.3291                 1.5468
 Frc consts  --      1.1756                 1.1101                 1.3283
 IR Inten    --     44.2031                10.4427                11.2263

                     46                     47                     48
                      A                      A                      A
 Frequencies --   1225.3622              1240.7579              1250.9934
 Red. masses --      1.5079                 1.3425                 1.7900
 Frc consts  --      1.3340                 1.2177                 1.6505
 IR Inten    --     48.3159                11.9319                64.8421

                     49                     50                     51
                      A                      A                      A
 Frequencies --   1271.4410              1316.1984              1325.1376
 Red. masses --      1.5220                 1.4476                 1.7363
 Frc consts  --      1.4497                 1.4775                 1.7963
 IR Inten    --     84.5824                26.6799                 8.8324

                     52                     53                     54
                      A                      A                      A
 Frequencies --   1334.5226              1346.8911              1386.3422
 Red. masses --      2.0825                 1.3293                 1.6692
 Frc consts  --      2.1852                 1.4208                 1.8902
 IR Inten    --     21.8017                11.0115                 6.4262

                     55                     56                     57
                      A                      A                      A
 Frequencies --   1393.0901              1400.1847              1418.0530
 Red. masses --      1.2545                 1.7846                 1.3599
 Frc consts  --      1.4344                 2.0614                 1.6111
 IR Inten    --      6.0207                21.7578                11.4476

                     58                     59                     60
                      A                      A                      A
 Frequencies --   1432.6375              1491.6750              1500.7202
 Red. masses --      1.3584                 1.2617                 1.1108
 Frc consts  --      1.6427                 1.6541                 1.4740
 IR Inten    --      3.3393                30.4389                10.9476

                     61                     62                     63
                      A                      A                      A
 Frequencies --   1506.4931              1515.2004              1517.8830
 Red. masses --      1.0973                 1.2372                 1.5537
 Frc consts  --      1.4672                 1.6735                 2.1091
 IR Inten    --      3.3351                34.5061                54.0441

                     64                     65                     66
                      A                      A                      A
 Frequencies --   1521.6275              1530.9275              1537.4765
 Red. masses --      1.1794                 1.3372                 2.2983
 Frc consts  --      1.6089                 1.8466                 3.2009
 IR Inten    --      2.4098                39.9632                18.5719

                     67                     68                     69
                      A                      A                      A
 Frequencies --   1541.9557              1651.2638              1668.6844
 Red. masses --      1.0829                 6.9780                 5.8552
 Frc consts  --      1.5170                11.2102                 9.6059
 IR Inten    --      6.3956                37.5017                 6.1213

                     70                     71                     72
                      A                      A                      A
 Frequencies --   2963.6667              3003.8678              3038.7699
 Red. masses --      1.0714                 1.0666                 1.0764
 Frc consts  --      5.5447                 5.6706                 5.8562
 IR Inten    --     54.6871                50.4845                10.2688

                     73                     74                     75
                      A                      A                      A
 Frequencies --   3042.5058              3054.0203              3091.3531
 Red. masses --      1.0681                 1.0304                 1.1031
 Frc consts  --      5.8253                 5.6623                 6.2112
 IR Inten    --     70.2047                50.2612                43.6900

                     76                     77                     78
                      A                      A                      A
 Frequencies --   3100.1767              3106.3145              3123.6179
 Red. masses --      1.0935                 1.0967                 1.1063
 Frc consts  --      6.1923                 6.2347                 6.3596
 IR Inten    --     64.0967                37.8341                20.1018

                     79                     80                     81
                      A                      A                      A
 Frequencies --   3158.9313              3189.0725              3205.0196
 Red. masses --      1.1054                 1.0868                 1.0921
 Frc consts  --      6.4991                 6.5124                 6.6097
 IR Inten    --     21.7777                 4.9551                17.5422

                     82                     83                     84
                      A                      A                      A
 Frequencies --   3222.2397              3502.6037              3692.1780
 Red. masses --      1.0949                 1.0736                 1.0647
 Frc consts  --      6.6977                 7.7599                 8.5516
 IR Inten    --      9.8423                15.6160                51.3630

 - Thermochemistry -
 -------------------
 Temperature   298.150 Kelvin.  Pressure   1.00000 Atm.
 Atom     1 has atomic number  6 and mass  12.00000

 Molecular mass:   209.10519 amu.
 Principal axes and moments of inertia in atomic units:
                           1         2         3
     Eigenvalues --  1604.668284423.517255228.02044
           X            0.99991  -0.00992  -0.00887
           Y            0.00975   0.99976  -0.01936
           Z            0.00906   0.01928   0.99977
 This molecule is an asymmetric top.
 Rotational symmetry number  1.
 Warning -- assumption of classical behavior for rotation
           may cause significant error
 Rotational temperatures (Kelvin)      0.05398     0.01958     0.01657
 Rotational constants (GHZ):           1.12468     0.40799     0.34521
 Zero-point vibrational energy     668306.3 (Joules/Mol)
                                  159.72904 (Kcal/Mol)
 Warning -- explicit consideration of  22 degrees of freedom as
           vibrations may cause significant error
 Vibrational temperatures:     58.58   116.44   133.87   192.13   220.78
          (Kelvin)            256.31   318.78   331.91   378.09   380.58
                              436.90   462.96   527.88   594.90   664.11
                              664.63   738.22   784.34   798.87   825.56
                              858.12   882.83   899.40  1063.58  1085.97
                             1143.24  1185.43  1213.25  1239.11  1280.15
                             1294.46  1375.54  1384.45  1437.79  1479.15
                             1493.40  1517.89  1567.69  1585.30  1643.36
                             1661.25  1699.55  1710.26  1713.06  1736.96
                             1763.02  1785.17  1799.90  1829.32  1893.72
                             1906.58  1920.08  1937.88  1994.64  2004.35
                             2014.55  2040.26  2061.25  2146.19  2159.20
                             2167.51  2180.04  2183.90  2189.28  2202.66
                             2212.09  2218.53  2375.80  2400.86  4264.06
                             4321.90  4372.11  4377.49  4394.05  4447.77
                             4460.46  4469.29  4494.19  4545.00  4588.36
                             4611.31  4636.08  5039.47  5312.22

 Zero-point correction=                           0.254544 (Hartree/Particle)
 Thermal correction to Energy=                    0.267959
 Thermal correction to Enthalpy=                  0.268903
 Thermal correction to Gibbs Free Energy=         0.214642
 Sum of electronic and zero-point Energies=           -708.381837
 Sum of electronic and thermal Energies=              -708.368422
 Sum of electronic and thermal Enthalpies=            -708.367478
 Sum of electronic and thermal Free Energies=         -708.421739

                     E (Thermal)             CV                S
                      KCal/Mol        Cal/Mol-Kelvin    Cal/Mol-Kelvin
 Total                  168.147             52.696            114.201
 Electronic               0.000              0.000              0.000
 Translational            0.889              2.981             41.917
 Rotational               0.889              2.981             31.984
 Vibrational            166.369             46.735             40.300
 Vibration     1          0.594              1.981              5.224
 Vibration     2          0.600              1.962              3.868
 Vibration     3          0.602              1.954              3.595
 Vibration     4          0.613              1.920              2.894
 Vibration     5          0.619              1.899              2.629
 Vibration     6          0.629              1.869              2.348
 Vibration     7          0.648              1.808              1.946
 Vibration     8          0.652              1.794              1.874
 Vibration     9          0.670              1.741              1.643
 Vibration    10          0.671              1.738              1.632
 Vibration    11          0.695              1.667              1.397
 Vibration    12          0.707              1.632              1.301
 Vibration    13          0.740              1.540              1.093
 Vibration    14          0.777              1.441              0.914
 Vibration    15          0.819              1.335              0.762
 Vibration    16          0.820              1.334              0.760
 Vibration    17          0.868              1.221              0.626
 Vibration    18          0.900              1.150              0.554
 Vibration    19          0.911              1.128              0.533
 Vibration    20          0.930              1.088              0.497
 Vibration    21          0.954              1.039              0.456
 Vibration    22          0.973              1.003              0.427

 Optimization completed.
    -- Stationary point found.
 Normal termination of Gaussian 16 at Thu Dec 10 17:00:45 2020.

 ----------------------------------------------------------------------
 # B3LYP/6-311++G(d,p) empiricaldispersion=gd3bj scf=xqc pop=npa geom=c
 heck
 ----------------------------------------------------------------------

 ---------------------------------------
 CID_130021443_JID_5774_Energie_neutraal
 ---------------------------------------
 Structure from the checkpoint file:  "JID_5774.chk"
 Charge =  0 Multiplicity = 1

 SCF Done:  E(RB3LYP) =  -708.843906311     A.U. after   14 cycles
 Normal termination of Gaussian 16 at Thu Dec 10 17:04:36 2020.

 ----------------------------------------------------------------------
 # B3LYP/6-311++G(d,p) empiricaldispersion=gd3bj scf=xqc pop=npa geom=c
 heck
 ----------------------------------------------------------------------

 -------------------------------------
 CID_130021443_JID_5774_Energie_kation
 -------------------------------------
 Structure from the checkpoint file:  "JID_5774.chk"
 Charge =  1 Multiplicity = 2

 SCF Done:  E(UB3LYP) =  -708.559410588     A.U. after   25 cycles
 Normal termination of Gaussian 16 at Thu Dec 10 17:18:24 2020.
 Gaussian 16:  ES64L-G16RevA.03 25-Dec-2016

 ----------------------------------------------------------------------
 # B3LYP/6-311++G(d,p) empiricaldispersion=gd3bj scf=xqc pop=npa geom=c
 heck
 ----------------------------------------------------------------------

 ------------------------------------
 CID_130021443_JID_5774_Energie_anion
 ------------------------------------
 Structure from the checkpoint file:  "JID_5774.chk"
 Charge = -1 Multiplicity = 2

                         Standard orientation:
 ---------------------------------------------------------------------
 Center     Atomic      Atomic             Coordinates (Angstroms)
 Number     Number       Type             X           Y           Z
 ---------------------------------------------------------------------
      1          6           0        0.655610    2.382299   -0.904196
      2          8           0        0.637936    1.595721    0.299038
      3          6           0        1.197663    0.324814    0.150430
      4          6           0        0.415363   -0.833558    0.079836
      5          6           0        1.081615   -2.056829   -0.080204
      6          6           0        2.471962   -2.122288   -0.151332
      7          6           0        3.243141   -0.969119   -0.019883
      8          6           0        2.600387    0.253912    0.152528
      9          8           0        3.338895    1.390738    0.323678
     10          6           0       -1.097020   -0.821490    0.166824
     11          6           0       -1.759065   -0.445839   -1.174114
     12          8           0       -3.174334   -0.485602   -1.072420
     13          6           0       -3.647353    0.408042   -0.069958
     14          6           0       -3.049893    0.054868    1.292577
     15          7           0       -1.586672    0.005985    1.278841
     16          1           0        0.220381    3.348935   -0.641838
     17          1           0        0.058175    1.910003   -1.690104
     18          1           0        1.679259    2.521771   -1.268461
     19          1           0        0.493364   -2.968114   -0.137547
     20          1           0        2.961352   -3.083299   -0.278874
     21          1           0        4.327594   -0.998268   -0.026474
     22          1           0        2.730060    2.059376    0.684584
     23          1           0       -1.421850   -1.848152    0.382034
     24          1           0       -1.435850    0.561683   -1.482254
     25          1           0       -1.481770   -1.154550   -1.960653
     26          1           0       -4.738714    0.319970   -0.071305
     27          1           0       -3.380958    1.446466   -0.339046
     28          1           0       -3.422289   -0.933577    1.593064
     29          1           0       -3.372324    0.775891    2.053164
     30          1           0       -1.204163    0.944235    1.174402
 ---------------------------------------------------------------------

 SCF Done:  E(UB3LYP) =  -708.830085921     A.U. after   33 cycles
 SCF Done:  E(UB3LYP) =  -708.830085921     a.u. after    1 cycles

 The electronic state is 2-A.
 Alpha  occ. eigenvalues --  -19.05990 -19.05732 -19.03119 -14.19800 -10.14376
 Alpha  occ. eigenvalues --  -10.13573 -10.11962 -10.11762 -10.11672 -10.11201
 Alpha  occ. eigenvalues --  -10.09672 -10.09520 -10.08664 -10.08245 -10.08179
 Alpha  occ. eigenvalues --   -0.98362  -0.95353  -0.94691  -0.81270  -0.76456
 Alpha  occ. eigenvalues --   -0.69448  -0.65775  -0.64959  -0.59976  -0.57985
 Alpha  occ. eigenvalues --   -0.56302  -0.52293  -0.50848  -0.49271  -0.45820
 Alpha  occ. eigenvalues --   -0.42652  -0.40935  -0.39101  -0.38569  -0.37621
 Alpha  occ. eigenvalues --   -0.36793  -0.36628  -0.36388  -0.35323  -0.34637
 Alpha  occ. eigenvalues --   -0.31830  -0.31423  -0.29966  -0.28974  -0.28593
 Alpha  occ. eigenvalues --   -0.27938  -0.26819  -0.25824  -0.25148  -0.24152
 Alpha  occ. eigenvalues --   -0.23012  -0.19863  -0.18427  -0.15894  -0.13722
 Alpha  occ. eigenvalues --   -0.12036   0.04583
 Alpha virt. eigenvalues --    0.06299   0.06809   0.07462   0.08060   0.08394
 Alpha virt. eigenvalues --    0.08492   0.08933   0.09975   0.10128   0.10413
 Alpha virt. eigenvalues --    0.11325   0.11966   0.12987   0.13322   0.13474

  Beta  occ. eigenvalues --  -19.05965 -19.05731 -19.03111 -14.19791 -10.14374
  Beta  occ. eigenvalues --  -10.13555 -10.11947 -10.11680 -10.11647 -10.11200
  Beta  occ. eigenvalues --  -10.09657 -10.09501 -10.08637 -10.08231 -10.08182
  Beta  occ. eigenvalues --   -0.98328  -0.95324  -0.94674  -0.81249  -0.76420
  Beta  occ. eigenvalues --   -0.69413  -0.65718  -0.64923  -0.59888  -0.57935
  Beta  occ. eigenvalues --   -0.56266  -0.52248  -0.50809  -0.49227  -0.45769
  Beta  occ. eigenvalues --   -0.42617  -0.40901  -0.39074  -0.38529  -0.37576
  Beta  occ. eigenvalues --   -0.36758  -0.36569  -0.36351  -0.35287  -0.34594
  Beta  occ. eigenvalues --   -0.31797  -0.31376  -0.29929  -0.28944  -0.28557
  Beta  occ. eigenvalues --   -0.27915  -0.26781  -0.25783  -0.25108  -0.24101
  Beta  occ. eigenvalues --   -0.22984  -0.19841  -0.18377  -0.15783  -0.13665
  Beta  occ. eigenvalues --   -0.12003
  Beta virt. eigenvalues --    0.06388   0.07216   0.07471   0.07816   0.08405
  Beta virt. eigenvalues --    0.08547   0.08880   0.09447   0.10372   0.10553
  Beta virt. eigenvalues --    0.10973   0.11645   0.12605   0.13249   0.13551

 Mulliken charges and spin densities:
               1          2
     1  C    1.772515  -2.055825
     2  O   -0.250816   0.046642
     3  C   -1.882468   1.681795
     4  C    1.447352  -0.289357
     5  C   -0.860724   0.215937
     6  C   -0.398270  -0.027829
     7  C    1.582292  -1.598729
     8  C   -0.142643  -0.256051
     9  O   -0.288344   0.043825
    10  C   -0.149905  -0.092775
    11  C   -0.253350  -0.357549
    12  O   -0.122211   0.024948
    13  C    0.485787  -0.736796
    14  C   -0.127612  -0.077245
    15  N    0.041650  -0.084462
    16  H   -0.966776   1.157270
    17  H   -0.433817   0.573717
    18  H   -0.375173   0.531256
    19  H    0.028945   0.093204
    20  H   -0.123344   0.279302
    21  H    0.020414   0.149950
    22  H   -0.172281   0.482636
    23  H    0.093027   0.118756
    24  H    0.292563  -0.132653
    25  H   -0.021634   0.206311
    26  H   -0.291776   0.465094
    27  H   -0.058212   0.179225
    28  H    0.177390  -0.055334
    29  H   -0.410399   0.583768
    30  H    0.387818  -0.069030
 Sum of Mulliken charges =  -1.00000   1.00000

 Dipole moment (field-independent basis, Debye):
    X=              0.9301    Y=             -7.4583    Z=              0.6363  Tot=              7.5430
 Quadrupole moment (field-independent basis, Debye-Ang):
   XX=           -152.7309   YY=           -146.2412   ZZ=           -123.0386
   XY=             -0.0443   XZ=              0.0768   YZ=              1.9309

 Summary of Natural Population Analysis:

                                       Natural Population
                Natural  -----------------------------------------------
    Atom  No    Charge         Core      Valence    Rydberg      Total
 -----------------------------------------------------------------------
      C    1   -0.09905      0.99958     2.08959    0.00989     3.09905
      O    2   -0.30483      0.99987     3.29244    0.01252     4.30483
      C    3    0.11250      0.99931     1.86964    0.01855     2.88750
      C    4    0.00914      0.99948     1.98303    0.00836     2.99086
      C    5   -0.09299      0.99957     2.08747    0.00595     3.09299
      C    6   -0.10466      0.99961     2.09182    0.01323     3.10466
      C    7   -0.12258      0.99951     2.11493    0.00814     3.12258
      C    8    0.14173      0.99935     1.84179    0.01713     2.85827
      O    9   -0.34055      0.99988     3.33397    0.00670     4.34055
      C   10   -0.03919      0.99958     2.02069    0.01891     3.03919
      C   11   -0.01462      0.99954     2.00118    0.01390     3.01462
      O   12   -0.30012      0.99989     3.29051    0.00972     4.30012
      C   13   -0.02061      0.99958     2.00782    0.01321     3.02061
      C   14   -0.10254      0.99963     2.09126    0.01165     3.10254
      N   15   -0.34189      0.99975     2.82853    0.01362     3.84189
      H   16    0.10057      0.00000     0.39248    0.00694     0.39943
      H   17    0.08301      0.00000     0.41499    0.00199     0.41699
      H   18    0.08650      0.00000     0.41109    0.00241     0.41350
      H   19    0.09580      0.00000     0.40273    0.00147     0.40420
      H   20    0.09894      0.00000     0.40013    0.00092     0.40106
      H   21    0.10535      0.00000     0.39357    0.00108     0.39465
      H   22    0.24177      0.00000     0.25400    0.00423     0.25823
      H   23    0.09477      0.00000     0.40274    0.00249     0.40523
      H   24    0.07971      0.00000     0.41831    0.00198     0.42029
      H   25    0.09152      0.00000     0.40719    0.00129     0.40848
      H   26    0.09010      0.00000     0.40852    0.00138     0.40990
      H   27    0.08042      0.00000     0.41737    0.00220     0.41958
      H   28    0.08780      0.00000     0.41087    0.00133     0.41220
      H   29    0.09914      0.00000     0.39980    0.00107     0.40086
      H   30    0.18508      0.00000     0.31102    0.00391     0.31492
 =======================================================================
   * Total *    0.00021     14.99414    40.78946    0.21619    55.99979

 Normal termination of Gaussian 16 at Thu Dec 10 17:34:53 2020.
