 Gaussian 16, Revision A.03,

 -----------------------------------------------------------
 # opt freq B3LYP/6-31G(d) empiricaldispersion=gd3bj scf=xqc
 -----------------------------------------------------------

 -------------------------------
 CID_113245947_JID_8642_neutraal
 -------------------------------
 Symbolic Z-matrix:
 Charge =  0 Multiplicity = 1

 SCF Done:  E(RB3LYP) =  -1239.86732658     A.U. after   14 cycles
 SCF Done:  E(RB3LYP) =  -1239.83830910     A.U. after   14 cycles
 SCF Done:  E(RB3LYP) =  -1239.87481421     A.U. after   13 cycles
 SCF Done:  E(RB3LYP) =  -1239.87396016     A.U. after   13 cycles
 SCF Done:  E(RB3LYP) =  -1239.87623093     A.U. after   12 cycles
 SCF Done:  E(RB3LYP) =  -1239.87610030     A.U. after   12 cycles
 SCF Done:  E(RB3LYP) =  -1239.87643830     A.U. after   12 cycles
 SCF Done:  E(RB3LYP) =  -1239.87654963     A.U. after   11 cycles
 SCF Done:  E(RB3LYP) =  -1239.87661631     A.U. after   11 cycles
 SCF Done:  E(RB3LYP) =  -1239.87663955     A.U. after   10 cycles
 SCF Done:  E(RB3LYP) =  -1239.87675471     A.U. after    9 cycles
 SCF Done:  E(RB3LYP) =  -1239.87675593     A.U. after    8 cycles
 SCF Done:  E(RB3LYP) =  -1239.87675616     A.U. after    8 cycles
 SCF Done:  E(RB3LYP) =  -1239.87675623     A.U. after    7 cycles
 Optimization completed.
    -- Stationary point found.
 Normal termination of Gaussian 16 at Fri Dec 11 20:59:57 2020.

 --------------------------------------------------------------------
 #N Geom=AllCheck Guess=TCheck SCRF=Check GenChk RB3LYP/6-31G(d) Freq
 --------------------------------------------------------------------

 Structure from the checkpoint file:  "JID_8642.chk"
 -------------------------------
 CID_113245947_JID_8642_neutraal
 -------------------------------
 Charge =  0 Multiplicity = 1

 SCF Done:  E(RB3LYP) =  -1239.87675623     A.U. after    1 cycles

  Exact polarizability: 173.178   9.663 154.487   3.226  -2.188 128.214
 Approx polarizability: 248.509  27.525 223.824  10.385  -4.338 195.414

                      1                      2                      3
                      A                      A                      A
 Frequencies --     32.7029                36.8496                45.7309
 Red. masses --      5.4223                 4.6690                 7.4727
 Frc consts  --      0.0034                 0.0037                 0.0092
 IR Inten    --      0.4864                 0.4708                 0.5040

                      4                      5                      6
                      A                      A                      A
 Frequencies --     53.5841                68.2527               100.2426
 Red. masses --      3.7291                 5.6552                 6.0043
 Frc consts  --      0.0063                 0.0155                 0.0355
 IR Inten    --      2.5526                 0.8652                 0.9121

                      7                      8                      9
                      A                      A                      A
 Frequencies --    106.3691               121.9909               132.1053
 Red. masses --      3.3988                 2.6813                 1.6847
 Frc consts  --      0.0227                 0.0235                 0.0173
 IR Inten    --      4.0157                 5.7735                 1.4288

                     10                     11                     12
                      A                      A                      A
 Frequencies --    151.2731               161.1668               170.9845
 Red. masses --      3.0180                 3.7408                 3.2156
 Frc consts  --      0.0407                 0.0572                 0.0554
 IR Inten    --      5.9757                 0.9619                 9.5209

                     13                     14                     15
                      A                      A                      A
 Frequencies --    209.4815               218.6560               248.8547
 Red. masses --      3.6811                 1.8861                 2.1201
 Frc consts  --      0.0952                 0.0531                 0.0774
 IR Inten    --      1.1053                 3.2995                10.4517

                     16                     17                     18
                      A                      A                      A
 Frequencies --    266.6871               279.0995               312.3504
 Red. masses --      2.2411                 2.0776                 3.0096
 Frc consts  --      0.0939                 0.0954                 0.1730
 IR Inten    --      2.1530                12.6030                 7.3060

                     19                     20                     21
                      A                      A                      A
 Frequencies --    318.2255               340.0373               379.8930
 Red. masses --      3.2728                 2.8018                 2.1223
 Frc consts  --      0.1953                 0.1909                 0.1805
 IR Inten    --      1.8601                33.0438                10.9316

                     22                     23                     24
                      A                      A                      A
 Frequencies --    409.3493               428.5726               433.9206
 Red. masses --      1.8682                 2.6236                 2.6272
 Frc consts  --      0.1844                 0.2839                 0.2914
 IR Inten    --     63.7096                15.5384                14.3706

                     25                     26                     27
                      A                      A                      A
 Frequencies --    459.3540               460.6185               488.6981
 Red. masses --      3.4683                 6.0459                 3.0833
 Frc consts  --      0.4312                 0.7558                 0.4339
 IR Inten    --     10.2061                 2.2764                13.5020

                     28                     29                     30
                      A                      A                      A
 Frequencies --    499.3580               547.1440               577.0928
 Red. masses --      3.2955                 3.1282                 3.3666
 Frc consts  --      0.4842                 0.5518                 0.6606
 IR Inten    --     13.2009                16.9721                18.8253

                     31                     32                     33
                      A                      A                      A
 Frequencies --    612.9280               630.9761               664.6211
 Red. masses --      3.0674                 1.8795                 2.5481
 Frc consts  --      0.6790                 0.4409                 0.6631
 IR Inten    --     22.5329                68.8410                43.4418

                     34                     35                     36
                      A                      A                      A
 Frequencies --    726.7138               759.6601               783.2500
 Red. masses --      3.9062                 5.0559                 3.5478
 Frc consts  --      1.2154                 1.7190                 1.2824
 IR Inten    --     25.0580                 4.1052                 7.5334

                     37                     38                     39
                      A                      A                      A
 Frequencies --    795.3858               804.1486               807.7055
 Red. masses --      5.0677                 1.4135                 2.7071
 Frc consts  --      1.8889                 0.5385                 1.0405
 IR Inten    --      3.7660                 2.9332                 5.5210

                     40                     41                     42
                      A                      A                      A
 Frequencies --    857.1302               912.1094               940.3879
 Red. masses --      4.2479                 1.8695                 1.7170
 Frc consts  --      1.8387                 0.9164                 0.8946
 IR Inten    --     12.4529                 2.4912                14.4452

                     43                     44                     45
                      A                      A                      A
 Frequencies --    953.5720               959.3169               964.0627
 Red. masses --      3.3795                 2.1235                 1.3416
 Frc consts  --      1.8105                 1.1514                 0.7347
 IR Inten    --     25.0096                18.0389                 0.5149

                     46                     47                     48
                      A                      A                      A
 Frequencies --    975.4445              1005.9521              1041.3476
 Red. masses --      2.1504                 2.0961                 1.9354
 Frc consts  --      1.2055                 1.2497                 1.2365
 IR Inten    --     13.2290                 0.9453                 4.5412

                     49                     50                     51
                      A                      A                      A
 Frequencies --   1058.9448              1086.1810              1105.4586
 Red. masses --      2.5575                 2.6886                 2.7583
 Frc consts  --      1.6897                 1.8689                 1.9860
 IR Inten    --      2.6533                10.4920                12.4680

                     52                     53                     54
                      A                      A                      A
 Frequencies --   1133.1236              1159.0436              1172.9610
 Red. masses --      2.8324                 1.8751                 1.1721
 Frc consts  --      2.1427                 1.4841                 0.9502
 IR Inten    --     96.8787                46.9326                 6.5414

                     55                     56                     57
                      A                      A                      A
 Frequencies --   1188.0773              1189.2416              1196.2269
 Red. masses --      1.3434                 1.8368                 1.8557
 Frc consts  --      1.1173                 1.5305                 1.5645
 IR Inten    --     17.5460                42.6330                 3.5629

                     58                     59                     60
                      A                      A                      A
 Frequencies --   1217.4048              1227.9269              1249.2111
 Red. masses --      2.0392                 1.4748                 1.8719
 Frc consts  --      1.7807                 1.3102                 1.7211
 IR Inten    --     67.1669                22.4392                17.5981

                     61                     62                     63
                      A                      A                      A
 Frequencies --   1262.5174              1289.0826              1299.9452
 Red. masses --      1.3740                 1.6546                 1.5287
 Frc consts  --      1.2904                 1.6200                 1.5221
 IR Inten    --      3.3357                47.9924                34.9353

                     64                     65                     66
                      A                      A                      A
 Frequencies --   1321.3653              1341.6261              1353.4147
 Red. masses --      1.9948                 1.4365                 1.4070
 Frc consts  --      2.0520                 1.5234                 1.5185
 IR Inten    --     39.3358                 4.2608                18.8218

                     67                     68                     69
                      A                      A                      A
 Frequencies --   1356.5559              1371.8766              1375.3427
 Red. masses --      1.3067                 1.2080                 1.3647
 Frc consts  --      1.4168                 1.3395                 1.5209
 IR Inten    --      2.0603                 3.6868                28.1109

                     70                     71                     72
                      A                      A                      A
 Frequencies --   1401.9916              1424.1840              1443.2321
 Red. masses --      2.0118                 1.4210                 1.3570
 Frc consts  --      2.3298                 1.6981                 1.6654
 IR Inten    --     94.5058                13.7833                13.4002

                     73                     74                     75
                      A                      A                      A
 Frequencies --   1447.7919              1468.8844              1483.1177
 Red. masses --      1.3322                 2.3248                 1.1425
 Frc consts  --      1.6452                 2.9554                 1.4806
 IR Inten    --     23.7409               106.2561                 6.9553

                     76                     77                     78
                      A                      A                      A
 Frequencies --   1500.6072              1504.2975              1508.5934
 Red. masses --      1.5808                 1.1271                 1.0995
 Frc consts  --      2.0973                 1.5027                 1.4743
 IR Inten    --     47.3763                 2.4392                23.3835

                     79                     80                     81
                      A                      A                      A
 Frequencies --   1518.4240              1523.9833              1526.9066
 Red. masses --      1.1000                 1.0645                 1.0831
 Frc consts  --      1.4943                 1.4566                 1.4879
 IR Inten    --     15.3718                 2.3353                 4.7888

                     82                     83                     84
                      A                      A                      A
 Frequencies --   1532.5229              1538.9769              1543.3575
 Red. masses --      1.0796                 1.0768                 1.0953
 Frc consts  --      1.4939                 1.5026                 1.5371
 IR Inten    --      2.3931                 5.4052                13.1543

                     85                     86                     87
                      A                      A                      A
 Frequencies --   1544.8032              1554.4086              1767.4664
 Red. masses --      1.0768                 1.1581                10.7885
 Frc consts  --      1.5141                 1.6487                19.8570
 IR Inten    --      9.3502                11.3721               305.6615

                     88                     89                     90
                      A                      A                      A
 Frequencies --   1790.8834              2990.9795              3000.8583
 Red. masses --      7.9820                 1.0616                 1.0514
 Frc consts  --     15.0834                 5.5956                 5.5782
 IR Inten    --    415.1729                28.4956                69.1120

                     91                     92                     93
                      A                      A                      A
 Frequencies --   3044.1337              3046.6030              3060.5984
 Red. masses --      1.0396                 1.0639                 1.0940
 Frc consts  --      5.6762                 5.8184                 6.0379
 IR Inten    --     16.7425                38.8760                31.8116

                     94                     95                     96
                      A                      A                      A
 Frequencies --   3066.7825              3073.5213              3087.5650
 Red. masses --      1.0696                 1.0657                 1.0925
 Frc consts  --      5.9272                 5.9315                 6.1363
 IR Inten    --     47.4785                21.2451                26.9421

                     97                     98                     99
                      A                      A                      A
 Frequencies --   3091.7866              3103.8837              3107.6850
 Red. masses --      1.0595                 1.0582                 1.0974
 Frc consts  --      5.9673                 6.0065                 6.2441
 IR Inten    --     18.2703                 9.0072                40.8920

                    100                    101                    102
                      A                      A                      A
 Frequencies --   3111.3301              3131.9356              3137.8537
 Red. masses --      1.1006                 1.1003                 1.1018
 Frc consts  --      6.2772                 6.3589                 6.3918
 IR Inten    --     12.5557                15.7814                17.6667

                    103                    104                    105
                      A                      A                      A
 Frequencies --   3140.0844              3147.9195              3166.4812
 Red. masses --      1.0992                 1.1059                 1.1068
 Frc consts  --      6.3856                 6.4567                 6.5386
 IR Inten    --     37.8737                 3.3796                 0.7638

                    106                    107                    108
                      A                      A                      A
 Frequencies --   3167.6201              3577.6225              3704.6943
 Red. masses --      1.0959                 1.0753                 1.0649
 Frc consts  --      6.4784                 8.1087                 8.6109
 IR Inten    --      1.9332                18.9846                12.7570

 - Thermochemistry -
 -------------------
 Temperature   298.150 Kelvin.  Pressure   1.00000 Atm.
 Atom     1 has atomic number  6 and mass  12.00000

 Molecular mass:   276.11438 amu.
 Principal axes and moments of inertia in atomic units:
                           1         2         3
     Eigenvalues --  3756.644396557.040788069.12584
           X            1.00000   0.00277   0.00045
           Y           -0.00278   0.99932   0.03674
           Z           -0.00035  -0.03674   0.99932
 This molecule is an asymmetric top.
 Rotational symmetry number  1.
 Warning -- assumption of classical behavior for rotation
           may cause significant error
 Rotational temperatures (Kelvin)      0.02306     0.01321     0.01073
 Rotational constants (GHZ):           0.48041     0.27524     0.22366
 Zero-point vibrational energy     844523.2 (Joules/Mol)
                                  201.84589 (Kcal/Mol)
 Warning -- explicit consideration of  31 degrees of freedom as
           vibrations may cause significant error
 Vibrational temperatures:     47.05    53.02    65.80    77.10    98.20
          (Kelvin)            144.23   153.04   175.52   190.07   217.65
                              231.88   246.01   301.40   314.60   358.05
                              383.70   401.56   449.40   457.86   489.24
                              546.58   588.96   616.62   624.31   660.91
                              662.73   703.13   718.46   787.22   830.31
                              881.87   907.83   956.24  1045.58  1092.98
                             1126.92  1144.38  1156.99  1162.11  1233.22
                             1312.32  1353.01  1371.98  1380.24  1387.07
                             1403.45  1447.34  1498.27  1523.59  1562.77
                             1590.51  1630.31  1667.61  1687.63  1709.38
                             1711.05  1721.10  1751.57  1766.71  1797.34
                             1816.48  1854.70  1870.33  1901.15  1930.30
                             1947.26  1951.78  1973.82  1978.81  2017.15
                             2049.08  2076.49  2083.05  2113.40  2133.88
                             2159.04  2164.35  2170.53  2184.67  2192.67
                             2196.88  2204.96  2214.24  2220.55  2222.63
                             2236.45  2542.99  2576.68  4303.35  4317.57
                             4379.83  4383.38  4403.52  4412.42  4422.11
                             4442.32  4448.39  4465.80  4471.27  4476.51
                             4506.16  4514.67  4517.88  4529.15  4555.86
                             4557.50  5147.40  5330.23

 Zero-point correction=                           0.321662 (Hartree/Particle)
 Thermal correction to Energy=                    0.341318
 Thermal correction to Enthalpy=                  0.342262
 Thermal correction to Gibbs Free Energy=         0.272557
 Sum of electronic and zero-point Energies=          -1239.555094
 Sum of electronic and thermal Energies=             -1239.535438
 Sum of electronic and thermal Enthalpies=           -1239.534494
 Sum of electronic and thermal Free Energies=        -1239.604200

                     E (Thermal)             CV                S
                      KCal/Mol        Cal/Mol-Kelvin    Cal/Mol-Kelvin
 Total                  214.180             72.411            146.708
 Electronic               0.000              0.000              0.000
 Translational            0.889              2.981             42.745
 Rotational               0.889              2.981             33.652
 Vibrational            212.403             66.449             70.311
 Vibration     1          0.594              1.983              5.658
 Vibration     2          0.594              1.982              5.422
 Vibration     3          0.595              1.979              4.994
 Vibration     4          0.596              1.976              4.681
 Vibration     5          0.598              1.969              4.203
 Vibration     6          0.604              1.949              3.450
 Vibration     7          0.605              1.944              3.334
 Vibration     8          0.609              1.931              3.069
 Vibration     9          0.612              1.921              2.915
 Vibration    10          0.619              1.901              2.656
 Vibration    11          0.622              1.890              2.536
 Vibration    12          0.626              1.878              2.425
 Vibration    13          0.642              1.826              2.048
 Vibration    14          0.646              1.813              1.970
 Vibration    15          0.662              1.765              1.739
 Vibration    16          0.672              1.734              1.618
 Vibration    17          0.679              1.712              1.539
 Vibration    18          0.701              1.650              1.350
 Vibration    19          0.705              1.639              1.319
 Vibration    20          0.720              1.595              1.212
 Vibration    21          0.750              1.513              1.040
 Vibration    22          0.774              1.450              0.929
 Vibration    23          0.790              1.408              0.863
 Vibration    24          0.795              1.396              0.846
 Vibration    25          0.817              1.340              0.768
 Vibration    26          0.818              1.337              0.764
 Vibration    27          0.845              1.275              0.687
 Vibration    28          0.855              1.251              0.660
 Vibration    29          0.902              1.146              0.550
 Vibration    30          0.934              1.081              0.491
 Vibration    31          0.972              1.004              0.428

                           ! Non-Optimized Parameters !
 Normal termination of Gaussian 16 at Fri Dec 11 21:20:04 2020.

 ----------------------------------------------------------------------
 # B3LYP/6-311++G(d,p) empiricaldispersion=gd3bj scf=xqc pop=npa geom=c
 heck
 ----------------------------------------------------------------------

 ---------------------------------------
 CID_113245947_JID_8642_Energie_neutraal
 ---------------------------------------
 Structure from the checkpoint file:  "JID_8642.chk"
 Charge =  0 Multiplicity = 1

 SCF Done:  E(RB3LYP) =  -1240.16052981     A.U. after   15 cycles
 Normal termination of Gaussian 16 at Fri Dec 11 21:29:11 2020.

 ----------------------------------------------------------------------
 # B3LYP/6-311++G(d,p) empiricaldispersion=gd3bj scf=xqc pop=npa geom=c
 heck
 ----------------------------------------------------------------------

 -------------------------------------
 CID_113245947_JID_8642_Energie_kation
 -------------------------------------
 Structure from the checkpoint file:  "JID_8642.chk"
 Charge =  1 Multiplicity = 2

 SCF Done:  E(UB3LYP) =  -1239.84855306     A.U. after   33 cycles
 SCF Done:  E(UB3LYP) =  -1239.84855306     a.u. after    1 cycles
 Normal termination of Gaussian 16 at Fri Dec 11 21:58:33 2020.
 Gaussian 16:  ES64L-G16RevA.03 25-Dec-2016

 ----------------------------------------------------------------------
 # B3LYP/6-311++G(d,p) empiricaldispersion=gd3bj scf=xqc pop=npa geom=c
 heck
 ----------------------------------------------------------------------

 ------------------------------------
 CID_113245947_JID_8642_Energie_anion
 ------------------------------------
 Structure from the checkpoint file:  "JID_8642.chk"
 Charge = -1 Multiplicity = 2

                         Standard orientation:
 ---------------------------------------------------------------------
 Center     Atomic      Atomic             Coordinates (Angstroms)
 Number     Number       Type             X           Y           Z
 ---------------------------------------------------------------------
      1          6           0       -1.791301    2.040501    1.894651
      2          6           0       -1.243087    0.939604    0.979290
      3          6           0       -2.242746   -0.204245    0.772731
      4          6           0       -3.546999    0.166630    0.059089
      5          8           0       -4.331418   -0.980867   -0.217736
      6          6           0       -3.907301   -1.682654   -1.372929
      7          6           0       -0.797482    1.519581   -0.389032
      8          7           0        0.431658    2.298135   -0.281133
      9          6           0        1.641885    2.082115   -0.891321
     10          8           0        2.542638    2.907678   -0.827631
     11          6           0        1.862638    0.746421   -1.622207
     12          7           0        1.927838   -0.385614   -0.716629
     13          6           0        2.940487   -0.402528    0.318974
     14         16           0        2.886022   -2.087035    1.056445
     15          6           0        1.190429   -2.354880    0.420099
     16          6           0        0.969951   -1.359024   -0.707421
     17          8           0        0.023765   -1.407314   -1.486494
     18          8           0       -0.112425    0.322251    1.610770
     19          1           0       -2.669350    2.530871    1.459953
     20          1           0       -1.032812    2.812534    2.078100
     21          1           0       -2.072491    1.614702    2.862203
     22          1           0       -1.728556   -0.977535    0.195792
     23          1           0       -2.486281   -0.633414    1.751071
     24          1           0       -4.167439    0.809062    0.693026
     25          1           0       -3.348139    0.716339   -0.875400
     26          1           0       -4.005590   -1.058063   -2.275562
     27          1           0       -2.865232   -2.024725   -1.306036
     28          1           0       -4.561681   -2.552474   -1.470858
     29          1           0       -0.637405    0.694530   -1.082254
     30          1           0       -1.586714    2.156531   -0.804035
     31          1           0        0.365196    3.232661    0.106577
     32          1           0        1.073484    0.529127   -2.345726
     33          1           0        2.813785    0.857033   -2.149900
     34          1           0        2.744429    0.367005    1.075518
     35          1           0        3.931040   -0.223899   -0.108807
     36          1           0        1.077800   -3.373361    0.045922
     37          1           0        0.440137   -2.155599    1.189825
     38          1           0        0.583658    1.000487    1.638992
 ---------------------------------------------------------------------

 SCF Done:  E(UB3LYP) =  -1240.15205942     A.U. after   33 cycles
 SCF Done:  E(UB3LYP) =  -1240.15205942     a.u. after    1 cycles

 The electronic state is 2-A.
 Alpha  occ. eigenvalues --  -88.76865 -19.03777 -19.03020 -19.01977 -19.00476
 Alpha  occ. eigenvalues --  -14.27882 -14.25071 -10.20429 -10.19097 -10.15786
 Alpha  occ. eigenvalues --  -10.14192 -10.13498 -10.12844 -10.12612 -10.12453
 Alpha  occ. eigenvalues --  -10.11368 -10.07328 -10.06413  -7.85480  -5.81884
 Alpha  occ. eigenvalues --   -5.81557  -5.80793  -0.97285  -0.95576  -0.94922
 Alpha  occ. eigenvalues --   -0.93742  -0.88159  -0.83392  -0.73439  -0.71039
 Alpha  occ. eigenvalues --   -0.65680  -0.65130  -0.64309  -0.60754  -0.60020
 Alpha  occ. eigenvalues --   -0.55159  -0.53736  -0.51368  -0.47618  -0.46898
 Alpha  occ. eigenvalues --   -0.43749  -0.42818  -0.41818  -0.40982  -0.40465
 Alpha  occ. eigenvalues --   -0.39345  -0.38795  -0.38004  -0.36665  -0.36097
 Alpha  occ. eigenvalues --   -0.36000  -0.34012  -0.33756  -0.33738  -0.32585
 Alpha  occ. eigenvalues --   -0.32142  -0.30999  -0.30223  -0.30148  -0.29479
 Alpha  occ. eigenvalues --   -0.29097  -0.27616  -0.27085  -0.26469  -0.26013
 Alpha  occ. eigenvalues --   -0.24047  -0.22828  -0.19774  -0.19367  -0.18858
 Alpha  occ. eigenvalues --   -0.17425  -0.17154  -0.16241  -0.15259   0.04142
 Alpha virt. eigenvalues --    0.06197   0.06673   0.07079   0.07636   0.07737
 Alpha virt. eigenvalues --    0.08517   0.08848   0.09202   0.09792   0.09977
 Alpha virt. eigenvalues --    0.10282   0.10491   0.11060   0.11627   0.12103

  Beta  occ. eigenvalues --  -88.76859 -19.03775 -19.02991 -19.01974 -19.00465
  Beta  occ. eigenvalues --  -14.27879 -14.25032 -10.20427 -10.19092 -10.15734
  Beta  occ. eigenvalues --  -10.14188 -10.13471 -10.12840 -10.12595 -10.12445
  Beta  occ. eigenvalues --  -10.11344 -10.07324 -10.06356  -7.85475  -5.81870
  Beta  occ. eigenvalues --   -5.81550  -5.80790  -0.97279  -0.95554  -0.94914
  Beta  occ. eigenvalues --   -0.93680  -0.88145  -0.83336  -0.73406  -0.71008
  Beta  occ. eigenvalues --   -0.65630  -0.65095  -0.64268  -0.60680  -0.59987
  Beta  occ. eigenvalues --   -0.55128  -0.53693  -0.51307  -0.47567  -0.46835
  Beta  occ. eigenvalues --   -0.43697  -0.42775  -0.41777  -0.40944  -0.40441
  Beta  occ. eigenvalues --   -0.39324  -0.38755  -0.37976  -0.36625  -0.36074
  Beta  occ. eigenvalues --   -0.35969  -0.33989  -0.33722  -0.33704  -0.32544
  Beta  occ. eigenvalues --   -0.32105  -0.30973  -0.30178  -0.30123  -0.29446
  Beta  occ. eigenvalues --   -0.29068  -0.27569  -0.27048  -0.26420  -0.25978
  Beta  occ. eigenvalues --   -0.24010  -0.22811  -0.19752  -0.19337  -0.18844
  Beta  occ. eigenvalues --   -0.17405  -0.17126  -0.16210  -0.15234
  Beta virt. eigenvalues --    0.06372   0.06538   0.07218   0.07459   0.07887
  Beta virt. eigenvalues --    0.08084   0.08967   0.09318   0.09504   0.10004
  Beta virt. eigenvalues --    0.10181   0.10510   0.10705   0.11400   0.12092

 Mulliken charges and spin densities:
               1          2
     1  C    1.637172  -2.089170
     2  C   -1.142509   1.224666
     3  C   -0.455528   0.225425
     4  C   -0.019669  -0.525756
     5  O   -0.120989   0.011307
     6  C   -0.097207  -0.207114
     7  C    0.624289  -1.211302
     8  N   -0.269031   0.071974
     9  C   -0.444559   0.407631
    10  O   -0.315808   0.039629
    11  C    0.678283  -0.836499
    12  N    0.058138   0.090327
    13  C    0.428538  -0.794161
    14  S   -0.070570  -0.015728
    15  C   -0.213878  -0.080319
    16  C   -0.417197   0.106884
    17  O   -0.268805   0.000719
    18  O    0.108397  -0.044085
    19  H   -0.373760   0.543990
    20  H   -0.370800   0.495857
    21  H   -0.138747   0.304826
    22  H    0.152302   0.020001
    23  H    0.146017   0.020789
    24  H   -0.036447   0.233954
    25  H    0.127916   0.025886
    26  H   -0.007323   0.118440
    27  H    0.119191   0.031702
    28  H    0.092033   0.061351
    29  H    0.761198  -0.544006
    30  H   -1.020018   1.239097
    31  H   -0.167517   0.514771
    32  H   -0.068294   0.280553
    33  H   -0.087236   0.330874
    34  H   -0.206723   0.417870
    35  H   -0.134070   0.354727
    36  H    0.189115   0.038984
    37  H    0.196981   0.043535
    38  H    0.127114   0.092367
 Sum of Mulliken charges =  -1.00000   1.00000

 Dipole moment (field-independent basis, Debye):
    X=              0.8369    Y=             -8.2840    Z=             -0.9953  Tot=              8.3855
 Quadrupole moment (field-independent basis, Debye-Ang):
   XX=           -187.2010   YY=           -177.9094   ZZ=           -154.7529
   XY=              2.5557   XZ=              2.1232   YZ=             -2.7516

 Summary of Natural Population Analysis:

                                       Natural Population
                Natural  -----------------------------------------------
    Atom  No    Charge         Core      Valence    Rydberg      Total
 -----------------------------------------------------------------------
      C    1   -0.29865      0.99961     2.29167    0.00737     3.29865
      C    2    0.12473      0.99952     1.85913    0.01661     2.87527
      C    3   -0.21372      0.99956     2.20357    0.01059     3.21372
      C    4   -0.00762      0.99957     1.99514    0.01291     3.00762
      O    5   -0.29784      0.99989     3.28899    0.00897     4.29784
      C    6   -0.10073      0.99961     2.09302    0.00810     3.10073
      C    7   -0.11021      0.99953     2.09683    0.01385     3.11021
      N    8   -0.32482      0.99967     2.81328    0.01188     3.82482
      C    9    0.33620      0.99966     1.64063    0.02351     2.66380
      O   10   -0.31323      0.99988     3.30742    0.00593     4.31323
      C   11   -0.12722      0.99956     2.11634    0.01132     3.12722
      N   12   -0.25747      0.99961     2.74359    0.01426     3.75747
      C   13   -0.13015      0.99959     2.11824    0.01231     3.13015
      S   14    0.08936      4.99966     2.89392    0.01705     7.91064
      C   15   -0.28194      0.99954     2.27480    0.00759     3.28194
      C   16    0.35078      0.99961     1.62508    0.02453     2.64922
      O   17   -0.32662      0.99987     3.32102    0.00573     4.32662
      O   18   -0.38356      0.99989     3.37657    0.00710     4.38356
      H   19    0.10440      0.00000     0.39344    0.00215     0.39560
      H   20    0.10359      0.00000     0.39417    0.00224     0.39641
      H   21    0.10417      0.00000     0.39475    0.00109     0.39583
      H   22    0.10932      0.00000     0.38878    0.00191     0.39068
      H   23    0.10267      0.00000     0.39615    0.00118     0.39733
      H   24    0.09093      0.00000     0.40736    0.00171     0.40907
      H   25    0.07898      0.00000     0.41923    0.00179     0.42102
      H   26    0.07770      0.00000     0.42096    0.00134     0.42230
      H   27    0.08688      0.00000     0.41191    0.00121     0.41312
      H   28    0.08625      0.00000     0.41290    0.00085     0.41375
      H   29    0.11338      0.00000     0.38390    0.00271     0.38662
      H   30    0.10448      0.00000     0.39276    0.00275     0.39552
      H   31    0.20437      0.00000     0.28939    0.00624     0.29563
      H   32    0.12107      0.00000     0.37759    0.00135     0.37893
      H   33    0.11031      0.00000     0.38847    0.00123     0.38969
      H   34    0.09842      0.00000     0.39950    0.00208     0.40158
      H   35    0.10520      0.00000     0.39301    0.00179     0.39480
      H   36    0.11224      0.00000     0.38657    0.00118     0.38776
      H   37    0.12425      0.00000     0.37444    0.00131     0.37575
      H   38    0.23407      0.00000     0.26166    0.00427     0.26593
 =======================================================================
   * Total *   -0.00000     21.99385    51.74617    0.25997    74.00000

 Normal termination of Gaussian 16 at Fri Dec 11 22:27:27 2020.
