 Gaussian 16, Revision A.03,

 -----------------------------------------------------------
 # opt freq B3LYP/6-31G(d) empiricaldispersion=gd3bj scf=xqc
 -----------------------------------------------------------

 ------------------------------
 CID_81236499_JID_8146_neutraal
 ------------------------------
 Symbolic Z-matrix:
 Charge =  0 Multiplicity = 1

 SCF Done:  E(RB3LYP) =  -782.086873234     A.U. after   15 cycles
 SCF Done:  E(RB3LYP) =  -782.083226910     A.U. after   14 cycles
 SCF Done:  E(RB3LYP) =  -782.091524774     A.U. after   13 cycles
 SCF Done:  E(RB3LYP) =  -782.092791737     A.U. after   13 cycles
 SCF Done:  E(RB3LYP) =  -782.093062034     A.U. after   13 cycles
 SCF Done:  E(RB3LYP) =  -782.093524442     A.U. after   12 cycles
 SCF Done:  E(RB3LYP) =  -782.093733269     A.U. after   11 cycles
 SCF Done:  E(RB3LYP) =  -782.093795122     A.U. after   11 cycles
 SCF Done:  E(RB3LYP) =  -782.093804586     A.U. after    9 cycles
 SCF Done:  E(RB3LYP) =  -782.093812964     A.U. after   10 cycles
 SCF Done:  E(RB3LYP) =  -782.093814974     A.U. after    9 cycles
 SCF Done:  E(RB3LYP) =  -782.093815473     A.U. after    8 cycles
 SCF Done:  E(RB3LYP) =  -782.093815595     A.U. after    7 cycles
 SCF Done:  E(RB3LYP) =  -782.093815639     A.U. after    6 cycles
 SCF Done:  E(RB3LYP) =  -782.093815662     A.U. after    6 cycles
 Optimization completed.
    -- Stationary point found.
 Normal termination of Gaussian 16 at Fri Dec 11 18:56:50 2020.

 --------------------------------------------------------------------
 #N Geom=AllCheck Guess=TCheck SCRF=Check GenChk RB3LYP/6-31G(d) Freq
 --------------------------------------------------------------------

 Structure from the checkpoint file:  "JID_8146.chk"
 ------------------------------
 CID_81236499_JID_8146_neutraal
 ------------------------------
 Charge =  0 Multiplicity = 1

 SCF Done:  E(RB3LYP) =  -782.093815662     A.U. after    1 cycles

  Exact polarizability: 177.201   7.226 180.943 -30.314  -3.672 123.520
 Approx polarizability: 271.580   7.197 298.620 -74.344 -12.365 220.017

                      1                      2                      3
                      A                      A                      A
 Frequencies --     28.8656                47.9944                50.2374
 Red. masses --      4.2181                 3.2763                 4.0820
 Frc consts  --      0.0021                 0.0044                 0.0061
 IR Inten    --      0.6772                 0.1034                 0.3029

                      4                      5                      6
                      A                      A                      A
 Frequencies --     58.0424                90.4275               111.0516
 Red. masses --      4.7811                 5.6099                 3.8539
 Frc consts  --      0.0095                 0.0270                 0.0280
 IR Inten    --      3.9865                 2.2866                 0.1027

                      7                      8                      9
                      A                      A                      A
 Frequencies --    154.3187               196.6930               209.3922
 Red. masses --      3.4520                 4.1963                 3.5275
 Frc consts  --      0.0484                 0.0957                 0.0911
 IR Inten    --      0.1278                 2.9918                 0.2656

                     10                     11                     12
                      A                      A                      A
 Frequencies --    234.9494               268.7294               297.3444
 Red. masses --      1.4494                 4.6940                 2.5711
 Frc consts  --      0.0471                 0.1997                 0.1339
 IR Inten    --      1.1072                 3.5957                 2.7908

                     13                     14                     15
                      A                      A                      A
 Frequencies --    320.2775               328.2256               367.7867
 Red. masses --      3.6487                 3.7205                 1.3565
 Frc consts  --      0.2205                 0.2362                 0.1081
 IR Inten    --      0.4915                 8.1003                13.4647

                     16                     17                     18
                      A                      A                      A
 Frequencies --    389.6192               397.2408               439.8941
 Red. masses --      2.6784                 4.8299                 2.5137
 Frc consts  --      0.2396                 0.4490                 0.2866
 IR Inten    --      2.6955                 2.0876                14.5483

                     19                     20                     21
                      A                      A                      A
 Frequencies --    467.0738               486.0620               524.6119
 Red. masses --      3.2226                 2.5340                 3.1278
 Frc consts  --      0.4142                 0.3527                 0.5072
 IR Inten    --      2.5899                78.6804                42.5247

                     22                     23                     24
                      A                      A                      A
 Frequencies --    535.8053               557.2722               575.4153
 Red. masses --      2.1418                 4.1264                 3.8744
 Frc consts  --      0.3623                 0.7550                 0.7558
 IR Inten    --    160.6198                 4.1654                 6.5907

                     25                     26                     27
                      A                      A                      A
 Frequencies --    577.8663               621.5789               644.6082
 Red. masses --      1.6856                 3.1613                 4.9572
 Frc consts  --      0.3316                 0.7196                 1.2136
 IR Inten    --    110.5826                33.9997                19.1145

                     28                     29                     30
                      A                      A                      A
 Frequencies --    684.2135               715.6993               737.1613
 Red. masses --      5.1290                 2.4623                 4.8842
 Frc consts  --      1.4147                 0.7431                 1.5638
 IR Inten    --     20.9399                13.9896                14.4684

                     31                     32                     33
                      A                      A                      A
 Frequencies --    743.3843               788.8730               795.6385
 Red. masses --      4.4982                 2.3981                 4.8587
 Frc consts  --      1.4646                 0.8793                 1.8122
 IR Inten    --      7.5501                 3.9177                41.0803

                     34                     35                     36
                      A                      A                      A
 Frequencies --    806.1382               814.0339               832.8591
 Red. masses --      1.2639                 2.0134                 1.4208
 Frc consts  --      0.4839                 0.7861                 0.5807
 IR Inten    --      1.0673                10.9765                26.0534

                     37                     38                     39
                      A                      A                      A
 Frequencies --    884.0978               897.4958               911.2263
 Red. masses --      4.9453                 1.3844                 1.4092
 Frc consts  --      2.2774                 0.6570                 0.6894
 IR Inten    --     27.3132                 2.0336                10.6637

                     40                     41                     42
                      A                      A                      A
 Frequencies --    954.1046               957.3254               971.3613
 Red. masses --      1.4487                 2.3074                 1.2719
 Frc consts  --      0.7770                 1.2459                 0.7071
 IR Inten    --      3.6540                 5.2733                 0.3758

                     43                     44                     45
                      A                      A                      A
 Frequencies --    989.3123              1011.3703              1022.4899
 Red. masses --      1.4422                 2.5203                 6.1188
 Frc consts  --      0.8317                 1.5189                 3.7691
 IR Inten    --      1.1307                 1.5896                 1.2502

                     46                     47                     48
                      A                      A                      A
 Frequencies --   1055.8288              1091.2909              1097.6826
 Red. masses --      2.8281                 1.7217                 1.6985
 Frc consts  --      1.8575                 1.2081                 1.2058
 IR Inten    --     12.9622                 4.6580                 2.9092

                     49                     50                     51
                      A                      A                      A
 Frequencies --   1119.4087              1130.8135              1149.3182
 Red. masses --      1.6003                 1.6147                 2.2786
 Frc consts  --      1.1815                 1.2165                 1.7734
 IR Inten    --     13.2743                 2.4747                46.0518

                     52                     53                     54
                      A                      A                      A
 Frequencies --   1202.3419              1206.6047              1232.5843
 Red. masses --      1.2547                 1.5404                 1.6679
 Frc consts  --      1.0686                 1.3213                 1.4930
 IR Inten    --      1.3127                14.3505                14.4328

                     55                     56                     57
                      A                      A                      A
 Frequencies --   1276.9515              1286.8445              1314.1649
 Red. masses --      2.3846                 1.3605                 3.9234
 Frc consts  --      2.2909                 1.3274                 3.9922
 IR Inten    --     20.1094                 2.6941               148.4737

                     58                     59                     60
                      A                      A                      A
 Frequencies --   1330.3116              1345.9045              1360.3260
 Red. masses --      2.2717                 1.4816                 4.5946
 Frc consts  --      2.3686                 1.5813                 5.0093
 IR Inten    --     42.0339                 2.6994                58.8317

                     61                     62                     63
                      A                      A                      A
 Frequencies --   1368.9541              1375.0387              1382.9536
 Red. masses --      2.3949                 1.9638                 1.6341
 Frc consts  --      2.6443                 2.1876                 1.8413
 IR Inten    --     12.5161                12.1686                79.2070

                     64                     65                     66
                      A                      A                      A
 Frequencies --   1438.7619              1453.2118              1465.5189
 Red. masses --      1.2276                 1.9291                 2.9418
 Frc consts  --      1.4973                 2.4002                 3.7226
 IR Inten    --      0.8233                28.9186                44.7451

                     67                     68                     69
                      A                      A                      A
 Frequencies --   1506.1891              1519.3261              1527.8121
 Red. masses --      2.4412                 1.0891                 1.0415
 Frc consts  --      3.2630                 1.4812                 1.4324
 IR Inten    --      6.8175                 2.6668                 5.9591

                     70                     71                     72
                      A                      A                      A
 Frequencies --   1539.5462              1540.9853              1548.1165
 Red. masses --      1.1834                 2.2214                 2.3233
 Frc consts  --      1.6526                 3.1080                 3.2806
 IR Inten    --      1.8776                32.2277                53.6203

                     73                     74                     75
                      A                      A                      A
 Frequencies --   1617.1110              1646.7335              1651.1456
 Red. masses --      5.4624                 4.9281                 4.7103
 Frc consts  --      8.4161                 7.8737                 7.5660
 IR Inten    --     39.9482                75.5655                68.5843

                     76                     77                     78
                      A                      A                      A
 Frequencies --   1667.1703              1692.4698              1772.2174
 Red. masses --      5.7699                 1.3095                 8.6542
 Frc consts  --      9.4488                 2.2100                16.0144
 IR Inten    --     61.2751               150.6750               414.6825

                     79                     80                     81
                      A                      A                      A
 Frequencies --   3048.6188              3050.6773              3086.1081
 Red. masses --      1.0425                 1.0521                 1.1036
 Frc consts  --      5.7087                 5.7691                 6.1928
 IR Inten    --     21.6502                30.8818                 9.8380

                     82                     83                     84
                      A                      A                      A
 Frequencies --   3119.7881              3126.7062              3170.6993
 Red. masses --      1.1031                 1.1033                 1.0876
 Frc consts  --      6.3258                 6.3549                 6.4422
 IR Inten    --     34.0253                30.9691                20.1049

                     85                     86                     87
                      A                      A                      A
 Frequencies --   3182.0818              3189.0517              3189.7991
 Red. masses --      1.0862                 1.0903                 1.0907
 Frc consts  --      6.4804                 6.5330                 6.5383
 IR Inten    --      0.7704                15.5445                17.8726

                     88                     89                     90
                      A                      A                      A
 Frequencies --   3194.6666              3207.1524              3224.2882
 Red. masses --      1.0948                 1.0964                 1.0904
 Frc consts  --      6.5832                 6.6443                 6.6791
 IR Inten    --     14.5748                23.2705                 2.0136

                     91                     92                     93
                      A                      A                      A
 Frequencies --   3571.2298              3587.3950              3692.5307
 Red. masses --      1.0753                 1.0472                 1.1001
 Frc consts  --      8.0801                 7.9402                 8.8379
 IR Inten    --     34.9965                34.7662                33.3254

 - Thermochemistry -
 -------------------
 Temperature   298.150 Kelvin.  Pressure   1.00000 Atm.
 Atom     1 has atomic number  6 and mass  12.00000

 Molecular mass:   241.12151 amu.
 Principal axes and moments of inertia in atomic units:
                           1         2         3
     Eigenvalues --  3132.870634724.475256348.85941
           X            0.99994  -0.01120   0.00091
           Y            0.01121   0.99985  -0.01305
           Z           -0.00077   0.01306   0.99991
 This molecule is an asymmetric top.
 Rotational symmetry number  1.
 Warning -- assumption of classical behavior for rotation
           may cause significant error
 Rotational temperatures (Kelvin)      0.02765     0.01833     0.01364
 Rotational constants (GHZ):           0.57607     0.38200     0.28426
 Zero-point vibrational energy     712092.7 (Joules/Mol)
                                  170.19424 (Kcal/Mol)
 Warning -- explicit consideration of  25 degrees of freedom as
           vibrations may cause significant error
 Vibrational temperatures:     41.53    69.05    72.28    83.51   130.11
          (Kelvin)            159.78   222.03   283.00   301.27   338.04
                              386.64   427.81   460.81   472.24   529.16
                              560.58   571.54   632.91   672.02   699.33
                              754.80   770.90   801.79   827.89   831.42
                              894.31   927.45   984.43  1029.73  1060.61
                             1069.56  1135.01  1144.75  1159.85  1171.21
                             1198.30  1272.02  1291.30  1311.05  1372.74
                             1377.38  1397.57  1423.40  1455.14  1471.13
                             1519.10  1570.12  1579.32  1610.58  1626.99
                             1653.61  1729.90  1736.03  1773.41  1837.25
                             1851.48  1890.79  1914.02  1936.46  1957.21
                             1969.62  1978.37  1989.76  2070.06  2090.85
                             2108.55  2167.07  2185.97  2198.18  2215.06
                             2217.13  2227.39  2326.66  2369.28  2375.63
                             2398.69  2435.09  2549.83  4386.28  4389.24
                             4440.22  4488.68  4498.63  4561.93  4578.31
                             4588.33  4589.41  4596.41  4614.38  4639.03
                             5138.20  5161.46  5312.73

 Zero-point correction=                           0.271222 (Hartree/Particle)
 Thermal correction to Energy=                    0.287309
 Thermal correction to Enthalpy=                  0.288253
 Thermal correction to Gibbs Free Energy=         0.226778
 Sum of electronic and zero-point Energies=           -781.822594
 Sum of electronic and thermal Energies=              -781.806507
 Sum of electronic and thermal Enthalpies=            -781.805563
 Sum of electronic and thermal Free Energies=         -781.867037

                     E (Thermal)             CV                S
                      KCal/Mol        Cal/Mol-Kelvin    Cal/Mol-Kelvin
 Total                  180.289             62.445            129.384
 Electronic               0.000              0.000              0.000
 Translational            0.889              2.981             42.342
 Rotational               0.889              2.981             32.907
 Vibrational            178.512             56.483             54.135
 Vibration     1          0.593              1.984              5.906
 Vibration     2          0.595              1.978              4.898
 Vibration     3          0.595              1.977              4.808
 Vibration     4          0.596              1.974              4.523
 Vibration     5          0.602              1.956              3.651
 Vibration     6          0.607              1.940              3.250
 Vibration     7          0.620              1.898              2.618
 Vibration     8          0.636              1.844              2.164
 Vibration     9          0.642              1.826              2.049
 Vibration    10          0.655              1.787              1.841
 Vibration    11          0.673              1.731              1.604
 Vibration    12          0.691              1.679              1.432
 Vibration    13          0.706              1.635              1.309
 Vibration    14          0.711              1.619              1.269
 Vibration    15          0.740              1.538              1.089
 Vibration    16          0.758              1.492              1.002
 Vibration    17          0.764              1.476              0.973
 Vibration    18          0.800              1.383              0.827
 Vibration    19          0.824              1.323              0.746
 Vibration    20          0.842              1.281              0.694
 Vibration    21          0.880              1.196              0.599
 Vibration    22          0.891              1.171              0.574
 Vibration    23          0.913              1.124              0.529
 Vibration    24          0.932              1.084              0.494
 Vibration    25          0.934              1.079              0.489

 Optimization completed.
    -- Stationary point found.
 Normal termination of Gaussian 16 at Fri Dec 11 19:10:12 2020.

 ----------------------------------------------------------------------
 # B3LYP/6-311++G(d,p) empiricaldispersion=gd3bj scf=xqc pop=npa geom=c
 heck
 ----------------------------------------------------------------------

 --------------------------------------
 CID_81236499_JID_8146_Energie_neutraal
 --------------------------------------
 Structure from the checkpoint file:  "JID_8146.chk"
 Charge =  0 Multiplicity = 1

 SCF Done:  E(RB3LYP) =  -782.310289714     A.U. after   16 cycles
 Normal termination of Gaussian 16 at Fri Dec 11 19:15:57 2020.

 ----------------------------------------------------------------------
 # B3LYP/6-311++G(d,p) empiricaldispersion=gd3bj scf=xqc pop=npa geom=c
 heck
 ----------------------------------------------------------------------

 ------------------------------------
 CID_81236499_JID_8146_Energie_kation
 ------------------------------------
 Structure from the checkpoint file:  "JID_8146.chk"
 Charge =  1 Multiplicity = 2

 SCF Done:  E(UB3LYP) =  -782.007244062     A.U. after   29 cycles
 Normal termination of Gaussian 16 at Fri Dec 11 19:30:03 2020.
 Gaussian 16:  ES64L-G16RevA.03 25-Dec-2016

 ----------------------------------------------------------------------
 # B3LYP/6-311++G(d,p) empiricaldispersion=gd3bj scf=xqc pop=npa geom=c
 heck
 ----------------------------------------------------------------------

 -----------------------------------
 CID_81236499_JID_8146_Energie_anion
 -----------------------------------
 Structure from the checkpoint file:  "JID_8146.chk"
 Charge = -1 Multiplicity = 2

                         Standard orientation:
 ---------------------------------------------------------------------
 Center     Atomic      Atomic             Coordinates (Angstroms)
 Number     Number       Type             X           Y           Z
 ---------------------------------------------------------------------
      1          6           0       -1.495345    3.059995   -0.205257
      2          6           0       -2.275827    2.110072   -1.129817
      3          6           0       -2.285501    0.695616   -0.597992
      4          6           0       -1.164686   -0.118801   -0.784977
      5          6           0       -1.105111   -1.395518   -0.219512
      6          6           0       -2.206694   -1.890607    0.491903
      7          6           0       -3.341580   -1.098201    0.645207
      8          6           0       -3.376471    0.194011    0.120260
      9          7           0        0.047549   -2.214591   -0.333657
     10          6           0        1.374430   -1.840728   -0.524479
     11          8           0        2.159793   -2.631709   -1.028658
     12          6           0        1.793716   -0.477337   -0.084365
     13          6           0        1.430612    0.129445    1.142042
     14          6           0        1.907770    1.435474    1.363688
     15          6           0        2.710270    2.043885    0.411297
     16          7           0        3.097913    1.464965   -0.737893
     17          6           0        2.645540    0.227244   -0.943956
     18          7           0        0.712886   -0.518980    2.117534
     19          1           0       -1.949500    3.089145    0.791790
     20          1           0       -1.486836    4.079032   -0.607172
     21          1           0       -0.457612    2.728546   -0.089809
     22          1           0       -3.305010    2.469904   -1.244498
     23          1           0       -1.821802    2.125188   -2.128294
     24          1           0       -0.327525    0.252724   -1.364149
     25          1           0       -2.163443   -2.887518    0.922828
     26          1           0       -4.197373   -1.486994    1.189707
     27          1           0       -4.257496    0.814603    0.260487
     28          1           0       -0.105315   -3.187015   -0.579050
     29          1           0        1.659478    1.954406    2.285571
     30          1           0        3.074321    3.055545    0.582266
     31          1           0        2.954045   -0.258634   -1.866941
     32          1           0        0.258358    0.064288    2.806073
     33          1           0        0.172194   -1.326620    1.844304
 ---------------------------------------------------------------------

 SCF Done:  E(UB3LYP) =  -782.313511277     A.U. after   33 cycles
 SCF Done:  E(UB3LYP) =  -782.313560900     a.u. after    4 cycles

 The electronic state is 2-A.
 Alpha  occ. eigenvalues --  -18.94022 -14.21322 -14.20713 -14.16657 -10.12002
 Alpha  occ. eigenvalues --  -10.09816 -10.09245 -10.07286 -10.06788 -10.06489
 Alpha  occ. eigenvalues --  -10.06398 -10.06251 -10.06194 -10.05713 -10.05063
 Alpha  occ. eigenvalues --  -10.04964 -10.04475 -10.04033  -0.89868  -0.81889
 Alpha  occ. eigenvalues --   -0.80396  -0.79228  -0.73751  -0.68038  -0.65229
 Alpha  occ. eigenvalues --   -0.63380  -0.62566  -0.61539  -0.53583  -0.52622
 Alpha  occ. eigenvalues --   -0.50303  -0.49794  -0.47533  -0.45023  -0.41552
 Alpha  occ. eigenvalues --   -0.41144  -0.40474  -0.37539  -0.36786  -0.34489
 Alpha  occ. eigenvalues --   -0.33786  -0.32954  -0.32176  -0.31694  -0.31447
 Alpha  occ. eigenvalues --   -0.30173  -0.29256  -0.28423  -0.28238  -0.27524
 Alpha  occ. eigenvalues --   -0.26955  -0.25303  -0.24242  -0.23973  -0.23274
 Alpha  occ. eigenvalues --   -0.22750  -0.21994  -0.17654  -0.14301  -0.13810
 Alpha  occ. eigenvalues --   -0.12890  -0.11657  -0.10855  -0.10389   0.04660
 Alpha virt. eigenvalues --    0.06790   0.07602   0.08455   0.08841   0.09303
 Alpha virt. eigenvalues --    0.09790   0.09924   0.10380   0.10910   0.11227
 Alpha virt. eigenvalues --    0.11870   0.12351   0.12736   0.13154   0.14044

  Beta  occ. eigenvalues --  -18.93663 -14.21392 -14.20696 -14.16716 -10.11732
  Beta  occ. eigenvalues --  -10.09693 -10.09088 -10.07286 -10.06796 -10.06401
  Beta  occ. eigenvalues --  -10.06372 -10.06193 -10.05981 -10.05671 -10.04916
  Beta  occ. eigenvalues --  -10.04915 -10.04506 -10.03961  -0.89285  -0.81722
  Beta  occ. eigenvalues --   -0.80205  -0.79105  -0.73621  -0.67974  -0.65031
  Beta  occ. eigenvalues --   -0.63052  -0.62374  -0.61388  -0.53421  -0.52207
  Beta  occ. eigenvalues --   -0.50016  -0.49657  -0.47443  -0.44764  -0.41426
  Beta  occ. eigenvalues --   -0.41076  -0.40348  -0.37414  -0.36638  -0.34303
  Beta  occ. eigenvalues --   -0.33718  -0.32777  -0.32067  -0.31510  -0.31383
  Beta  occ. eigenvalues --   -0.30032  -0.29157  -0.27963  -0.27716  -0.27257
  Beta  occ. eigenvalues --   -0.26556  -0.25215  -0.23901  -0.23542  -0.23059
  Beta  occ. eigenvalues --   -0.22628  -0.21556  -0.16795  -0.13785  -0.13437
  Beta  occ. eigenvalues --   -0.12598  -0.11281  -0.10223  -0.09879
  Beta virt. eigenvalues --    0.06787   0.07690   0.08340   0.08980   0.09258
  Beta virt. eigenvalues --    0.09550   0.09879   0.10313   0.10723   0.11071
  Beta virt. eigenvalues --    0.11704   0.11946   0.12375   0.12770   0.13176

 Mulliken charges and spin densities:
               1          2
     1  C   -0.564103  -0.020752
     2  C   -0.484087  -0.007476
     3  C    0.705848   0.000960
     4  C   -0.084398   0.039945
     5  C    0.123025  -0.117681
     6  C   -0.191483   0.095840
     7  C   -0.069680  -0.355065
     8  C   -0.579283   0.235111
     9  N   -0.230265  -0.068960
    10  C   -0.520931   0.078780
    11  O   -0.367539   0.125029
    12  C    0.444654   0.035309
    13  C   -0.224949   0.088879
    14  C    0.428728  -0.035792
    15  C   -0.459546   0.211324
    16  N   -0.098681  -0.040746
    17  C   -0.476530   0.102216
    18  N   -0.301652   0.013698
    19  H    0.096050   0.018546
    20  H    0.102307   0.001474
    21  H    0.208601  -0.012847
    22  H    0.128746   0.000152
    23  H    0.139277   0.004316
    24  H    0.276310  -0.010332
    25  H   -0.117374   0.257576
    26  H   -0.091892   0.236704
    27  H    0.077680   0.027687
    28  H    0.205139   0.111633
    29  H    0.113285   0.009688
    30  H    0.122225  -0.014753
    31  H    0.188734  -0.005329
    32  H    0.219647   0.001018
    33  H    0.282138  -0.006152
 Sum of Mulliken charges =  -1.00000   1.00000

 Dipole moment (field-independent basis, Debye):
    X=             -5.3606    Y=              3.5597    Z=              2.5137  Tot=              6.9084
 Quadrupole moment (field-independent basis, Debye-Ang):
   XX=           -161.0334   YY=           -138.3555   ZZ=           -117.9588
   XY=             -1.0112   XZ=              6.5870   YZ=             -1.6447

 Summary of Natural Population Analysis:

                                       Natural Population
                Natural  -----------------------------------------------
    Atom  No    Charge         Core      Valence    Rydberg      Total
 -----------------------------------------------------------------------
      C    1   -0.28240      0.99966     2.27886    0.00388     3.28240
      C    2   -0.19243      0.99961     2.18614    0.00668     3.19243
      C    3   -0.01544      0.99951     2.00371    0.01222     3.01544
      C    4   -0.10455      0.99946     2.09572    0.00936     3.10455
      C    5    0.09714      0.99947     1.89227    0.01111     2.90286
      C    6   -0.11884      0.99952     2.10933    0.00999     3.11884
      C    7   -0.10178      0.99957     2.09155    0.01066     3.10178
      C    8   -0.09513      0.99951     2.08558    0.01004     3.09513
      N    9   -0.33517      0.99965     2.82620    0.00932     3.83517
      C   10    0.36947      0.99963     1.60622    0.02468     2.63053
      O   11   -0.28618      0.99988     3.28093    0.00537     4.28618
      C   12   -0.10281      0.99943     2.09061    0.01277     3.10281
      C   13    0.12712      0.99948     1.86088    0.01252     2.87288
      C   14   -0.16361      0.99952     2.15676    0.00733     3.16361
      C   15    0.07469      0.99960     1.91133    0.01438     2.92531
      N   16   -0.27028      0.99972     2.75859    0.01197     3.77028
      C   17    0.07044      0.99956     1.91664    0.01335     2.92956
      N   18   -0.38861      0.99970     2.88101    0.00789     3.88861
      H   19    0.09361      0.00000     0.40481    0.00158     0.40639
      H   20    0.09089      0.00000     0.40827    0.00084     0.40911
      H   21    0.10948      0.00000     0.38966    0.00086     0.39052
      H   22    0.09308      0.00000     0.40586    0.00105     0.40692
      H   23    0.09841      0.00000     0.40062    0.00097     0.40159
      H   24    0.10882      0.00000     0.39008    0.00111     0.39118
      H   25    0.09874      0.00000     0.40007    0.00119     0.40126
      H   26    0.09558      0.00000     0.40352    0.00090     0.40442
      H   27    0.09257      0.00000     0.40649    0.00094     0.40743
      H   28    0.19570      0.00000     0.30141    0.00290     0.30430
      H   29    0.09278      0.00000     0.40566    0.00156     0.40722
      H   30    0.07766      0.00000     0.42111    0.00123     0.42234
      H   31    0.09123      0.00000     0.40753    0.00124     0.40877
      H   32    0.18261      0.00000     0.31599    0.00140     0.31739
      H   33    0.19719      0.00000     0.30095    0.00186     0.30281
 =======================================================================
   * Total *   -0.00000     17.99250    45.79434    0.21317    64.00000

 Normal termination of Gaussian 16 at Fri Dec 11 20:32:15 2020.
