 Gaussian 16, Revision A.03,

 -----------------------------------------------------------
 # opt freq B3LYP/6-31G(d) empiricaldispersion=gd3bj scf=xqc
 -----------------------------------------------------------

 -----------------------------
 CID_130146767_JID_87_neutraal
 -----------------------------
 Symbolic Z-matrix:
 Charge =  0 Multiplicity = 1

 SCF Done:  E(RB3LYP) =  -499.600788995     A.U. after   14 cycles
 SCF Done:  E(RB3LYP) =  -499.604813453     A.U. after   11 cycles
 SCF Done:  E(RB3LYP) =  -499.605289440     A.U. after   10 cycles
 SCF Done:  E(RB3LYP) =  -499.605521004     A.U. after   11 cycles
 SCF Done:  E(RB3LYP) =  -499.605609566     A.U. after   11 cycles
 SCF Done:  E(RB3LYP) =  -499.605677823     A.U. after   11 cycles
 SCF Done:  E(RB3LYP) =  -499.605699660     A.U. after   10 cycles
 SCF Done:  E(RB3LYP) =  -499.605711260     A.U. after   10 cycles
 SCF Done:  E(RB3LYP) =  -499.605716486     A.U. after   10 cycles
 SCF Done:  E(RB3LYP) =  -499.605718001     A.U. after    8 cycles
 SCF Done:  E(RB3LYP) =  -499.605718364     A.U. after    7 cycles
 Optimization completed.
    -- Stationary point found.

 1\1\GINC-NODE378\FOpt\RB3LYP\6-31G(d)\C7H12O3\VSC10255\27-Feb-2021\0\\
 # opt freq B3LYP/6-31G(d) empiricaldispersion=gd3bj scf=xqc\\CID_13014
 6767_JID_87_neutraal\\0,1\O,0.0085169075,-0.6848858252,-0.583434337\O,
 -0.8047278524,2.3658008537,-0.5503136992\O,-2.4324379337,-2.101046491,
 -0.1465629974\C,-0.8883524973,1.3005197028,0.3930325407\C,-1.232559002
 7,-0.0482148798,-0.2766990247\C,0.5258323846,1.0526060552,0.9071369832
 \C,1.1095786628,0.1561694753,-0.1947632951\C,-2.0749183704,-0.95609654
 06,0.6090264882\C,2.2472142341,-0.7073889524,0.2514991454\C,3.49620634

 Normal termination of Gaussian 16 at Sat Feb 27 18:15:37 2021.

 --------------------------------------------------------------------
 #N Geom=AllCheck Guess=TCheck SCRF=Check GenChk RB3LYP/6-31G(d) Freq
 --------------------------------------------------------------------

 Structure from the checkpoint file:  "JID_87.chk"
 -----------------------------
 CID_130146767_JID_87_neutraal
 -----------------------------
 Charge =  0 Multiplicity = 1

 SCF Done:  E(RB3LYP) =  -499.605718364     A.U. after    1 cycles

  Exact polarizability: 105.276  -4.343  75.516  -4.669  -5.640  65.874
 Approx polarizability: 134.812  -2.702 102.933  -8.257  -7.826  99.281

                      1                      2                      3
                      A                      A                      A
 Frequencies --     42.3861                78.9883               103.4166
 Red. masses --      4.5968                 3.0068                 3.2159
 Frc consts  --      0.0049                 0.0111                 0.0203
 IR Inten    --      1.2776                 0.5443                 7.6351

                      4                      5                      6
                      A                      A                      A
 Frequencies --    113.5500               193.7056               218.1402
 Red. masses --      3.2911                 3.0014                 1.2166
 Frc consts  --      0.0250                 0.0664                 0.0341
 IR Inten    --      0.3539                11.6031                97.5822

                      7                      8                      9
                      A                      A                      A
 Frequencies --    269.4177               298.2301               305.9532
 Red. masses --      1.8026                 1.2022                 3.4445
 Frc consts  --      0.0771                 0.0630                 0.1900
 IR Inten    --     26.8536               105.0990                 2.2784

                     10                     11                     12
                      A                      A                      A
 Frequencies --    350.1032               361.7014               424.8798
 Red. masses --      3.5552                 2.7114                 4.5539
 Frc consts  --      0.2567                 0.2090                 0.4844
 IR Inten    --     18.5259                 3.5812                 3.1532

                     13                     14                     15
                      A                      A                      A
 Frequencies --    491.0193               531.4954               652.8791
 Red. masses --      2.4784                 2.7136                 3.3050
 Frc consts  --      0.3521                 0.4516                 0.8300
 IR Inten    --      4.0276                12.4223                 7.6460

                     16                     17                     18
                      A                      A                      A
 Frequencies --    676.1466               759.9668               867.5118
 Red. masses --      1.7717                 4.3420                 2.8469
 Frc consts  --      0.4772                 1.4775                 1.2624
 IR Inten    --      1.2036                 9.2645                 5.7667

                     19                     20                     21
                      A                      A                      A
 Frequencies --    909.8638               924.3763               949.5642
 Red. masses --      2.5444                 2.2183                 1.3639
 Frc consts  --      1.2411                 1.1168                 0.7246
 IR Inten    --     27.2282                17.1839                34.5600

                     22                     23                     24
                      A                      A                      A
 Frequencies --    976.5549              1000.2988              1011.7075
 Red. masses --      1.8921                 1.8080                 2.6801
 Frc consts  --      1.0631                 1.0659                 1.6162
 IR Inten    --     12.4387                13.5806                26.3625

                     25                     26                     27
                      A                      A                      A
 Frequencies --   1032.3339              1046.8578              1072.1045
 Red. masses --      1.1292                 2.6873                 2.7422
 Frc consts  --      0.7090                 1.7351                 1.8570
 IR Inten    --      6.4274               116.4592                27.8043

                     28                     29                     30
                      A                      A                      A
 Frequencies --   1102.4226              1117.3434              1139.6437
 Red. masses --      3.4755                 2.9092                 3.0155
 Frc consts  --      2.4886                 2.1399                 2.3075
 IR Inten    --     93.8890                44.6155                69.3549

                     31                     32                     33
                      A                      A                      A
 Frequencies --   1181.9816              1216.3373              1222.5816
 Red. masses --      1.6077                 1.4132                 1.5011
 Frc consts  --      1.3233                 1.2318                 1.3219
 IR Inten    --      3.6181                24.1808                38.1717

                     34                     35                     36
                      A                      A                      A
 Frequencies --   1252.2222              1279.0700              1306.7209
 Red. masses --      1.2512                 1.1089                 1.3277
 Frc consts  --      1.1559                 1.0689                 1.3358
 IR Inten    --     39.8578                 5.4697                25.6764

                     37                     38                     39
                      A                      A                      A
 Frequencies --   1323.1733              1332.0127              1352.6449
 Red. masses --      1.2851                 1.3479                 1.1579
 Frc consts  --      1.3257                 1.4091                 1.2483
 IR Inten    --      5.1711                10.1047                11.1994

                     40                     41                     42
                      A                      A                      A
 Frequencies --   1362.5215              1383.1415              1405.2096
 Red. masses --      1.3975                 1.4378                 1.3852
 Frc consts  --      1.5286                 1.6206                 1.6115
 IR Inten    --     36.3824                 9.5669                 7.8446

                     43                     44                     45
                      A                      A                      A
 Frequencies --   1429.6920              1480.7617              1484.8846
 Red. masses --      1.4342                 1.3028                 1.4353
 Frc consts  --      1.7272                 1.6830                 1.8645
 IR Inten    --      7.7377                 6.2354                 4.2089

                     46                     47                     48
                      A                      A                      A
 Frequencies --   1504.8599              1537.3606              1738.1740
 Red. masses --      1.1135                 1.0915                 4.6340
 Frc consts  --      1.4858                 1.5200                 8.2489
 IR Inten    --      5.9475                 5.9807                 2.2177

                     49                     50                     51
                      A                      A                      A
 Frequencies --   2970.7194              3007.7925              3016.3982
 Red. masses --      1.0630                 1.0869                 1.0839
 Frc consts  --      5.5271                 5.7936                 5.8107
 IR Inten    --     50.0395                 1.2941                68.1813

                     52                     53                     54
                      A                      A                      A
 Frequencies --   3026.8557              3031.8625              3072.6072
 Red. masses --      1.0955                 1.0862                 1.0671
 Frc consts  --      5.9136                 5.8827                 5.9355
 IR Inten    --    106.9764                38.2436                32.3598

                     55                     56                     57
                      A                      A                      A
 Frequencies --   3145.9571              3154.9786              3164.8399
 Red. masses --      1.0992                 1.0687                 1.0822
 Frc consts  --      6.4097                 6.2676                 6.3863
 IR Inten    --     11.3417                21.7193                 4.3065

                     58                     59                     60
                      A                      A                      A
 Frequencies --   3240.9431              3743.6971              3760.4208
 Red. masses --      1.1157                 1.0662                 1.0665
 Frc consts  --      6.9048                 8.8040                 8.8859
 IR Inten    --     17.7142                12.1081                15.4926

 - Thermochemistry -
 -------------------
 Temperature   298.150 Kelvin.  Pressure   1.00000 Atm.
 Atom     1 has atomic number  8 and mass  15.99491

 Molecular mass:   144.07864 amu.
 Principal axes and moments of inertia in atomic units:
                           1         2         3
     Eigenvalues --  1035.398201871.421832590.09705
           X            0.99984  -0.01609  -0.00824
           Y            0.01597   0.99976  -0.01498
           Z            0.00848   0.01485   0.99985
 This molecule is an asymmetric top.
 Rotational symmetry number  1.
 Warning -- assumption of classical behavior for rotation
           may cause significant error
 Rotational temperatures (Kelvin)      0.08365     0.04628     0.03344
 Rotational constants (GHZ):           1.74304     0.96437     0.69679
 Zero-point vibrational energy     491384.0 (Joules/Mol)
                                  117.44359 (Kcal/Mol)
 Warning -- explicit consideration of  14 degrees of freedom as
           vibrations may cause significant error
 Vibrational temperatures:     60.98   113.65   148.79   163.37   278.70
          (Kelvin)            313.86   387.63   429.09   440.20   503.72
                              520.41   611.31   706.47   764.70   939.35
                              972.82  1093.42  1248.16  1309.09  1329.97
                             1366.21  1405.04  1439.21  1455.62  1485.30
                             1506.19  1542.52  1586.14  1607.61  1639.69
                             1700.61  1750.04  1759.02  1801.67  1840.30
                             1880.08  1903.75  1916.47  1946.15  1960.36
                             1990.03  2021.78  2057.01  2130.49  2136.42
                             2165.16  2211.92  2500.84  4274.20  4327.54
                             4339.92  4354.97  4362.17  4420.80  4526.33
                             4539.31  4553.50  4662.99  5386.35  5410.41

 Zero-point correction=                           0.187158 (Hartree/Particle)
 Thermal correction to Energy=                    0.197874
 Thermal correction to Enthalpy=                  0.198818
 Thermal correction to Gibbs Free Energy=         0.150340
 Sum of electronic and zero-point Energies=           -499.418560
 Sum of electronic and thermal Energies=              -499.407844
 Sum of electronic and thermal Enthalpies=            -499.406900
 Sum of electronic and thermal Free Energies=         -499.455378

                     E (Thermal)             CV                S
                      KCal/Mol        Cal/Mol-Kelvin    Cal/Mol-Kelvin
 Total                  124.168             39.115            102.031
 Electronic               0.000              0.000              0.000
 Translational            0.889              2.981             40.807
 Rotational               0.889              2.981             29.996
 Vibrational            122.390             33.154             31.228
 Vibration     1          0.595              1.980              5.144
 Vibration     2          0.600              1.963              3.916
 Vibration     3          0.605              1.946              3.389
 Vibration     4          0.607              1.938              3.207
 Vibration     5          0.635              1.849              2.192
 Vibration     6          0.646              1.813              1.974
 Vibration     7          0.674              1.729              1.600
 Vibration     8          0.691              1.677              1.427
 Vibration     9          0.696              1.662              1.384
 Vibration    10          0.727              1.575              1.166
 Vibration    11          0.736              1.551              1.115
 Vibration    12          0.787              1.416              0.876
 Vibration    13          0.847              1.270              0.681
 Vibration    14          0.886              1.180              0.584

                           ! Non-Optimized Parameters !

 1\1\GINC-NODE378\Freq\RB3LYP\6-31G(d)\C7H12O3\VSC10255\27-Feb-2021\0\\
 #N Geom=AllCheck Guess=TCheck SCRF=Check GenChk RB3LYP/6-31G(d) Freq\\
 CID_130146767_JID_87_neutraal\\0,1\O,0.0085169075,-0.6848858252,-0.583
 434337\O,-0.8047278524,2.3658008537,-0.5503136992\O,-2.4324379337,-2.1
 01046491,-0.1465629974\C,-0.8883524973,1.3005197028,0.3930325407\C,-1.
 2325590027,-0.0482148798,-0.2766990247\C,0.5258323846,1.0526060552,0.9
 071369832\C,1.1095786628,0.1561694753,-0.1947632951\C,-2.0749183704,-0
 .9560965406,0.6090264882\C,2.2472142341,-0.7073889524,0.2514991454\C,3

 Normal termination of Gaussian 16 at Sat Feb 27 18:19:22 2021.

 ----------------------------------------------------------------------
 # B3LYP/6-311++G(d,p) empiricaldispersion=gd3bj scf=xqc pop=npa geom=c
 heck
 ----------------------------------------------------------------------

 -------------------------------------
 CID_130146767_JID_87_Energie_neutraal
 -------------------------------------
 Structure from the checkpoint file:  "JID_87.chk"
 Charge =  0 Multiplicity = 1

 SCF Done:  E(RB3LYP) =  -499.774564018     A.U. after   13 cycles
 Normal termination of Gaussian 16 at Sat Feb 27 18:20:36 2021.

 ----------------------------------------------------------------------
 # B3LYP/6-311++G(d,p) empiricaldispersion=gd3bj scf=xqc pop=npa geom=c
 heck
 ----------------------------------------------------------------------

 -----------------------------------
 CID_130146767_JID_87_Energie_kation
 -----------------------------------
 Structure from the checkpoint file:  "JID_87.chk"
 Charge =  1 Multiplicity = 2

 SCF Done:  E(UB3LYP) =  -499.448132917     A.U. after   20 cycles
 Normal termination of Gaussian 16 at Sat Feb 27 18:23:06 2021.
 Gaussian 16:  ES64L-G16RevA.03 25-Dec-2016

 ----------------------------------
 CID_130146767_JID_87_Energie_anion
 ----------------------------------
 Structure from the checkpoint file:  "JID_87.chk"
 Charge = -1 Multiplicity = 2

                         Standard orientation:
 ---------------------------------------------------------------------
 Center     Atomic      Atomic             Coordinates (Angstroms)
 Number     Number       Type             X           Y           Z
 ---------------------------------------------------------------------
      1          8           0        0.033138   -0.649396   -0.636988
      2          8           0       -0.478625    2.464042   -0.519704
      3          8           0       -2.543229   -1.831313   -0.290530
      4          6           0       -0.685925    1.383882    0.386938
      5          6           0       -1.146006    0.096584   -0.332293
      6          6           0        0.686048    0.982542    0.918255
      7          6           0        1.202629    0.067062   -0.201380
      8          6           0       -2.091636   -0.750644    0.508134
      9          6           0        2.240718   -0.917387    0.237174
     10          6           0        3.504328   -0.910494   -0.182978
     11          1           0       -1.382014    1.680017    1.185850
     12          1           0       -1.661472    0.347449   -1.271948
     13          1           0        0.580985    0.417349    1.851776
     14          1           0        1.326237    1.849000    1.097687
     15          1           0        1.586850    0.681948   -1.027172
     16          1           0       -2.934547   -0.120962    0.842712
     17          1           0       -1.553178   -1.100020    1.403093
     18          1           0        1.898602   -1.654261    0.963848
     19          1           0       -1.295532    2.589337   -1.026866
     20          1           0       -3.008167   -2.455668    0.285507
     21          1           0        4.236830   -1.621800    0.187761
     22          1           0        3.854183   -0.188326   -0.917561
 ---------------------------------------------------------------------

 SCF Done:  E(UB3LYP) =  -499.760981864     A.U. after   32 cycles

 The electronic state is 2-A.
 Alpha  occ. eigenvalues --  -19.02264 -19.01461 -19.00776 -10.12319 -10.12218
 Alpha  occ. eigenvalues --  -10.11196 -10.10107 -10.08321 -10.07724 -10.07098
 Alpha  occ. eigenvalues --   -0.94319  -0.91868  -0.90641  -0.70463  -0.67552
 Alpha  occ. eigenvalues --   -0.64237  -0.56077  -0.50451  -0.48208  -0.46877
 Alpha  occ. eigenvalues --   -0.43572  -0.40378  -0.39220  -0.37380  -0.36030
 Alpha  occ. eigenvalues --   -0.33916  -0.32307  -0.31039  -0.29508  -0.28705
 Alpha  occ. eigenvalues --   -0.26234  -0.25906  -0.24410  -0.23000  -0.22313
 Alpha  occ. eigenvalues --   -0.17942  -0.17674  -0.16562  -0.14865   0.04766
 Alpha virt. eigenvalues --    0.06861   0.07185   0.08374   0.08535   0.09256
 Alpha virt. eigenvalues --    0.09825   0.11165   0.11863   0.12395   0.12826
 Alpha virt. eigenvalues --    0.13119   0.14254   0.16348   0.16574   0.16890

  Beta  occ. eigenvalues --  -19.02234 -19.01453 -19.00742 -10.12318 -10.12199
  Beta  occ. eigenvalues --  -10.11186 -10.10058 -10.08311 -10.07717 -10.07084
  Beta  occ. eigenvalues --   -0.94287  -0.91808  -0.90571  -0.70444  -0.67500
  Beta  occ. eigenvalues --   -0.64197  -0.56003  -0.50409  -0.48130  -0.46845
  Beta  occ. eigenvalues --   -0.43498  -0.40297  -0.39150  -0.37312  -0.35997
  Beta  occ. eigenvalues --   -0.33878  -0.32268  -0.30998  -0.29480  -0.28673
  Beta  occ. eigenvalues --   -0.26195  -0.25871  -0.24379  -0.22937  -0.22287
  Beta  occ. eigenvalues --   -0.17922  -0.17638  -0.16519  -0.14817
  Beta virt. eigenvalues --    0.06977   0.08038   0.08260   0.08493   0.09345
  Beta virt. eigenvalues --    0.09507   0.10675   0.11568   0.12316   0.12911
  Beta virt. eigenvalues --    0.13347   0.13540   0.14804   0.16490   0.16924

 Mulliken charges and spin densities:
               1          2
     1  O   -0.065819  -0.017955
     2  O   -0.235831   0.026342
     3  O   -0.370071   0.105335
     4  C    1.133413  -1.650018
     5  C   -2.794540   3.121433
     6  C    0.356858  -0.888139
     7  C   -0.127789  -0.184686
     8  C    3.527052  -4.061488
     9  C   -0.654369   1.204538
    10  C    0.316788  -0.969229
    11  H   -0.341838   0.565670
    12  H   -0.081118   0.272301
    13  H   -0.154363   0.308929
    14  H    0.153150   0.031701
    15  H    0.185247   0.001927
    16  H   -0.734180   0.889796
    17  H   -0.474858   0.651441
    18  H   -0.240226   0.443999
    19  H   -0.182596   0.441837
    20  H   -0.141392   0.399162
    21  H   -0.124163   0.256858
    22  H    0.050648   0.050246
 Sum of Mulliken charges =  -1.00000   1.00000

 Dipole moment (field-independent basis, Debye):
    X=              6.5886    Y=              1.3110    Z=             -2.3057  Tot=              7.1024
 Quadrupole moment (field-independent basis, Debye-Ang):
   XX=           -114.3576   YY=           -104.1083   ZZ=            -91.9863
   XY=             -0.1437   XZ=              4.1898   YZ=              1.9856

 Summary of Natural Population Analysis:

                                       Natural Population
                Natural  -----------------------------------------------
    Atom  No    Charge         Core      Valence    Rydberg      Total
 -----------------------------------------------------------------------
      O    1   -0.30056      0.99988     3.29192    0.00876     4.30056
      O    2   -0.37441      0.99989     3.36785    0.00666     4.37441
      O    3   -0.36716      0.99989     3.36048    0.00679     4.36716
      C    4    0.05231      0.99953     1.93288    0.01528     2.94769
      C    5    0.04875      0.99953     1.93445    0.01727     2.95125
      C    6   -0.20333      0.99960     2.19419    0.00955     3.20333
      C    7    0.04590      0.99953     1.93900    0.01557     2.95410
      C    8   -0.01406      0.99956     2.00104    0.01346     3.01406
      C    9   -0.08078      0.99954     2.06927    0.01197     3.08078
      C   10   -0.19289      0.99957     2.18693    0.00639     3.19289
      H   11    0.09017      0.00000     0.40703    0.00280     0.40983
      H   12    0.08971      0.00000     0.40863    0.00166     0.41029
      H   13    0.10434      0.00000     0.39399    0.00167     0.39566
      H   14    0.10898      0.00000     0.38995    0.00107     0.39102
      H   15    0.08551      0.00000     0.41245    0.00204     0.41449
      H   16    0.08077      0.00000     0.41383    0.00540     0.41923
      H   17    0.08029      0.00000     0.41591    0.00380     0.41971
      H   18    0.09837      0.00000     0.40014    0.00149     0.40163
      H   19    0.23267      0.00000     0.26243    0.00490     0.26733
      H   20    0.23314      0.00000     0.26108    0.00577     0.26686
      H   21    0.09301      0.00000     0.40597    0.00102     0.40699
      H   22    0.08927      0.00000     0.40958    0.00115     0.41073
 =======================================================================
   * Total *   -0.00000      9.99652    28.85899    0.14449    39.00000

 Normal termination of Gaussian 16 at Sat Feb 27 18:27:00 2021.
