 Gaussian 16, Revision A.03,

 -----------------------------------------------------------
 # opt freq B3LYP/6-31G(d) empiricaldispersion=gd3bj scf=xqc
 -----------------------------------------------------------

 --------------------------------
 CID_103127549_JID_10066_neutraal
 --------------------------------
 Symbolic Z-matrix:
 Charge =  0 Multiplicity = 1

 SCF Done:  E(RB3LYP) =  -839.586730246     A.U. after   15 cycles
 SCF Done:  E(RB3LYP) =  -839.591905205     A.U. after   13 cycles
 SCF Done:  E(RB3LYP) =  -839.588468012     A.U. after   15 cycles
 SCF Done:  E(RB3LYP) =  -839.591025511     A.U. after   13 cycles
 SCF Done:  E(RB3LYP) =  -839.593552282     A.U. after   10 cycles
 SCF Done:  E(RB3LYP) =  -839.594276628     A.U. after   12 cycles
 SCF Done:  E(RB3LYP) =  -839.594587695     A.U. after   12 cycles
 SCF Done:  E(RB3LYP) =  -839.594677400     A.U. after   11 cycles
 SCF Done:  E(RB3LYP) =  -839.594739115     A.U. after   11 cycles
 SCF Done:  E(RB3LYP) =  -839.594795198     A.U. after   12 cycles
 SCF Done:  E(RB3LYP) =  -839.598981271     A.U. after    9 cycles
 SCF Done:  E(RB3LYP) =  -839.598984096     A.U. after    9 cycles
 SCF Done:  E(RB3LYP) =  -839.598986202     A.U. after    9 cycles
 SCF Done:  E(RB3LYP) =  -839.598986450     A.U. after    8 cycles
 SCF Done:  E(RB3LYP) =  -839.598986481     A.U. after    6 cycles
 Optimization completed.
    -- Stationary point found.
 Normal termination of Gaussian 16 at Mon Dec 14 14:07:09 2020.

 --------------------------------------------------------------------
 #N Geom=AllCheck Guess=TCheck SCRF=Check GenChk RB3LYP/6-31G(d) Freq
 --------------------------------------------------------------------

 Structure from the checkpoint file:  "JID_10066.chk"
 --------------------------------
 CID_103127549_JID_10066_neutraal
 --------------------------------
 Charge =  0 Multiplicity = 1

 SCF Done:  E(RB3LYP) =  -839.598986481     A.U. after    1 cycles

  Exact polarizability: 244.630  25.355 149.577  15.339 -12.965 159.331
 Approx polarizability: 369.940  48.571 226.400  34.483 -28.395 299.714

                      1                      2                      3
                      A                      A                      A
 Frequencies --     19.6794                30.9979                46.3816
 Red. masses --      5.3192                 5.1313                 3.8798
 Frc consts  --      0.0012                 0.0029                 0.0049
 IR Inten    --      0.3184                 0.2564                 0.1502

                      4                      5                      6
                      A                      A                      A
 Frequencies --     58.7052                81.1878                96.5105
 Red. masses --      3.5986                 3.7517                 2.0246
 Frc consts  --      0.0073                 0.0146                 0.0111
 IR Inten    --      0.0085                 0.1361                 1.0679

                      7                      8                      9
                      A                      A                      A
 Frequencies --    118.7496               144.2598               185.9779
 Red. masses --      4.7535                 3.3788                 4.3674
 Frc consts  --      0.0395                 0.0414                 0.0890
 IR Inten    --      0.4621                 0.4491                 1.6017

                     10                     11                     12
                      A                      A                      A
 Frequencies --    215.3433               223.0951               252.0418
 Red. masses --      3.8316                 4.3858                 2.0133
 Frc consts  --      0.1047                 0.1286                 0.0754
 IR Inten    --      0.1133                 0.2995                 0.5769

                     13                     14                     15
                      A                      A                      A
 Frequencies --    277.7396               305.5854               325.1777
 Red. masses --      1.8710                 4.4150                 4.6451
 Frc consts  --      0.0850                 0.2429                 0.2894
 IR Inten    --      0.1627                 0.5133                 0.7921

                     16                     17                     18
                      A                      A                      A
 Frequencies --    391.2962               403.6008               418.8630
 Red. masses --      2.4565                 2.1715                 3.3499
 Frc consts  --      0.2216                 0.2084                 0.3463
 IR Inten    --      0.3261                 0.4020                 2.0263

                     19                     20                     21
                      A                      A                      A
 Frequencies --    431.7447               484.7067               506.4622
 Red. masses --      2.9853                 4.5514                 4.9960
 Frc consts  --      0.3279                 0.6300                 0.7550
 IR Inten    --      8.7087                11.4804                 7.9870

                     22                     23                     24
                      A                      A                      A
 Frequencies --    529.6080               582.4603               602.2451
 Red. masses --      4.1240                 4.1330                 5.3270
 Frc consts  --      0.6815                 0.8261                 1.1384
 IR Inten    --      1.8789                 1.5932                 2.2253

                     25                     26                     27
                      A                      A                      A
 Frequencies --    615.9019               646.6455               682.6725
 Red. masses --      4.4912                 4.2165                 3.9837
 Frc consts  --      1.0038                 1.0388                 1.0939
 IR Inten    --      5.4050                 3.4341                 2.5541

                     28                     29                     30
                      A                      A                      A
 Frequencies --    688.8559               731.0436               746.6511
 Red. masses --      6.6604                 3.6979                 2.5487
 Frc consts  --      1.8621                 1.1644                 0.8371
 IR Inten    --      0.2712                18.2597                35.6214

                     31                     32                     33
                      A                      A                      A
 Frequencies --    760.1217               767.3813               793.7381
 Red. masses --      1.5472                 3.6170                 1.9477
 Frc consts  --      0.5267                 1.2549                 0.7230
 IR Inten    --     28.4175                 5.7260                58.6476

                     34                     35                     36
                      A                      A                      A
 Frequencies --    804.0388               820.6397               829.0642
 Red. masses --      4.3441                 1.7364                 1.2658
 Frc consts  --      1.6546                 0.6890                 0.5126
 IR Inten    --      4.0010                 3.3415                 2.9968

                     37                     38                     39
                      A                      A                      A
 Frequencies --    844.3641               864.8598               896.0356
 Red. masses --      1.4170                 2.0022                 1.2679
 Frc consts  --      0.5952                 0.8824                 0.5998
 IR Inten    --      0.4931                11.3196                 0.3936

                     40                     41                     42
                      A                      A                      A
 Frequencies --    900.5950               905.6532               935.6023
 Red. masses --      2.1877                 2.2708                 1.3321
 Frc consts  --      1.0454                 1.0974                 0.6870
 IR Inten    --      9.2755                15.8281                 0.1771

                     43                     44                     45
                      A                      A                      A
 Frequencies --    939.6719               957.6057               969.9579
 Red. masses --      2.5538                 1.5661                 1.2408
 Frc consts  --      1.3286                 0.8461                 0.6878
 IR Inten    --     17.0959                 7.6180                 0.1758

                     46                     47                     48
                      A                      A                      A
 Frequencies --    973.4307               979.6625               992.5135
 Red. masses --      2.1440                 1.3940                 1.4419
 Frc consts  --      1.1970                 0.7882                 0.8369
 IR Inten    --     18.2460                 2.2249                 0.2230

                     49                     50                     51
                      A                      A                      A
 Frequencies --   1015.6753              1037.6737              1052.4701
 Red. masses --      7.4636                 2.3084                 2.8137
 Frc consts  --      4.5364                 1.4645                 1.8363
 IR Inten    --      7.5764                 1.3095                13.0691

                     52                     53                     54
                      A                      A                      A
 Frequencies --   1093.4496              1105.7867              1121.4665
 Red. masses --      3.0324                 1.9988                 1.6999
 Frc consts  --      2.1362                 1.4400                 1.2597
 IR Inten    --     13.1044                 1.6694                 5.4332

                     55                     56                     57
                      A                      A                      A
 Frequencies --   1145.4118              1152.4505              1160.7549
 Red. masses --      1.9575                 1.5524                 2.0287
 Frc consts  --      1.5132                 1.2147                 1.6105
 IR Inten    --     13.9238                 7.0346                19.0174

                     58                     59                     60
                      A                      A                      A
 Frequencies --   1175.4040              1181.3763              1211.0192
 Red. masses --      1.3820                 1.3900                 1.5754
 Frc consts  --      1.1250                 1.1430                 1.3613
 IR Inten    --     16.9610                14.9325                11.6618

                     61                     62                     63
                      A                      A                      A
 Frequencies --   1224.1364              1247.9147              1259.0137
 Red. masses --      1.6774                 2.1583                 1.2955
 Frc consts  --      1.4809                 1.9803                 1.2099
 IR Inten    --      6.0450                 9.7348                 5.5455

                     64                     65                     66
                      A                      A                      A
 Frequencies --   1264.1743              1275.4165              1295.3315
 Red. masses --      2.6445                 1.4283                 2.1581
 Frc consts  --      2.4900                 1.3689                 2.1334
 IR Inten    --     34.6532                15.1084                15.2579

                     67                     68                     69
                      A                      A                      A
 Frequencies --   1310.5746              1319.5715              1354.4512
 Red. masses --      1.5419                 3.1415                 1.4878
 Frc consts  --      1.5604                 3.2229                 1.6081
 IR Inten    --      4.9148                 5.5930                25.3734

                     70                     71                     72
                      A                      A                      A
 Frequencies --   1370.9859              1378.0176              1382.3232
 Red. masses --      2.3895                 2.1287                 1.3074
 Frc consts  --      2.6462                 2.3816                 1.4718
 IR Inten    --      4.8748                21.1672                 1.6038

                     73                     74                     75
                      A                      A                      A
 Frequencies --   1397.6986              1403.9505              1423.5937
 Red. masses --      2.3435                 2.1590                 1.4537
 Frc consts  --      2.6974                 2.5072                 1.7358
 IR Inten    --     26.1176                29.2193                 7.2279

                     76                     77                     78
                      A                      A                      A
 Frequencies --   1445.2416              1463.1196              1501.4066
 Red. masses --      1.3750                 2.0656                 2.6336
 Frc consts  --      1.6922                 2.6052                 3.4978
 IR Inten    --      6.6473                16.7131                 3.0572

                     79                     80                     81
                      A                      A                      A
 Frequencies --   1509.7742              1514.1633              1522.4961
 Red. masses --      2.5720                 1.2502                 1.1347
 Frc consts  --      3.4542                 1.6888                 1.5496
 IR Inten    --     43.4551                 5.4094                 9.8998

                     82                     83                     84
                      A                      A                      A
 Frequencies --   1529.1844              1535.6119              1546.0543
 Red. masses --      1.0497                 1.1715                 2.0952
 Frc consts  --      1.4462                 1.6276                 2.9507
 IR Inten    --      9.6096                23.6869                 3.6081

                     85                     86                     87
                      A                      A                      A
 Frequencies --   1554.0891              1584.8529              1594.0761
 Red. masses --      1.1092                 6.1883                 5.2474
 Frc consts  --      1.5784                 9.1580                 7.8562
 IR Inten    --      3.3663                15.1734                29.8798

                     88                     89                     90
                      A                      A                      A
 Frequencies --   1618.6482              1657.8248              1692.9746
 Red. masses --      6.5758                 5.3784                 6.1809
 Frc consts  --     10.1509                 8.7092                10.4376
 IR Inten    --     11.4182                51.2822                23.0927

                     91                     92                     93
                      A                      A                      A
 Frequencies --   2940.7261              3022.0708              3047.7726
 Red. masses --      1.0734                 1.0835                 1.0433
 Frc consts  --      5.4690                 5.8303                 5.7098
 IR Inten    --     74.2370                24.6323                17.5611

                     94                     95                     96
                      A                      A                      A
 Frequencies --   3057.4346              3072.1550              3112.1733
 Red. masses --      1.0808                 1.0604                 1.1033
 Frc consts  --      5.9524                 5.8966                 6.2961
 IR Inten    --     38.2127                32.0604                29.0781

                     97                     98                     99
                      A                      A                      A
 Frequencies --   3113.6962              3136.4998              3166.5052
 Red. masses --      1.0990                 1.1033                 1.0875
 Frc consts  --      6.2777                 6.3949                 6.4247
 IR Inten    --     46.1873                25.8208                24.9702

                    100                    101                    102
                      A                      A                      A
 Frequencies --   3172.7619              3193.0120              3206.8707
 Red. masses --      1.0897                 1.0939                 1.0868
 Frc consts  --      6.4628                 6.5709                 6.5852
 IR Inten    --     24.5363                23.2197                 3.6644

                    103                    104                    105
                      A                      A                      A
 Frequencies --   3212.5286              3223.8743              3232.5267
 Red. masses --      1.0934                 1.0928                 1.0930
 Frc consts  --      6.6486                 6.6916                 6.7293
 IR Inten    --      9.3431                10.9052                 6.1163

                    106                    107                    108
                      A                      A                      A
 Frequencies --   3262.3109              3278.1918              3477.5972
 Red. masses --      1.0960                 1.0959                 1.0730
 Frc consts  --      6.8725                 6.9387                 7.6454
 IR Inten    --      2.1214                 2.7148                 0.6649

 - Thermochemistry -
 -------------------
 Temperature   298.150 Kelvin.  Pressure   1.00000 Atm.
 Atom     1 has atomic number  6 and mass  12.00000

 Molecular mass:   266.15315 amu.
 Principal axes and moments of inertia in atomic units:
                           1         2         3
     Eigenvalues --  3695.456717055.517598798.01827
           X            0.99888   0.04687   0.00583
           Y           -0.04684   0.99889  -0.00444
           Z           -0.00603   0.00416   0.99997
 This molecule is an asymmetric top.
 Rotational symmetry number  1.
 Warning -- assumption of classical behavior for rotation
           may cause significant error
 Rotational temperatures (Kelvin)      0.02344     0.01228     0.00984
 Rotational constants (GHZ):           0.48837     0.25579     0.20513
 Zero-point vibrational energy     839404.3 (Joules/Mol)
                                  200.62245 (Kcal/Mol)
 Warning -- explicit consideration of  25 degrees of freedom as
           vibrations may cause significant error
 Vibrational temperatures:     28.31    44.60    66.73    84.46   116.81
          (Kelvin)            138.86   170.85   207.56   267.58   309.83
                              320.98   362.63   399.61   439.67   467.86
                              562.99   580.69   602.65   621.18   697.38
                              728.69   761.99   838.03   866.50   886.15
                              930.38   982.21   991.11  1051.81  1074.26
                             1093.65  1104.09  1142.01  1156.83  1180.72
                             1192.84  1214.85  1244.34  1289.20  1295.76
                             1303.03  1346.12  1351.98  1377.78  1395.55
                             1400.55  1409.52  1428.01  1461.33  1492.98
                             1514.27  1573.23  1590.98  1613.54  1647.99
                             1658.12  1670.07  1691.14  1699.74  1742.39
                             1761.26  1795.47  1811.44  1818.86  1835.04
                             1863.69  1885.62  1898.57  1948.75  1972.54
                             1982.66  1988.85  2010.98  2019.97  2048.23
                             2079.38  2105.10  2160.19  2172.23  2178.54
                             2190.53  2200.16  2209.40  2224.43  2235.99
                             2280.25  2293.52  2328.87  2385.24  2435.81
                             4231.05  4348.09  4385.07  4398.97  4420.15
                             4477.72  4479.91  4512.72  4555.89  4564.90
                             4594.03  4613.97  4622.11  4638.44  4650.88
                             4693.74  4716.59  5003.49

 Zero-point correction=                           0.319712 (Hartree/Particle)
 Thermal correction to Energy=                    0.336693
 Thermal correction to Enthalpy=                  0.337638
 Thermal correction to Gibbs Free Energy=         0.272902
 Sum of electronic and zero-point Energies=           -839.279274
 Sum of electronic and thermal Energies=              -839.262293
 Sum of electronic and thermal Enthalpies=            -839.261349
 Sum of electronic and thermal Free Energies=         -839.326084

                     E (Thermal)             CV                S
                      KCal/Mol        Cal/Mol-Kelvin    Cal/Mol-Kelvin
 Total                  211.278             66.363            136.247
 Electronic               0.000              0.000              0.000
 Translational            0.889              2.981             42.636
 Rotational               0.889              2.981             33.794
 Vibrational            209.501             60.401             59.817
 Vibration     1          0.593              1.986              6.666
 Vibration     2          0.594              1.984              5.765
 Vibration     3          0.595              1.979              4.966
 Vibration     4          0.596              1.974              4.500
 Vibration     5          0.600              1.962              3.862
 Vibration     6          0.603              1.952              3.524
 Vibration     7          0.609              1.934              3.121
 Vibration     8          0.616              1.909              2.747
 Vibration     9          0.632              1.859              2.268
 Vibration    10          0.645              1.818              1.998
 Vibration    11          0.649              1.806              1.934
 Vibration    12          0.664              1.759              1.716
 Vibration    13          0.679              1.715              1.548
 Vibration    14          0.696              1.663              1.386
 Vibration    15          0.709              1.625              1.284
 Vibration    16          0.759              1.489              0.995
 Vibration    17          0.769              1.462              0.950
 Vibration    18          0.782              1.429              0.896
 Vibration    19          0.793              1.401              0.853
 Vibration    20          0.841              1.284              0.697
 Vibration    21          0.862              1.236              0.642
 Vibration    22          0.885              1.184              0.588
 Vibration    23          0.939              1.069              0.481
 Vibration    24          0.961              1.027              0.446
 Vibration    25          0.975              0.998              0.423

 Optimization completed.
    -- Stationary point found.
 Normal termination of Gaussian 16 at Mon Dec 14 14:31:11 2020.

 ----------------------------------------------------------------------
 # B3LYP/6-311++G(d,p) empiricaldispersion=gd3bj scf=xqc pop=npa geom=c
 heck
 ----------------------------------------------------------------------

 ----------------------------------------
 CID_103127549_JID_10066_Energie_neutraal
 ----------------------------------------
 Structure from the checkpoint file:  "JID_10066.chk"
 Charge =  0 Multiplicity = 1

 SCF Done:  E(RB3LYP) =  -839.816662449     A.U. after   15 cycles
 Normal termination of Gaussian 16 at Mon Dec 14 14:41:47 2020.

 ----------------------------------------------------------------------
 # B3LYP/6-311++G(d,p) empiricaldispersion=gd3bj scf=xqc pop=npa geom=c
 heck
 ----------------------------------------------------------------------

 --------------------------------------
 CID_103127549_JID_10066_Energie_kation
 --------------------------------------
 Structure from the checkpoint file:  "JID_10066.chk"
 Charge =  1 Multiplicity = 2

 SCF Done:  E(UB3LYP) =  -839.539608964     A.U. after   25 cycles
 Normal termination of Gaussian 16 at Mon Dec 14 15:05:58 2020.
 Gaussian 16:  ES64L-G16RevA.03 25-Dec-2016

 ----------------------------------------------------------------------
 # B3LYP/6-311++G(d,p) empiricaldispersion=gd3bj scf=xqc pop=npa geom=c
 heck
 ----------------------------------------------------------------------

 -------------------------------------
 CID_103127549_JID_10066_Energie_anion
 -------------------------------------
 Structure from the checkpoint file:  "JID_10066.chk"
 Charge = -1 Multiplicity = 2

                         Standard orientation:
 ---------------------------------------------------------------------
 Center     Atomic      Atomic             Coordinates (Angstroms)
 Number     Number       Type             X           Y           Z
 ---------------------------------------------------------------------
      1          6           0        3.884841    2.763914    0.564928
      2          6           0        2.815369    2.375489   -0.451295
      3          7           0        1.689172    1.738111    0.221964
      4          6           0        0.592955    1.312108   -0.642241
      5          6           0        0.962273    0.118828   -1.594188
      6          6           0        1.375106   -1.107483   -0.829769
      7          6           0        0.441649   -2.056154   -0.396819
      8          6           0        0.871558   -3.133084    0.375578
      9          7           0        2.144540   -3.329555    0.745017
     10          6           0        3.035325   -2.422773    0.327726
     11          6           0        2.706784   -1.311450   -0.448962
     12          6           0       -0.610852    0.990769    0.202394
     13          6           0       -1.886816    0.596370   -0.224240
     14          6           0       -2.555895    0.393986   -1.456628
     15          6           0       -3.867014   -0.016964   -1.463183
     16          6           0       -4.559805   -0.235250   -0.238756
     17          6           0       -3.922725   -0.030344    0.952677
     18          7           0       -2.619090    0.375967    0.951290
     19          7           0       -1.898070    0.610399    2.070119
     20          6           0       -0.695724    0.981413    1.604470
     21          1           0        3.461768    3.417925    1.333567
     22          1           0        4.717503    3.282253    0.077874
     23          1           0        4.291309    1.874703    1.063199
     24          1           0        2.436165    3.273350   -0.956115
     25          1           0        3.274509    1.748283   -1.238442
     26          1           0        2.021738    0.936903    0.758038
     27          1           0        0.360777    2.165088   -1.295601
     28          1           0        0.102247   -0.107246   -2.232224
     29          1           0        1.774295    0.441739   -2.254385
     30          1           0       -0.607327   -1.954761   -0.656306
     31          1           0        0.155454   -3.877790    0.718695
     32          1           0        4.068123   -2.593187    0.627926
     33          1           0        3.484058   -0.621455   -0.766999
     34          1           0       -2.023502    0.577947   -2.383171
     35          1           0       -4.383434   -0.171827   -2.404946
     36          1           0       -5.594031   -0.559027   -0.236906
     37          1           0       -4.361568   -0.161429    1.933215
     38          1           0        0.083882    1.247804    2.303704
 ---------------------------------------------------------------------

 SCF Done:  E(UB3LYP) =  -839.814612155     A.U. after   33 cycles
 SCF Done:  E(UB3LYP) =  -839.814612155     a.u. after    1 cycles

 The electronic state is 2-A.
 Alpha  occ. eigenvalues --  -14.26292 -14.19539 -14.19292 -14.18027 -10.10407
 Alpha  occ. eigenvalues --  -10.10075 -10.08449 -10.08349 -10.08169 -10.07757
 Alpha  occ. eigenvalues --  -10.06924 -10.06535 -10.06237 -10.06226 -10.05928
 Alpha  occ. eigenvalues --  -10.05210 -10.04779 -10.04058 -10.03620 -10.03598
 Alpha  occ. eigenvalues --   -0.92325  -0.82051  -0.81265  -0.74442  -0.70935
 Alpha  occ. eigenvalues --   -0.68757  -0.66142  -0.64231  -0.64003  -0.61515
 Alpha  occ. eigenvalues --   -0.59488  -0.54037  -0.51875  -0.51154  -0.50969
 Alpha  occ. eigenvalues --   -0.48359  -0.47321  -0.45866  -0.39720  -0.39089
 Alpha  occ. eigenvalues --   -0.38551  -0.37067  -0.36731  -0.35858  -0.35241
 Alpha  occ. eigenvalues --   -0.34693  -0.34337  -0.33373  -0.32351  -0.31586
 Alpha  occ. eigenvalues --   -0.30903  -0.30042  -0.29099  -0.28140  -0.27549
 Alpha  occ. eigenvalues --   -0.27479  -0.26462  -0.26090  -0.24841  -0.24276
 Alpha  occ. eigenvalues --   -0.23877  -0.22808  -0.21171  -0.17430  -0.16716
 Alpha  occ. eigenvalues --   -0.16239  -0.14824  -0.13983  -0.12810  -0.12266
 Alpha  occ. eigenvalues --   -0.07811   0.05104
 Alpha virt. eigenvalues --    0.06293   0.07044   0.08215   0.08521   0.08684
 Alpha virt. eigenvalues --    0.09509   0.09772   0.09851   0.10446   0.10621
 Alpha virt. eigenvalues --    0.11376   0.11847   0.11992   0.12198   0.12668

  Beta  occ. eigenvalues --  -14.26094 -14.19540 -14.19326 -14.17825 -10.10406
  Beta  occ. eigenvalues --  -10.10055 -10.08389 -10.08355 -10.08214 -10.07750
  Beta  occ. eigenvalues --  -10.06570 -10.06332 -10.06259 -10.06232 -10.05886
  Beta  occ. eigenvalues --  -10.05172 -10.04844 -10.03854 -10.03587 -10.03339
  Beta  occ. eigenvalues --   -0.92064  -0.81801  -0.81222  -0.74176  -0.70715
  Beta  occ. eigenvalues --   -0.68497  -0.65986  -0.64016  -0.63857  -0.61390
  Beta  occ. eigenvalues --   -0.59225  -0.53931  -0.51799  -0.51087  -0.50515
  Beta  occ. eigenvalues --   -0.48145  -0.47104  -0.45752  -0.39633  -0.38973
  Beta  occ. eigenvalues --   -0.38475  -0.36956  -0.36576  -0.35760  -0.35099
  Beta  occ. eigenvalues --   -0.34575  -0.34209  -0.32845  -0.32161  -0.31321
  Beta  occ. eigenvalues --   -0.30803  -0.29974  -0.29036  -0.28097  -0.27454
  Beta  occ. eigenvalues --   -0.27104  -0.26321  -0.26005  -0.24698  -0.24183
  Beta  occ. eigenvalues --   -0.23758  -0.22691  -0.20307  -0.16611  -0.16353
  Beta  occ. eigenvalues --   -0.15499  -0.14452  -0.13737  -0.12628  -0.11766
  Beta  occ. eigenvalues --   -0.06957
  Beta virt. eigenvalues --    0.06250   0.07611   0.08253   0.08445   0.09385
  Beta virt. eigenvalues --    0.09533   0.09611   0.09795   0.10263   0.10539
  Beta virt. eigenvalues --    0.10636   0.11333   0.11777   0.12034   0.12191

 Mulliken charges and spin densities:
               1          2
     1  C   -0.428902  -0.138854
     2  C   -0.006927   0.026580
     3  N    0.040688   0.003428
     4  C   -0.564088  -0.075671
     5  C   -0.017336  -0.251565
     6  C    0.328453   0.208464
     7  C    0.031558   0.150261
     8  C   -0.643373  -0.106298
     9  N   -0.116289   0.086727
    10  C   -0.623868   0.019282
    11  C    0.072213   0.066192
    12  C    0.095460   0.002868
    13  C   -0.297068  -0.055708
    14  C   -0.412086   0.162774
    15  C   -0.039165   0.197524
    16  C   -0.653062  -0.039659
    17  C    0.178827   0.319494
    18  N    0.264288   0.020204
    19  N   -0.066929   0.001445
    20  C   -0.259725   0.020948
    21  H    0.125506   0.029661
    22  H    0.067200   0.054315
    23  H    0.057342   0.073959
    24  H    0.123889  -0.000207
    25  H    0.070854  -0.000452
    26  H    0.211939  -0.019108
    27  H    0.184670  -0.006136
    28  H    0.000649   0.148913
    29  H    0.131390   0.017998
    30  H    0.166865   0.037127
    31  H    0.130833   0.021262
    32  H    0.137762  -0.004917
    33  H    0.145874   0.007734
    34  H    0.081533  -0.003461
    35  H    0.097271   0.034856
    36  H    0.103848   0.007945
    37  H    0.157039  -0.023822
    38  H    0.122868   0.005897
 Sum of Mulliken charges =  -1.00000   1.00000

 Dipole moment (field-independent basis, Debye):
    X=              3.2662    Y=              2.9359    Z=             -2.9662  Tot=              5.2996
 Quadrupole moment (field-independent basis, Debye-Ang):
   XX=           -162.3638   YY=           -155.4148   ZZ=           -140.7834
   XY=             14.4370   XZ=             -1.7111   YZ=             -1.5071

 Summary of Natural Population Analysis:

                                       Natural Population
                Natural  -----------------------------------------------
    Atom  No    Charge         Core      Valence    Rydberg      Total
 -----------------------------------------------------------------------
      C    1   -0.28796      0.99967     2.28345    0.00484     3.28796
      C    2   -0.08466      0.99965     2.07603    0.00898     3.08466
      N    3   -0.34130      0.99973     2.83013    0.01144     3.84130
      C    4    0.00160      0.99957     1.98659    0.01224     2.99840
      C    5   -0.20772      0.99959     2.19809    0.01004     3.20772
      C    6    0.03172      0.99950     1.95794    0.01084     2.96828
      C    7   -0.11540      0.99951     2.10438    0.01152     3.11540
      C    8    0.02508      0.99960     1.96184    0.01348     2.97492
      N    9   -0.21788      0.99972     2.70672    0.01144     3.71788
      C   10    0.03090      0.99960     1.95549    0.01401     2.96910
      C   11   -0.14479      0.99951     2.13417    0.01111     3.14479
      C   12   -0.08719      0.99946     2.07525    0.01248     3.08719
      C   13    0.07195      0.99950     1.91695    0.01160     2.92805
      C   14   -0.08208      0.99954     2.07201    0.01053     3.08208
      C   15   -0.06643      0.99958     2.05731    0.00953     3.06643
      C   16   -0.15283      0.99958     2.14426    0.00899     3.15283
      C   17    0.08437      0.99957     1.90525    0.01082     2.91563
      N   18   -0.06639      0.99960     2.55390    0.01289     3.56639
      N   19   -0.17977      0.99974     2.66757    0.01246     3.67977
      C   20    0.00983      0.99958     1.97779    0.01281     2.99017
      H   21    0.10033      0.00000     0.39816    0.00151     0.39967
      H   22    0.09479      0.00000     0.40424    0.00097     0.40521
      H   23    0.09593      0.00000     0.40252    0.00155     0.40407
      H   24    0.08785      0.00000     0.41108    0.00107     0.41215
      H   25    0.07492      0.00000     0.42345    0.00162     0.42508
      H   26    0.17759      0.00000     0.31973    0.00268     0.32241
      H   27    0.09204      0.00000     0.40668    0.00128     0.40796
      H   28    0.10943      0.00000     0.38916    0.00141     0.39057
      H   29    0.09615      0.00000     0.40260    0.00125     0.40385
      H   30    0.10944      0.00000     0.38911    0.00146     0.39056
      H   31    0.08529      0.00000     0.41290    0.00182     0.41471
      H   32    0.08216      0.00000     0.41667    0.00117     0.41784
      H   33    0.09672      0.00000     0.40219    0.00109     0.40328
      H   34    0.09575      0.00000     0.40315    0.00110     0.40425
      H   35    0.09089      0.00000     0.40791    0.00120     0.40911
      H   36    0.09697      0.00000     0.40215    0.00088     0.40303
      H   37    0.09618      0.00000     0.40293    0.00089     0.40382
      H   38    0.09651      0.00000     0.40261    0.00088     0.40349
 =======================================================================
   * Total *   -0.00000     19.99177    50.76238    0.24585    71.00000

 Normal termination of Gaussian 16 at Mon Dec 14 15:38:13 2020.
