 Gaussian 16, Revision A.03,

 -----------------------------------------------------------
 # opt freq B3LYP/6-31G(d) empiricaldispersion=gd3bj scf=xqc
 -----------------------------------------------------------

 -----------------------------
 CID_19855195_JID_553_neutraal
 -----------------------------
 Symbolic Z-matrix:
 Charge =  0 Multiplicity = 1

 SCF Done:  E(RB3LYP) =  -407.984658854     A.U. after   12 cycles
 SCF Done:  E(RB3LYP) =  -407.988864001     A.U. after   11 cycles
 SCF Done:  E(RB3LYP) =  -407.989177807     A.U. after   10 cycles
 SCF Done:  E(RB3LYP) =  -407.989197599     A.U. after    8 cycles
 SCF Done:  E(RB3LYP) =  -407.989200331     A.U. after    7 cycles
 SCF Done:  E(RB3LYP) =  -407.989200777     A.U. after    7 cycles
 SCF Done:  E(RB3LYP) =  -407.989200827     A.U. after    6 cycles
 SCF Done:  E(RB3LYP) =  -407.989200862     A.U. after    6 cycles
 SCF Done:  E(RB3LYP) =  -407.989200887     A.U. after    6 cycles
 SCF Done:  E(RB3LYP) =  -407.989200906     A.U. after    6 cycles
 SCF Done:  E(RB3LYP) =  -407.989200917     A.U. after    6 cycles
 Optimization completed.
    -- Stationary point found.

 1\1\GINC-NODE365\FOpt\RB3LYP\6-31G(d)\C9H17N1\VSC10255\08-Dec-2020\0\\
 # opt freq B3LYP/6-31G(d) empiricaldispersion=gd3bj scf=xqc\\CID_19855
 195_JID_553_neutraal\\0,1\C,0.4125620935,1.8773775969,0.3285761999\C,1
 .552966842,0.9627016537,-0.1335771817\C,1.4931175407,-0.4706712794,0.4
 178867409\C,0.5658796338,-1.4247318858,-0.3415390927\C,0.6652860184,-2
 .8812907079,0.1906877615\N,-0.6316359256,-3.5315903306,-0.0312956821\C
 ,-1.5881173159,-2.4487353007,0.2270563389\C,-0.9731730506,-1.129241809
 7,-0.316569837\C,-1.4570395071,0.0956123798,0.4659537055\C,-0.99937495

 Normal termination of Gaussian 16 at Tue Dec  8 12:17:43 2020.

 --------------------------------------------------------------------
 #N Geom=AllCheck Guess=TCheck SCRF=Check GenChk RB3LYP/6-31G(d) Freq
 --------------------------------------------------------------------

 Structure from the checkpoint file:  "JID_553.chk"
 -----------------------------
 CID_19855195_JID_553_neutraal
 -----------------------------
 Charge =  0 Multiplicity = 1

 SCF Done:  E(RB3LYP) =  -407.989200917     A.U. after    1 cycles

  Exact polarizability: 104.761   0.000  97.912   1.604  -0.000  82.837
 Approx polarizability: 129.948   0.000 133.006   2.601  -0.000 133.685

                      1                      2                      3
                      A                      A                      A
 Frequencies --     39.9362               152.1230               231.7048
 Red. masses --      2.3130                 2.6623                 2.1828
 Frc consts  --      0.0022                 0.0363                 0.0690
 IR Inten    --      0.4469                 1.4022                 0.0052

                      4                      5                      6
                      A                      A                      A
 Frequencies --    247.2959               265.2355               320.3236
 Red. masses --      2.2945                 2.6885                 2.6399
 Frc consts  --      0.0827                 0.1114                 0.1596
 IR Inten    --      4.4635                 0.2225                 1.4288

                      7                      8                      9
                      A                      A                      A
 Frequencies --    341.2090               380.7388               410.8093
 Red. masses --      1.6510                 2.6027                 3.3809
 Frc consts  --      0.1132                 0.2223                 0.3362
 IR Inten    --      2.4237                 0.1038                 0.0031

                     10                     11                     12
                      A                      A                      A
 Frequencies --    505.9289               509.2150               604.2175
 Red. masses --      1.5624                 1.9604                 2.4161
 Frc consts  --      0.2356                 0.2995                 0.5197
 IR Inten    --      0.1818                 0.1264                 1.6143

                     13                     14                     15
                      A                      A                      A
 Frequencies --    623.0765               719.8609               815.0002
 Red. masses --      2.5355                 2.5484                 2.8330
 Frc consts  --      0.5800                 0.7781                 1.1087
 IR Inten    --      0.5364                 0.7465                 0.2304

                     16                     17                     18
                      A                      A                      A
 Frequencies --    848.7904               857.4803               873.9660
 Red. masses --      1.5629                 1.6066                 1.5142
 Frc consts  --      0.6634                 0.6960                 0.6814
 IR Inten    --      0.6518                46.8225                87.4342

                     19                     20                     21
                      A                      A                      A
 Frequencies --    878.2188               931.5922               942.8574
 Red. masses --      1.8032                 2.0213                 2.7304
 Frc consts  --      0.8194                 1.0336                 1.4301
 IR Inten    --      0.7115                 1.0893                30.8299

                     22                     23                     24
                      A                      A                      A
 Frequencies --    971.1450              1004.6306              1011.7277
 Red. masses --      2.2806                 2.3035                 2.0432
 Frc consts  --      1.2673                 1.3698                 1.2322
 IR Inten    --      0.2079                 0.0619                 2.5148

                     25                     26                     27
                      A                      A                      A
 Frequencies --   1029.3808              1046.1131              1062.4305
 Red. masses --      1.6370                 1.6258                 2.3438
 Frc consts  --      1.0220                 1.0483                 1.5587
 IR Inten    --      4.9007                13.5029                 3.8182

                     28                     29                     30
                      A                      A                      A
 Frequencies --   1067.6748              1114.0980              1116.2717
 Red. masses --      1.8731                 1.5660                 2.5710
 Frc consts  --      1.2580                 1.1452                 1.8875
 IR Inten    --      0.1659                 1.9298                11.4402

                     31                     32                     33
                      A                      A                      A
 Frequencies --   1129.7325              1167.8229              1173.5190
 Red. masses --      2.0923                 1.5118                 3.2850
 Frc consts  --      1.5733                 1.2148                 2.6654
 IR Inten    --      2.1700                 4.9860                 3.3041

                     34                     35                     36
                      A                      A                      A
 Frequencies --   1239.2398              1244.8871              1249.3818
 Red. masses --      1.2102                 1.3886                 1.3653
 Frc consts  --      1.0950                 1.2679                 1.2557
 IR Inten    --      0.6500                 0.2029                 1.0717

                     37                     38                     39
                      A                      A                      A
 Frequencies --   1299.9018              1302.3466              1323.7634
 Red. masses --      1.2443                 1.2556                 1.1814
 Frc consts  --      1.2388                 1.2548                 1.2198
 IR Inten    --      9.0453                 0.5214                 1.6573

                     40                     41                     42
                      A                      A                      A
 Frequencies --   1325.3037              1343.7856              1364.4844
 Red. masses --      1.3622                 1.2302                 1.2814
 Frc consts  --      1.4097                 1.3088                 1.4056
 IR Inten    --      0.6196                 3.5682                 0.6891

                     43                     44                     45
                      A                      A                      A
 Frequencies --   1373.9850              1374.8718              1400.6661
 Red. masses --      1.1774                 1.2575                 1.3523
 Frc consts  --      1.3096                 1.4005                 1.5631
 IR Inten    --      3.4487                 1.0924                 2.2664

                     46                     47                     48
                      A                      A                      A
 Frequencies --   1407.3288              1408.8282              1415.0214
 Red. masses --      1.4346                 1.4623                 1.4632
 Frc consts  --      1.6740                 1.7100                 1.7262
 IR Inten    --      0.6009                 5.4595                 0.7884

                     49                     50                     51
                      A                      A                      A
 Frequencies --   1415.8763              1420.0364              1484.2964
 Red. masses --      1.3948                 1.5933                 1.1578
 Frc consts  --      1.6474                 1.8929                 1.5029
 IR Inten    --      1.3457                 0.7259                 7.2587

                     52                     53                     54
                      A                      A                      A
 Frequencies --   1511.9318              1513.9430              1515.8199
 Red. masses --      1.0905                 1.0873                 1.0920
 Frc consts  --      1.4687                 1.4683                 1.4783
 IR Inten    --      0.2274                 2.1233                 2.0268

                     55                     56                     57
                      A                      A                      A
 Frequencies --   1519.9145              1525.5413              1530.1080
 Red. masses --      1.0825                 1.0941                 1.0939
 Frc consts  --      1.4734                 1.5002                 1.5090
 IR Inten    --      0.5523                 5.4662                 0.4096

                     58                     59                     60
                      A                      A                      A
 Frequencies --   1536.1058              3008.9210              3016.2662
 Red. masses --      1.0894                 1.0830                 1.0676
 Frc consts  --      1.5145                 5.7767                 5.7224
 IR Inten    --      8.0629                 9.5014                16.8032

                     61                     62                     63
                      A                      A                      A
 Frequencies --   3017.7563              3018.9757              3019.5764
 Red. masses --      1.0616                 1.0620                 1.0650
 Frc consts  --      5.6963                 5.7028                 5.7210
 IR Inten    --      1.1971                28.4070                14.1405

                     64                     65                     66
                      A                      A                      A
 Frequencies --   3022.8099              3028.0809              3029.7561
 Red. masses --      1.0657                 1.0683                 1.0774
 Frc consts  --      5.7372                 5.7712                 5.8272
 IR Inten    --      1.9404                41.7479                 0.8250

                     67                     68                     69
                      A                      A                      A
 Frequencies --   3035.6473              3053.7343              3057.0471
 Red. masses --      1.0763                 1.1015                 1.0990
 Frc consts  --      5.8434                 6.0520                 6.0515
 IR Inten    --     75.6882                64.1531                33.4467

                     70                     71                     72
                      A                      A                      A
 Frequencies --   3060.2800              3062.7134              3069.2090
 Red. masses --      1.0994                 1.0936                 1.1017
 Frc consts  --      6.0662                 6.0439                 6.1148
 IR Inten    --     50.4132                48.2148               151.2675

                     73                     74                     75
                      A                      A                      A
 Frequencies --   3105.2202              3106.9690              3456.6750
 Red. masses --      1.0971                 1.0977                 1.0740
 Frc consts  --      6.2330                 6.2434                 7.5611
 IR Inten    --     51.7878                38.9259                 3.4887

 - Thermochemistry -
 -------------------
 Temperature   298.150 Kelvin.  Pressure   1.00000 Atm.
 Atom     1 has atomic number  6 and mass  12.00000

 Molecular mass:   139.13610 amu.
 Principal axes and moments of inertia in atomic units:
                           1         2         3
     Eigenvalues --   757.441691784.606612346.74957
           X            1.00000   0.00000   0.00229
           Y           -0.00000   1.00000  -0.00000
           Z           -0.00229   0.00000   1.00000
 This molecule is an asymmetric top.
 Rotational symmetry number  1.
 Warning -- assumption of classical behavior for rotation
           may cause significant error
 Rotational temperatures (Kelvin)      0.11435     0.04853     0.03691
 Rotational constants (GHZ):           2.38268     1.01128     0.76904
 Zero-point vibrational energy     667582.8 (Joules/Mol)
                                  159.55613 (Kcal/Mol)
 Warning -- explicit consideration of  12 degrees of freedom as
           vibrations may cause significant error
 Vibrational temperatures:     57.46   218.87   333.37   355.80   381.61
          (Kelvin)            460.87   490.92   547.80   591.06   727.92
                              732.65   869.33   896.47  1035.72  1172.60
                             1221.22  1233.72  1257.44  1263.56  1340.35
                             1356.56  1397.26  1445.44  1455.65  1481.05
                             1505.12  1528.60  1536.15  1602.94  1606.07
                             1625.43  1680.24  1688.43  1782.99  1791.11
                             1797.58  1870.27  1873.79  1904.60  1906.82
                             1933.41  1963.19  1976.86  1978.13  2015.25
                             2024.83  2026.99  2035.90  2037.13  2043.12
                             2135.57  2175.33  2178.23  2180.93  2186.82
                             2194.91  2201.48  2210.11  4329.17  4339.73
                             4341.88  4343.63  4344.50  4349.15  4356.73
                             4359.14  4367.62  4393.64  4398.41  4403.06
                             4406.56  4415.91  4467.72  4470.24  4973.38

 Zero-point correction=                           0.254269 (Hartree/Particle)
 Thermal correction to Energy=                    0.263261
 Thermal correction to Enthalpy=                  0.264205
 Thermal correction to Gibbs Free Energy=         0.220159
 Sum of electronic and zero-point Energies=           -407.734932
 Sum of electronic and thermal Energies=              -407.725940
 Sum of electronic and thermal Enthalpies=            -407.724996
 Sum of electronic and thermal Free Energies=         -407.769042

                     E (Thermal)             CV                S
                      KCal/Mol        Cal/Mol-Kelvin    Cal/Mol-Kelvin
 Total                  165.199             36.761             92.702
 Electronic               0.000              0.000              0.000
 Translational            0.889              2.981             40.703
 Rotational               0.889              2.981             29.541
 Vibrational            163.421             30.800             22.459
 Vibration     1          0.594              1.981              5.262
 Vibration     2          0.619              1.900              2.646
 Vibration     3          0.653              1.792              1.866
 Vibration     4          0.661              1.767              1.750
 Vibration     5          0.671              1.737              1.627
 Vibration     6          0.706              1.635              1.308
 Vibration     7          0.721              1.593              1.206
 Vibration     8          0.750              1.511              1.036
 Vibration     9          0.775              1.447              0.924
 Vibration    10          0.861              1.237              0.643
 Vibration    11          0.864              1.230              0.635
 Vibration    12          0.963              1.023              0.442

 Optimization completed.
    -- Stationary point found.

 1\1\GINC-NODE365\Freq\RB3LYP\6-31G(d)\C9H17N1\VSC10255\08-Dec-2020\0\\
 #N Geom=AllCheck Guess=TCheck SCRF=Check GenChk RB3LYP/6-31G(d) Freq\\
 CID_19855195_JID_553_neutraal\\0,1\C,0.4125620935,1.8773775969,0.32857
 61999\C,1.552966842,0.9627016537,-0.1335771817\C,1.4931175407,-0.47067
 12794,0.4178867409\C,0.5658796338,-1.4247318858,-0.3415390927\C,0.6652
 860184,-2.8812907079,0.1906877615\N,-0.6316359256,-3.5315903306,-0.031
 2956821\C,-1.5881173159,-2.4487353007,0.2270563389\C,-0.9731730506,-1.
 1292418097,-0.316569837\C,-1.4570395071,0.0956123798,0.4659537055\C,-0

 Normal termination of Gaussian 16 at Tue Dec  8 12:26:09 2020.

 ----------------------------------------------------------------------
 # B3LYP/6-311++G(d,p) empiricaldispersion=gd3bj scf=xqc pop=npa geom=c
 heck
 ----------------------------------------------------------------------

 -------------------------------------
 CID_19855195_JID_553_Energie_neutraal
 -------------------------------------
 Structure from the checkpoint file:  "JID_553.chk"
 Charge =  0 Multiplicity = 1

 SCF Done:  E(RB3LYP) =  -408.101854205     A.U. after   13 cycles
 Normal termination of Gaussian 16 at Tue Dec  8 12:30:34 2020.

 ----------------------------------------------------------------------
 # B3LYP/6-311++G(d,p) empiricaldispersion=gd3bj scf=xqc pop=npa geom=c
 heck
 ----------------------------------------------------------------------

 -----------------------------------
 CID_19855195_JID_553_Energie_kation
 -----------------------------------
 Structure from the checkpoint file:  "JID_553.chk"
 Charge =  1 Multiplicity = 2

 SCF Done:  E(UB3LYP) =  -407.791445730     A.U. after   17 cycles
 Normal termination of Gaussian 16 at Tue Dec  8 12:40:25 2020.
 Gaussian 16:  ES64L-G16RevA.03 25-Dec-2016

 ----------------------------------
 CID_19855195_JID_553_Energie_anion
 ----------------------------------
 Structure from the checkpoint file:  "JID_553.chk"
 Charge = -1 Multiplicity = 2

                         Standard orientation:
 ---------------------------------------------------------------------
 Center     Atomic      Atomic             Coordinates (Angstroms)
 Number     Number       Type             X           Y           Z
 ---------------------------------------------------------------------
      1          6           0        2.655474    0.000009    0.189639
      2          6           0        1.961733   -1.299605   -0.235178
      3          6           0        0.556601   -1.502229    0.353718
      4          6           0       -0.573469   -0.783709   -0.390190
      5          6           0       -1.971752   -1.147392    0.181869
      6          7           0       -2.860449   -0.000020   -0.037057
      7          6           0       -1.971795    1.147440    0.181592
      8          6           0       -0.573438    0.783652   -0.390250
      9          6           0        0.556538    1.502170    0.353810
     10          6           0        1.961723    1.299675   -0.235000
     11          1           0        3.678351    0.000043   -0.210419
     12          1           0        2.756617   -0.000069    1.285170
     13          1           0        1.903788   -1.347094   -1.332667
     14          1           0        2.599690   -2.138828    0.071426
     15          1           0        0.555306   -1.209015    1.413243
     16          1           0        0.320853   -2.575522    0.343112
     17          1           0       -0.534148   -1.119692   -1.435302
     18          1           0       -1.890530   -1.311468    1.265977
     19          1           0       -2.393909   -2.058103   -0.254527
     20          1           0       -3.143439   -0.000146   -1.017751
     21          1           0       -1.890658    1.311842    1.265658
     22          1           0       -2.393950    2.058010   -0.255100
     23          1           0       -0.533919    1.119570   -1.435374
     24          1           0        0.555172    1.208873    1.413312
     25          1           0        0.320739    2.575452    0.343268
     26          1           0        2.599633    2.138864    0.071793
     27          1           0        1.903858    1.347348   -1.332486
 ---------------------------------------------------------------------

 SCF Done:  E(UB3LYP) =  -408.084504235     A.U. after   26 cycles

 The electronic state is 2-A.
 Alpha  occ. eigenvalues --  -14.18593 -10.07696 -10.07695 -10.05645 -10.05629
 Alpha  occ. eigenvalues --  -10.05575 -10.05574 -10.05479 -10.05391 -10.05387
 Alpha  occ. eigenvalues --   -0.80897  -0.71195  -0.66040  -0.65096  -0.59874
 Alpha  occ. eigenvalues --   -0.54645  -0.51468  -0.49258  -0.45449  -0.42291
 Alpha  occ. eigenvalues --   -0.40161  -0.36433  -0.34780  -0.33370  -0.32981
 Alpha  occ. eigenvalues --   -0.30861  -0.30123  -0.29747  -0.27219  -0.25687
 Alpha  occ. eigenvalues --   -0.24705  -0.24543  -0.22399  -0.22025  -0.21768
 Alpha  occ. eigenvalues --   -0.19773  -0.19383  -0.19345  -0.12319   0.04896
 Alpha virt. eigenvalues --    0.07059   0.07559   0.08247   0.09222   0.09662
 Alpha virt. eigenvalues --    0.10479   0.10675   0.10911   0.12230   0.12327
 Alpha virt. eigenvalues --    0.13189   0.13636   0.13956   0.14069   0.15026

  Beta  occ. eigenvalues --  -14.18575 -10.07680 -10.07679 -10.05630 -10.05614
  Beta  occ. eigenvalues --  -10.05564 -10.05563 -10.05462 -10.05370 -10.05366
  Beta  occ. eigenvalues --   -0.80858  -0.71160  -0.66009  -0.65051  -0.59833
  Beta  occ. eigenvalues --   -0.54600  -0.51418  -0.49193  -0.45382  -0.42241
  Beta  occ. eigenvalues --   -0.40092  -0.36385  -0.34745  -0.33320  -0.32957
  Beta  occ. eigenvalues --   -0.30829  -0.30081  -0.29710  -0.27175  -0.25640
  Beta  occ. eigenvalues --   -0.24665  -0.24501  -0.22372  -0.21988  -0.21726
  Beta  occ. eigenvalues --   -0.19733  -0.19337  -0.19304  -0.12295
  Beta virt. eigenvalues --    0.07276   0.08114   0.08425   0.08552   0.09975
  Beta virt. eigenvalues --    0.10336   0.10756   0.11198   0.11221   0.12847
  Beta virt. eigenvalues --    0.12911   0.13720   0.13794   0.14140   0.14417

 Mulliken charges and spin densities:
               1          2
     1  C    1.015112  -1.450769
     2  C   -0.547242   0.283152
     3  C   -0.061996  -0.294702
     4  C   -0.028573   0.310303
     5  C    1.035070  -1.794040
     6  N   -0.266965   0.222710
     7  C    1.035196  -1.794101
     8  C   -0.028447   0.310326
     9  C   -0.062517  -0.294285
    10  C   -0.547161   0.282991
    11  H   -0.514944   0.673493
    12  H    0.078202   0.038060
    13  H   -0.027665   0.150594
    14  H   -0.423900   0.585898
    15  H    0.065793   0.047259
    16  H   -0.027912   0.187486
    17  H   -0.349367   0.550026
    18  H    0.068317   0.097312
    19  H   -0.277236   0.434240
    20  H   -0.161910   0.401333
    21  H    0.068378   0.097263
    22  H   -0.277498   0.434501
    23  H   -0.349135   0.549774
    24  H    0.065700   0.047386
    25  H   -0.027766   0.187333
    26  H   -0.423665   0.585660
    27  H   -0.027867   0.150799
 Sum of Mulliken charges =  -1.00000   1.00000

 Dipole moment (field-independent basis, Debye):
    X=             -0.2865    Y=              0.0005    Z=              3.5704  Tot=              3.5818
 Quadrupole moment (field-independent basis, Debye-Ang):
   XX=           -130.7436   YY=           -107.2885   ZZ=            -93.3978
   XY=              0.0013   XZ=             -2.5287   YZ=             -0.0002

 Summary of Natural Population Analysis:

                                       Natural Population
                Natural  -----------------------------------------------
    Atom  No    Charge         Core      Valence    Rydberg      Total
 -----------------------------------------------------------------------
      C    1   -0.18429      0.99962     2.17618    0.00850     3.18429
      C    2   -0.18830      0.99962     2.17999    0.00868     3.18830
      C    3   -0.18991      0.99961     2.18061    0.00968     3.18991
      C    4   -0.11655      0.99958     2.10507    0.01190     3.11655
      C    5   -0.08521      0.99962     2.07348    0.01211     3.08521
      N    6   -0.33583      0.99977     2.82332    0.01275     3.83583
      C    7   -0.08521      0.99962     2.07348    0.01211     3.08521
      C    8   -0.11656      0.99958     2.10507    0.01190     3.11656
      C    9   -0.18991      0.99961     2.18062    0.00968     3.18991
      C   10   -0.18829      0.99962     2.17999    0.00868     3.18829
      H   11    0.09839      0.00000     0.40016    0.00146     0.40161
      H   12    0.08814      0.00000     0.41053    0.00133     0.41186
      H   13    0.09469      0.00000     0.40367    0.00164     0.40531
      H   14    0.09681      0.00000     0.40194    0.00125     0.40319
      H   15    0.09118      0.00000     0.40741    0.00141     0.40882
      H   16    0.09961      0.00000     0.39926    0.00113     0.40039
      H   17    0.09835      0.00000     0.39900    0.00265     0.40165
      H   18    0.08378      0.00000     0.41474    0.00147     0.41622
      H   19    0.09718      0.00000     0.40165    0.00117     0.40282
      H   20    0.17032      0.00000     0.32587    0.00381     0.32968
      H   21    0.08379      0.00000     0.41474    0.00147     0.41621
      H   22    0.09718      0.00000     0.40165    0.00117     0.40282
      H   23    0.09835      0.00000     0.39900    0.00265     0.40165
      H   24    0.09118      0.00000     0.40741    0.00141     0.40882
      H   25    0.09961      0.00000     0.39926    0.00113     0.40039
      H   26    0.09681      0.00000     0.40194    0.00125     0.40319
      H   27    0.09469      0.00000     0.40367    0.00164     0.40531
 =======================================================================
   * Total *    0.00000      9.99624    28.86970    0.13405    39.00000

 Normal termination of Gaussian 16 at Tue Dec  8 12:50:17 2020.
