 Gaussian 16, Revision A.03,

 -----------------------------------------------------------
 # opt freq B3LYP/6-31G(d) empiricaldispersion=gd3bj scf=xqc
 -----------------------------------------------------------

 -----------------------------
 CID_3058916_JID_3016_neutraal
 -----------------------------
 Symbolic Z-matrix:
 Charge =  0 Multiplicity = 1

 SCF Done:  E(RB3LYP) =  -926.816285096     A.U. after   15 cycles
 SCF Done:  E(RB3LYP) =  -926.824670927     A.U. after   13 cycles
 SCF Done:  E(RB3LYP) =  -926.826752110     A.U. after   13 cycles
 SCF Done:  E(RB3LYP) =  -926.827869176     A.U. after   13 cycles
 SCF Done:  E(RB3LYP) =  -926.828163404     A.U. after   12 cycles
 SCF Done:  E(RB3LYP) =  -926.828209587     A.U. after   11 cycles
 SCF Done:  E(RB3LYP) =  -926.828231531     A.U. after   10 cycles
 SCF Done:  E(RB3LYP) =  -926.828238211     A.U. after   10 cycles
 SCF Done:  E(RB3LYP) =  -926.828240729     A.U. after    9 cycles
 SCF Done:  E(RB3LYP) =  -926.828241122     A.U. after    8 cycles
 SCF Done:  E(RB3LYP) =  -926.828241230     A.U. after    8 cycles
 Optimization completed.
    -- Stationary point found.
 Normal termination of Gaussian 16 at Wed Dec  9 22:19:29 2020.

 --------------------------------------------------------------------
 #N Geom=AllCheck Guess=TCheck SCRF=Check GenChk RB3LYP/6-31G(d) Freq
 --------------------------------------------------------------------

 Structure from the checkpoint file:  "JID_3016.chk"
 -----------------------------
 CID_3058916_JID_3016_neutraal
 -----------------------------
 Charge =  0 Multiplicity = 1

 SCF Done:  E(RB3LYP) =  -926.828241230     A.U. after    1 cycles

  Exact polarizability: 227.167   2.751 125.641   1.314   1.049  50.710
 Approx polarizability: 343.609  11.029 242.879   4.124   1.943  80.974

                      1                      2                      3
                      A                      A                      A
 Frequencies --     41.4519                65.6924               107.0941
 Red. masses --      4.8698                 6.8671                 6.2145
 Frc consts  --      0.0049                 0.0175                 0.0420
 IR Inten    --      0.4524                 2.9615                 0.7790

                      4                      5                      6
                      A                      A                      A
 Frequencies --    136.7606               175.2944               212.3316
 Red. masses --      3.5872                 1.6304                 2.4669
 Frc consts  --      0.0395                 0.0295                 0.0655
 IR Inten    --      2.1523                14.2203                11.5933

                      7                      8                      9
                      A                      A                      A
 Frequencies --    233.5532               289.5824               341.0541
 Red. masses --      3.4071                 8.3630                 4.1383
 Frc consts  --      0.1095                 0.4132                 0.2836
 IR Inten    --     15.8271                 0.1830                 0.3823

                     10                     11                     12
                      A                      A                      A
 Frequencies --    409.6483               411.1451               484.2271
 Red. masses --      5.8199                 6.6244                 2.1497
 Frc consts  --      0.5754                 0.6598                 0.2970
 IR Inten    --     32.8280                 1.0375               126.2852

                     13                     14                     15
                      A                      A                      A
 Frequencies --    503.6039               526.4759               567.3740
 Red. masses --      5.8457                 2.5600                 3.2607
 Frc consts  --      0.8735                 0.4181                 0.6184
 IR Inten    --      7.9959               195.7881                 0.7738

                     16                     17                     18
                      A                      A                      A
 Frequencies --    598.3358               641.4701               657.7033
 Red. masses --      3.0651                 6.8949                 6.0852
 Frc consts  --      0.6465                 1.6716                 1.5509
 IR Inten    --      0.4794                 7.1815                11.4015

                     19                     20                     21
                      A                      A                      A
 Frequencies --    709.5273               730.3863               751.9652
 Red. masses --      1.1667                 5.2296                 6.6571
 Frc consts  --      0.3461                 1.6437                 2.2178
 IR Inten    --     56.2642                 5.0446                 1.7368

                     22                     23                     24
                      A                      A                      A
 Frequencies --    770.0947               828.0900               843.4441
 Red. masses --      5.6492                 1.4241                 1.7326
 Frc consts  --      1.9739                 0.5754                 0.7262
 IR Inten    --      1.5084                19.2110                19.9778

                     25                     26                     27
                      A                      A                      A
 Frequencies --    862.3121               871.1493               905.1845
 Red. masses --      4.1523                 4.5186                 1.3157
 Frc consts  --      1.8191                 2.0204                 0.6352
 IR Inten    --     38.3759                21.9481                 0.1595

                     28                     29                     30
                      A                      A                      A
 Frequencies --    974.3498               983.5310              1008.3318
 Red. masses --      1.2966                 6.5334                 2.6301
 Frc consts  --      0.7253                 3.7236                 1.5755
 IR Inten    --      0.0814                 1.3215                62.4787

                     31                     32                     33
                      A                      A                      A
 Frequencies --   1049.6830              1090.1903              1119.5993
 Red. masses --      3.1927                 1.7231                 1.1384
 Frc consts  --      2.0726                 1.2066                 0.8407
 IR Inten    --     25.5681                18.9599                 0.6402

                     34                     35                     36
                      A                      A                      A
 Frequencies --   1166.1332              1208.1287              1252.2275
 Red. masses --      1.3052                 2.6696                 3.0839
 Frc consts  --      1.0457                 2.2957                 2.8492
 IR Inten    --     17.5680                78.3266                 8.1998

                     37                     38                     39
                      A                      A                      A
 Frequencies --   1259.2294              1312.6369              1342.1674
 Red. masses --      2.0256                 2.3285                 2.0745
 Frc consts  --      1.8924                 2.3638                 2.2018
 IR Inten    --      0.5531                14.9550                26.0871

                     40                     41                     42
                      A                      A                      A
 Frequencies --   1369.7355              1387.1928              1408.2341
 Red. masses --      2.1702                 1.5659                 2.7180
 Frc consts  --      2.3990                 1.7754                 3.1758
 IR Inten    --      6.6108                28.1246                11.6897

                     43                     44                     45
                      A                      A                      A
 Frequencies --   1481.6698              1493.4994              1508.4876
 Red. masses --      5.0735                 2.9868                 2.1274
 Frc consts  --      6.5624                 3.9252                 2.8523
 IR Inten    --    188.9717               159.2045                45.4746

                     46                     47                     48
                      A                      A                      A
 Frequencies --   1592.5288              1608.5865              1655.1491
 Red. masses --      4.7947                 4.5369                 6.3943
 Frc consts  --      7.1645                 6.9167                10.3209
 IR Inten    --      2.9367                56.9933                78.5737

                     49                     50                     51
                      A                      A                      A
 Frequencies --   1749.5664              3191.8322              3213.6267
 Red. masses --      1.0612                 1.0895                 1.0903
 Frc consts  --      1.9138                 6.5398                 6.6341
 IR Inten    --     38.3559                14.2304                 7.1219

                     52                     53                     54
                      A                      A                      A
 Frequencies --   3221.2153              3230.5364              3267.8272
 Red. masses --      1.0930                 1.0946                 1.0971
 Frc consts  --      6.6820                 6.7309                 6.9023
 IR Inten    --      7.3711                14.0178                 1.1433

                     55                     56                     57
                      A                      A                      A
 Frequencies --   3426.5466              3506.0463              3595.2379
 Red. masses --      1.0503                 1.0910                 1.0773
 Frc consts  --      7.2658                 7.9016                 8.2042
 IR Inten    --      5.9050                 1.4884                45.3211

 - Thermochemistry -
 -------------------
 Temperature   298.150 Kelvin.  Pressure   1.00000 Atm.
 Atom     1 has atomic number  6 and mass  12.00000

 Molecular mass:   192.04697 amu.
 Principal axes and moments of inertia in atomic units:
                           1         2         3
     Eigenvalues --   759.821435188.645285936.50240
           X            0.99997   0.00706  -0.00042
           Y           -0.00706   0.99997   0.00196
           Z            0.00043  -0.00196   1.00000
 This molecule is an asymmetric top.
 Rotational symmetry number  1.
 Warning -- assumption of classical behavior for rotation
           may cause significant error
 Rotational temperatures (Kelvin)      0.11399     0.01669     0.01459
 Rotational constants (GHZ):           2.37522     0.34783     0.30401
 Zero-point vibrational energy     414797.2 (Joules/Mol)
                                   99.13891 (Kcal/Mol)
 Warning -- explicit consideration of  16 degrees of freedom as
           vibrations may cause significant error
 Vibrational temperatures:     59.64    94.52   154.08   196.77   252.21
          (Kelvin)            305.50   336.03   416.64   490.70   589.39
                              591.55   696.69   724.57   757.48   816.32
                              860.87   922.93   946.29  1020.85  1050.86
                             1081.91  1107.99  1191.44  1213.53  1240.67
                             1253.39  1302.36  1401.87  1415.08  1450.76
                             1510.26  1568.54  1610.85  1677.81  1738.23
                             1801.68  1811.75  1888.59  1931.08  1970.74
                             1995.86  2026.13  2131.79  2148.81  2170.38
                             2291.29  2314.40  2381.39  2517.24  4592.33
                             4623.69  4634.61  4648.02  4701.67  4930.04
                             5044.42  5172.75

 Zero-point correction=                           0.157988 (Hartree/Particle)
 Thermal correction to Energy=                    0.169221
 Thermal correction to Enthalpy=                  0.170165
 Thermal correction to Gibbs Free Energy=         0.119829
 Sum of electronic and zero-point Energies=           -926.670253
 Sum of electronic and thermal Energies=              -926.659020
 Sum of electronic and thermal Enthalpies=            -926.658076
 Sum of electronic and thermal Free Energies=         -926.708412

                     E (Thermal)             CV                S
                      KCal/Mol        Cal/Mol-Kelvin    Cal/Mol-Kelvin
 Total                  106.188             42.772            105.941
 Electronic               0.000              0.000              0.000
 Translational            0.889              2.981             41.663
 Rotational               0.889              2.981             31.526
 Vibrational            104.410             36.811             32.752
 Vibration     1          0.594              1.981              5.188
 Vibration     2          0.597              1.971              4.278
 Vibration     3          0.606              1.944              3.321
 Vibration     4          0.614              1.917              2.849
 Vibration     5          0.627              1.873              2.378
 Vibration     6          0.643              1.822              2.024
 Vibration     7          0.654              1.790              1.851
 Vibration     8          0.686              1.693              1.476
 Vibration     9          0.721              1.593              1.207
 Vibration    10          0.774              1.449              0.928
 Vibration    11          0.775              1.446              0.923
 Vibration    12          0.840              1.285              0.699
 Vibration    13          0.859              1.242              0.649
 Vibration    14          0.881              1.191              0.595
 Vibration    15          0.923              1.102              0.509
 Vibration    16          0.956              1.035              0.453

 Optimization completed.
    -- Stationary point found.
 Normal termination of Gaussian 16 at Wed Dec  9 22:23:32 2020.

 ----------------------------------------------------------------------
 # B3LYP/6-311++G(d,p) empiricaldispersion=gd3bj scf=xqc pop=npa geom=c
 heck
 ----------------------------------------------------------------------

 -------------------------------------
 CID_3058916_JID_3016_Energie_neutraal
 -------------------------------------
 Structure from the checkpoint file:  "JID_3016.chk"
 Charge =  0 Multiplicity = 1

 SCF Done:  E(RB3LYP) =  -927.001398292     A.U. after   16 cycles
 Normal termination of Gaussian 16 at Wed Dec  9 22:25:10 2020.

 ----------------------------------------------------------------------
 # B3LYP/6-311++G(d,p) empiricaldispersion=gd3bj scf=xqc pop=npa geom=c
 heck
 ----------------------------------------------------------------------

 -----------------------------------
 CID_3058916_JID_3016_Energie_kation
 -----------------------------------
 Structure from the checkpoint file:  "JID_3016.chk"
 Charge =  1 Multiplicity = 2

 SCF Done:  E(UB3LYP) =  -926.722917282     A.U. after   25 cycles
 Normal termination of Gaussian 16 at Wed Dec  9 22:28:34 2020.
 Gaussian 16:  ES64L-G16RevA.03 25-Dec-2016

 ----------------------------------------------------------------------
 # B3LYP/6-311++G(d,p) empiricaldispersion=gd3bj scf=xqc pop=npa geom=c
 heck
 ----------------------------------------------------------------------

 ----------------------------------
 CID_3058916_JID_3016_Energie_anion
 ----------------------------------
 Structure from the checkpoint file:  "JID_3016.chk"
 Charge = -1 Multiplicity = 2

                         Standard orientation:
 ---------------------------------------------------------------------
 Center     Atomic      Atomic             Coordinates (Angstroms)
 Number     Number       Type             X           Y           Z
 ---------------------------------------------------------------------
      1          6           0        3.866967    0.785886    0.024465
      2          6           0        3.931998   -0.581629    0.011501
      3         16           0        2.359818   -1.312299   -0.009052
      4          6           0        1.588707    0.258138    0.000403
      5          6           0        2.526475    1.266378    0.018100
      6          6           0        0.133608    0.347300   -0.010336
      7          7           0       -0.530458   -0.813804   -0.028883
      8          7           0       -1.859413   -0.845335   -0.040055
      9          6           0       -2.554040    0.300311   -0.039219
     10          6           0       -1.923362    1.566290   -0.009544
     11          6           0       -0.553658    1.585172    0.003806
     12          7           0       -3.929223    0.197249   -0.094832
     13          7           0       -4.567491   -1.045035    0.127800
     14          1           0        4.738745    1.430460    0.037893
     15          1           0        4.816207   -1.204838    0.012471
     16          1           0        2.271540    2.320356    0.025862
     17          1           0       -2.510204    2.480702   -0.003642
     18          1           0       -0.008302    2.522534    0.026375
     19          1           0       -4.451923    0.970436    0.294974
     20          1           0       -4.531533   -1.554648   -0.755209
     21          1           0       -3.975695   -1.586826    0.762833
 ---------------------------------------------------------------------

 SCF Done:  E(UB3LYP) =  -927.010126406     A.U. after   32 cycles

 The electronic state is 2-A.
 Alpha  occ. eigenvalues --  -88.72320 -14.22404 -14.21451 -14.16848 -14.14555
 Alpha  occ. eigenvalues --  -10.09071 -10.05182 -10.04636 -10.04533 -10.04288
 Alpha  occ. eigenvalues --  -10.03713 -10.02985 -10.02583  -7.80903  -5.77191
 Alpha  occ. eigenvalues --   -5.76826  -5.76519  -0.87768  -0.83568  -0.73608
 Alpha  occ. eigenvalues --   -0.69921  -0.66766  -0.62957  -0.59005  -0.57926
 Alpha  occ. eigenvalues --   -0.50605  -0.49547  -0.42248  -0.41054  -0.40202
 Alpha  occ. eigenvalues --   -0.38496  -0.38083  -0.37710  -0.33588  -0.30837
 Alpha  occ. eigenvalues --   -0.28456  -0.28046  -0.26216  -0.25433  -0.24101
 Alpha  occ. eigenvalues --   -0.23346  -0.20062  -0.19480  -0.16663  -0.16029
 Alpha  occ. eigenvalues --   -0.15757  -0.11835  -0.11329  -0.07059  -0.06766
 Alpha  occ. eigenvalues --    0.04910
 Alpha virt. eigenvalues --    0.08348   0.08841   0.09798   0.09924   0.10371
 Alpha virt. eigenvalues --    0.11153   0.12739   0.13148   0.14718   0.14901
 Alpha virt. eigenvalues --    0.15454   0.15920   0.16550   0.17064   0.17900

  Beta  occ. eigenvalues --  -88.72295 -14.22407 -14.21449 -14.16714 -14.13740
  Beta  occ. eigenvalues --  -10.09036 -10.05112 -10.04576 -10.04311 -10.04309
  Beta  occ. eigenvalues --  -10.03760 -10.02710 -10.02467  -7.80881  -5.77183
  Beta  occ. eigenvalues --   -5.76818  -5.76432  -0.87596  -0.82847  -0.73404
  Beta  occ. eigenvalues --   -0.69615  -0.66416  -0.62568  -0.58790  -0.57520
  Beta  occ. eigenvalues --   -0.49998  -0.49409  -0.41969  -0.40836  -0.40042
  Beta  occ. eigenvalues --   -0.38402  -0.37973  -0.37580  -0.33392  -0.30652
  Beta  occ. eigenvalues --   -0.28270  -0.26754  -0.26081  -0.25298  -0.23504
  Beta  occ. eigenvalues --   -0.23202  -0.19874  -0.18471  -0.16513  -0.15645
  Beta  occ. eigenvalues --   -0.14072  -0.11132  -0.10658  -0.06282  -0.05370
  Beta virt. eigenvalues --    0.08322   0.08817   0.09771   0.10274   0.10453
  Beta virt. eigenvalues --    0.11089   0.11576   0.12728   0.13116   0.14785
  Beta virt. eigenvalues --    0.15430   0.15558   0.15930   0.16531   0.17051

 Mulliken charges and spin densities:
               1          2
     1  C   -0.828271  -0.035685
     2  C    0.002801   0.167743
     3  S   -0.223431   0.040339
     4  C   -0.125542   0.005462
     5  C    0.356193   0.117831
     6  C   -0.017508   0.005788
     7  N   -0.327911   0.407741
     8  N    0.067010   0.016868
     9  C   -0.368696  -0.000281
    10  C   -0.127470   0.293761
    11  C   -0.180911  -0.032942
    12  N   -0.113526  -0.002660
    13  N   -0.360705   0.000079
    14  H    0.089443   0.001659
    15  H    0.186742  -0.010772
    16  H    0.086949  -0.006200
    17  H    0.113946  -0.015386
    18  H    0.077139   0.005559
    19  H    0.221871   0.035438
    20  H    0.247286  -0.001404
    21  H    0.224591   0.007062
 Sum of Mulliken charges =  -1.00000   1.00000

 Dipole moment (field-independent basis, Debye):
    X=             -0.1730    Y=              2.5719    Z=              0.0759  Tot=              2.5788
 Quadrupole moment (field-independent basis, Debye-Ang):
   XX=           -123.8239   YY=            -91.5693   ZZ=            -93.0008
   XY=             -1.9722   XZ=              0.5912   YZ=              0.6707

 Summary of Natural Population Analysis:

                                       Natural Population
                Natural  -----------------------------------------------
    Atom  No    Charge         Core      Valence    Rydberg      Total
 -----------------------------------------------------------------------
      C    1   -0.15050      0.99955     2.14074    0.01022     3.15050
      C    2   -0.17230      0.99956     2.15994    0.01280     3.17230
      S    3    0.22162      4.99943     2.75668    0.02227     7.77838
      C    4   -0.08089      0.99937     2.06805    0.01347     3.08089
      C    5   -0.12079      0.99952     2.11127    0.01000     3.12079
      C    6    0.04836      0.99950     1.93808    0.01405     2.95164
      N    7   -0.00775      0.99968     2.49175    0.01632     3.50775
      N    8   -0.15813      0.99968     2.64261    0.01583     3.65813
      C    9    0.17432      0.99955     1.81221    0.01391     2.82568
      C   10   -0.08646      0.99953     2.07800    0.00894     3.08646
      C   11   -0.09463      0.99953     2.08731    0.00779     3.09463
      N   12   -0.23642      0.99966     2.72053    0.01622     3.73642
      N   13   -0.32589      0.99978     2.81429    0.01181     3.82589
      H   14    0.09441      0.00000     0.40435    0.00124     0.40559
      H   15    0.09588      0.00000     0.40302    0.00110     0.40412
      H   16    0.09529      0.00000     0.40317    0.00153     0.40471
      H   17    0.08917      0.00000     0.40892    0.00191     0.41083
      H   18    0.09342      0.00000     0.40486    0.00172     0.40658
      H   19    0.17644      0.00000     0.32113    0.00243     0.32356
      H   20    0.16961      0.00000     0.32837    0.00202     0.33039
      H   21    0.17525      0.00000     0.32158    0.00317     0.32475
 =======================================================================
   * Total *    0.00003     16.99434    32.81689    0.18875    49.99997

 Normal termination of Gaussian 16 at Wed Dec  9 22:32:43 2020.
