 Gaussian 16, Revision A.03,

 -----------------------------------------------------------
 # opt freq B3LYP/6-31G(d) empiricaldispersion=gd3bj scf=xqc
 -----------------------------------------------------------

 ------------------------------
 CID_136992719_JID_535_neutraal
 ------------------------------
 Symbolic Z-matrix:
 Charge =  0 Multiplicity = 1

 SCF Done:  E(RB3LYP) =  -473.481840517     A.U. after   14 cycles
 SCF Done:  E(RB3LYP) =  -473.482909195     A.U. after   12 cycles
 SCF Done:  E(RB3LYP) =  -473.483210712     A.U. after   11 cycles
 SCF Done:  E(RB3LYP) =  -473.483284395     A.U. after   10 cycles
 SCF Done:  E(RB3LYP) =  -473.483287832     A.U. after    9 cycles
 SCF Done:  E(RB3LYP) =  -473.483289290     A.U. after    9 cycles
 SCF Done:  E(RB3LYP) =  -473.483290073     A.U. after    8 cycles
 SCF Done:  E(RB3LYP) =  -473.483291090     A.U. after    9 cycles
 SCF Done:  E(RB3LYP) =  -473.483291600     A.U. after    9 cycles
 SCF Done:  E(RB3LYP) =  -473.483291996     A.U. after    8 cycles
 SCF Done:  E(RB3LYP) =  -473.483388653     A.U. after    7 cycles
 SCF Done:  E(RB3LYP) =  -473.483388766     A.U. after    9 cycles
 SCF Done:  E(RB3LYP) =  -473.483388804     A.U. after    7 cycles
 SCF Done:  E(RB3LYP) =  -473.483388820     A.U. after    7 cycles
 SCF Done:  E(RB3LYP) =  -473.483388827     A.U. after    7 cycles
 Optimization completed.
    -- Stationary point found.
 Normal termination of Gaussian 16 at Tue Dec  8 12:17:11 2020.

 --------------------------------------------------------------------
 #N Geom=AllCheck Guess=TCheck SCRF=Check GenChk RB3LYP/6-31G(d) Freq
 --------------------------------------------------------------------

 Structure from the checkpoint file:  "JID_535.chk"
 ------------------------------
 CID_136992719_JID_535_neutraal
 ------------------------------
 Charge =  0 Multiplicity = 1

 SCF Done:  E(RB3LYP) =  -473.483388827     A.U. after    1 cycles

  Exact polarizability: 125.318  -7.409  92.021  -0.114  -0.075  43.569
 Approx polarizability: 173.905 -20.025 154.113  -0.072  -0.045  65.065

                      1                      2                      3
                      A                      A                      A
 Frequencies --     16.2007                34.3996                75.9502
 Red. masses --      1.2928                 2.1973                 1.1651
 Frc consts  --      0.0002                 0.0015                 0.0040
 IR Inten    --      0.0782                 0.2503                 0.0009

                      4                      5                      6
                      A                      A                      A
 Frequencies --    126.4749               147.1709               220.1109
 Red. masses --      3.4647                 4.4260                 3.6569
 Frc consts  --      0.0327                 0.0565                 0.1044
 IR Inten    --      7.7153                 1.8537                 2.2685

                      7                      8                      9
                      A                      A                      A
 Frequencies --    330.4759               331.7287               339.7374
 Red. masses --      3.4169                 4.1688                 3.0926
 Frc consts  --      0.2199                 0.2703                 0.2103
 IR Inten    --      1.8621                19.7114                 0.2365

                     10                     11                     12
                      A                      A                      A
 Frequencies --    418.9223               419.8869               489.1157
 Red. masses --      5.1320                 1.4217                 3.7020
 Frc consts  --      0.5306                 0.1477                 0.5218
 IR Inten    --     11.5921                75.4495                12.2206

                     13                     14                     15
                      A                      A                      A
 Frequencies --    537.7233               624.8033               700.1395
 Red. masses --      2.8695                 5.1132                 4.1493
 Frc consts  --      0.4888                 1.1761                 1.1984
 IR Inten    --     21.3879                 0.2676                 2.1418

                     16                     17                     18
                      A                      A                      A
 Frequencies --    726.5534               753.1980               755.4391
 Red. masses --      2.9906                 1.4559                 3.9876
 Frc consts  --      0.9301                 0.4866                 1.3408
 IR Inten    --      3.4494                39.0947                31.9383

                     19                     20                     21
                      A                      A                      A
 Frequencies --    829.1330               926.2814              1009.7261
 Red. masses --      1.3432                 5.1639                 5.9681
 Frc consts  --      0.5440                 2.6104                 3.5851
 IR Inten    --      1.4112                91.5900                70.3386

                     22                     23                     24
                      A                      A                      A
 Frequencies --   1028.5781              1031.3625              1073.3658
 Red. masses --      2.7681                 2.7136                 1.5710
 Frc consts  --      1.7255                 1.7006                 1.0664
 IR Inten    --     55.7049                40.4464                 0.4988

                     25                     26                     27
                      A                      A                      A
 Frequencies --   1077.0778              1098.1502              1161.7852
 Red. masses --      1.5307                 1.2832                 1.3070
 Frc consts  --      1.0462                 0.9117                 1.0394
 IR Inten    --      8.4762                17.7251                 0.6057

                     28                     29                     30
                      A                      A                      A
 Frequencies --   1187.8259              1268.1724              1345.2103
 Red. masses --      2.3320                 2.4116                 4.3291
 Frc consts  --      1.9386                 2.2851                 4.6157
 IR Inten    --      1.5180                95.0822                 6.1389

                     31                     32                     33
                      A                      A                      A
 Frequencies --   1389.3678              1401.9339              1427.6516
 Red. masses --      1.4929                 5.1299                 1.3440
 Frc consts  --      1.6980                 5.9404                 1.6139
 IR Inten    --     53.9353                15.5164                24.4439

                     34                     35                     36
                      A                      A                      A
 Frequencies --   1460.9823              1476.0628              1503.5123
 Red. masses --      3.3631                 1.3179                 1.0439
 Frc consts  --      4.2295                 1.6918                 1.3904
 IR Inten    --     10.0303                 9.5217                 7.0548

                     37                     38                     39
                      A                      A                      A
 Frequencies --   1512.2633              1521.0142              1523.3682
 Red. masses --      1.2211                 1.0459                 1.8609
 Frc consts  --      1.6454                 1.4256                 2.5444
 IR Inten    --     14.3633                10.2818                 2.9381

                     40                     41                     42
                      A                      A                      A
 Frequencies --   1550.4377              1570.7487              1714.5243
 Red. masses --      1.2944                 5.6441                 6.8800
 Frc consts  --      1.8333                 8.2046                11.9159
 IR Inten    --     10.1903                12.6865                 2.7270

                     43                     44                     45
                      A                      A                      A
 Frequencies --   3056.4460              3073.9415              3106.1471
 Red. masses --      1.0416                 1.0323                 1.1004
 Frc consts  --      5.7328                 5.7472                 6.2551
 IR Inten    --     12.7236                47.3679                14.6754

                     46                     47                     48
                      A                      A                      A
 Frequencies --   3143.5445              3167.5765              3194.7769
 Red. masses --      1.1056                 1.1052                 1.0963
 Frc consts  --      6.4373                 6.5334                 6.5929
 IR Inten    --     13.6000                 9.2277                 4.0013

                     49                     50                     51
                      A                      A                      A
 Frequencies --   3271.2920              3291.3795              3764.2163
 Red. masses --      1.0916                 1.1037                 1.0676
 Frc consts  --      6.8827                 7.0443                 8.9128
 IR Inten    --      2.1472                 1.6597                81.7335

 - Thermochemistry -
 -------------------
 Temperature   298.150 Kelvin.  Pressure   1.00000 Atm.
 Atom     1 has atomic number  6 and mass  12.00000

 Molecular mass:   139.07456 amu.
 Principal axes and moments of inertia in atomic units:
                           1         2         3
     Eigenvalues --   560.773552333.815252871.91944
           X            0.99969   0.02479  -0.00006
           Y           -0.02479   0.99969  -0.00010
           Z            0.00006   0.00010   1.00000
 This molecule is an asymmetric top.
 Rotational symmetry number  1.
 Warning -- assumption of classical behavior for rotation
           may cause significant error
 Rotational temperatures (Kelvin)      0.15445     0.03711     0.03016
 Rotational constants (GHZ):           3.21831     0.77330     0.62841
 Zero-point vibrational energy     401980.5 (Joules/Mol)
                                   96.07564 (Kcal/Mol)
 Warning -- explicit consideration of  13 degrees of freedom as
           vibrations may cause significant error
 Vibrational temperatures:     23.31    49.49   109.28   181.97   211.75
          (Kelvin)            316.69   475.48   477.28   488.81   602.74
                              604.12   703.73   773.66   898.95  1007.34
                             1045.35  1083.68  1086.91  1192.94  1332.71
                             1452.77  1479.89  1483.90  1544.33  1549.67
                             1579.99  1671.55  1709.02  1824.62  1935.46
                             1998.99  2017.07  2054.07  2102.03  2123.73
                             2163.22  2175.81  2188.40  2191.79  2230.73
                             2259.96  2466.82  4397.54  4422.72  4469.05
                             4522.86  4557.44  4596.57  4706.66  4735.56
                             5415.87

 Zero-point correction=                           0.153106 (Hartree/Particle)
 Thermal correction to Energy=                    0.163477
 Thermal correction to Enthalpy=                  0.164422
 Thermal correction to Gibbs Free Energy=         0.115011
 Sum of electronic and zero-point Energies=           -473.330283
 Sum of electronic and thermal Energies=              -473.319911
 Sum of electronic and thermal Enthalpies=            -473.318967
 Sum of electronic and thermal Free Energies=         -473.368377

                     E (Thermal)             CV                S
                      KCal/Mol        Cal/Mol-Kelvin    Cal/Mol-Kelvin
 Total                  102.584             36.371            103.992
 Electronic               0.000              0.000              0.000
 Translational            0.889              2.981             40.701
 Rotational               0.889              2.981             29.709
 Vibrational            100.806             30.410             33.582
 Vibration     1          0.593              1.986              7.053
 Vibration     2          0.594              1.983              5.558
 Vibration     3          0.599              1.965              3.993
 Vibration     4          0.611              1.927              2.999
 Vibration     5          0.617              1.906              2.708
 Vibration     6          0.647              1.810              1.958
 Vibration     7          0.713              1.615              1.258
 Vibration     8          0.714              1.612              1.252
 Vibration     9          0.720              1.596              1.213
 Vibration    10          0.782              1.429              0.896
 Vibration    11          0.783              1.427              0.892
 Vibration    12          0.845              1.274              0.686
 Vibration    13          0.893              1.167              0.570

 Optimization completed.
    -- Stationary point found.
 Normal termination of Gaussian 16 at Tue Dec  8 12:21:49 2020.

 ----------------------------------------------------------------------
 # B3LYP/6-311++G(d,p) empiricaldispersion=gd3bj scf=xqc pop=npa geom=c
 heck
 ----------------------------------------------------------------------

 --------------------------------------
 CID_136992719_JID_535_Energie_neutraal
 --------------------------------------
 Structure from the checkpoint file:  "JID_535.chk"
 Charge =  0 Multiplicity = 1

 SCF Done:  E(RB3LYP) =  -473.622711306     A.U. after   14 cycles
 Normal termination of Gaussian 16 at Tue Dec  8 12:24:11 2020.

 ----------------------------------------------------------------------
 # B3LYP/6-311++G(d,p) empiricaldispersion=gd3bj scf=xqc pop=npa geom=c
 heck
 ----------------------------------------------------------------------

 ------------------------------------
 CID_136992719_JID_535_Energie_kation
 ------------------------------------
 Structure from the checkpoint file:  "JID_535.chk"
 Charge =  1 Multiplicity = 2

 SCF Done:  E(UB3LYP) =  -473.323614933     A.U. after   21 cycles
 Normal termination of Gaussian 16 at Tue Dec  8 12:29:59 2020.
 Gaussian 16:  ES64L-G16RevA.03 25-Dec-2016

 ----------------------------------------------------------------------
 # B3LYP/6-311++G(d,p) empiricaldispersion=gd3bj scf=xqc pop=npa geom=c
 heck
 ----------------------------------------------------------------------

 -----------------------------------
 CID_136992719_JID_535_Energie_anion
 -----------------------------------
 Structure from the checkpoint file:  "JID_535.chk"
 Charge = -1 Multiplicity = 2

                         Standard orientation:
 ---------------------------------------------------------------------
 Center     Atomic      Atomic             Coordinates (Angstroms)
 Number     Number       Type             X           Y           Z
 ---------------------------------------------------------------------
      1          6           0        2.230247    1.405802    0.009954
      2          6           0        1.413728    0.138938    0.001453
      3          7           0        1.894892   -1.054390   -0.004793
      4          8           0        3.302793   -1.061662   -0.002524
      5          6           0       -0.051542    0.276214   -0.000406
      6          7           0       -0.881120   -0.779563   -0.001500
      7          7           0       -2.117168   -0.249300   -0.007291
      8          6           0       -2.107624    1.111130   -0.007099
      9          6           0       -0.781901    1.494354   -0.003408
     10          6           0       -3.265606   -1.132795    0.010200
     11          1           0        3.295750    1.183475    0.021552
     12          1           0        1.982657    2.011023    0.889865
     13          1           0        2.002494    2.010180   -0.876025
     14          1           0        3.488500   -2.012866   -0.006521
     15          1           0       -3.023862    1.683676   -0.010591
     16          1           0       -0.397144    2.502760   -0.006341
     17          1           0       -3.209126   -1.826933   -0.832020
     18          1           0       -3.287933   -1.704855    0.942228
     19          1           0       -4.173722   -0.532245   -0.071032
 ---------------------------------------------------------------------

 SCF Done:  E(UB3LYP) =  -473.607998415     A.U. after   33 cycles
 SCF Done:  E(UB3LYP) =  -473.607998415     a.u. after    1 cycles

 The electronic state is 2-A.
 Alpha  occ. eigenvalues --  -19.06497 -14.28989 -14.25350 -14.22146 -10.11544
 Alpha  occ. eigenvalues --  -10.10408 -10.10035 -10.09536 -10.07403 -10.06374
 Alpha  occ. eigenvalues --   -0.98338  -0.94905  -0.78037  -0.72956  -0.68441
 Alpha  occ. eigenvalues --   -0.63559  -0.59824  -0.52237  -0.48395  -0.44469
 Alpha  occ. eigenvalues --   -0.41400  -0.39919  -0.37536  -0.37502  -0.34230
 Alpha  occ. eigenvalues --   -0.33509  -0.31872  -0.30597  -0.29487  -0.29354
 Alpha  occ. eigenvalues --   -0.28937  -0.28154  -0.19350  -0.19096  -0.17409
 Alpha  occ. eigenvalues --   -0.14769  -0.12611   0.04653
 Alpha virt. eigenvalues --    0.06280   0.06778   0.07336   0.08660   0.10011
 Alpha virt. eigenvalues --    0.10349   0.10589   0.11785   0.12562   0.12854
 Alpha virt. eigenvalues --    0.14711   0.15086   0.16307   0.16811   0.17997

  Beta  occ. eigenvalues --  -19.06477 -14.28985 -14.25327 -14.22129 -10.11539
  Beta  occ. eigenvalues --  -10.10350 -10.10004 -10.09535 -10.07380 -10.06361
  Beta  occ. eigenvalues --   -0.98294  -0.94885  -0.77996  -0.72919  -0.68407
  Beta  occ. eigenvalues --   -0.63512  -0.59759  -0.52198  -0.48326  -0.44417
  Beta  occ. eigenvalues --   -0.41335  -0.39874  -0.37498  -0.37457  -0.34184
  Beta  occ. eigenvalues --   -0.33447  -0.31837  -0.30545  -0.29439  -0.29307
  Beta  occ. eigenvalues --   -0.28889  -0.28125  -0.19325  -0.19047  -0.17373
  Beta  occ. eigenvalues --   -0.14731  -0.12553
  Beta virt. eigenvalues --    0.06643   0.06914   0.07785   0.08125   0.09668
  Beta virt. eigenvalues --    0.10609   0.10923   0.10941   0.12715   0.12842
  Beta virt. eigenvalues --    0.13126   0.14982   0.15497   0.16431   0.16809

 Mulliken charges and spin densities:
               1          2
     1  C    0.496465  -1.164697
     2  C    0.373243  -0.160921
     3  N   -0.402341  -0.062646
     4  O    0.022890   0.033759
     5  C    0.549329  -1.058314
     6  N   -0.932900   0.578063
     7  N    0.473611  -0.135576
     8  C    0.098655  -0.264206
     9  C    0.412127  -0.191247
    10  C    1.306479  -1.618103
    11  H    0.076596   0.092467
    12  H   -0.120052   0.271176
    13  H   -0.028223   0.175176
    14  H    0.095559   0.188426
    15  H   -1.588815   1.789183
    16  H   -0.463185   0.644032
    17  H   -0.212408   0.380772
    18  H   -0.357453   0.535448
    19  H   -0.799577   0.967207
 Sum of Mulliken charges =  -1.00000   1.00000

 Dipole moment (field-independent basis, Debye):
    X=              7.8888    Y=             -1.6411    Z=             -0.5774  Tot=              8.0783
 Quadrupole moment (field-independent basis, Debye-Ang):
   XX=           -140.3821   YY=            -96.0990   ZZ=            -82.9104
   XY=              6.1974   XZ=              0.6767   YZ=             -0.1776

 Summary of Natural Population Analysis:

                                       Natural Population
                Natural  -----------------------------------------------
    Atom  No    Charge         Core      Valence    Rydberg      Total
 -----------------------------------------------------------------------
      C    1   -0.31625      0.99963     2.31191    0.00471     3.31625
      C    2    0.10074      0.99958     1.88393    0.01575     2.89926
      N    3   -0.07300      0.99961     2.56031    0.01309     3.57300
      O    4   -0.29128      0.99990     3.28507    0.00631     4.29128
      C    5    0.04307      0.99954     1.94213    0.01526     2.95693
      N    6   -0.13685      0.99970     2.62565    0.01150     3.63685
      N    7   -0.09751      0.99968     2.58435    0.01349     3.59751
      C    8   -0.00104      0.99955     1.98883    0.01265     3.00104
      C    9   -0.15532      0.99953     2.14650    0.00929     3.15532
      C   10   -0.17087      0.99963     2.16255    0.00869     3.17087
      H   11    0.11556      0.00000     0.38315    0.00129     0.38444
      H   12    0.10948      0.00000     0.38901    0.00151     0.39052
      H   13    0.10805      0.00000     0.39063    0.00133     0.39195
      H   14    0.23344      0.00000     0.26241    0.00415     0.26656
      H   15    0.11052      0.00000     0.38364    0.00584     0.38948
      H   16    0.11083      0.00000     0.38779    0.00137     0.38917
      H   17    0.10141      0.00000     0.39719    0.00140     0.39859
      H   18    0.10215      0.00000     0.39611    0.00173     0.39785
      H   19    0.10688      0.00000     0.38813    0.00499     0.39312
 =======================================================================
   * Total *   -0.00000      9.99634    26.86931    0.13436    37.00000

 Normal termination of Gaussian 16 at Tue Dec  8 12:40:08 2020.
