 Gaussian 16, Revision A.03,

 -----------------------------------------------------------
 # opt freq B3LYP/6-31G(d) empiricaldispersion=gd3bj scf=xqc
 -----------------------------------------------------------

 ------------------------------
 CID_57178234_JID_3393_neutraal
 ------------------------------
 Symbolic Z-matrix:
 Charge =  0 Multiplicity = 1

 SCF Done:  E(RB3LYP) =  -642.168503270     A.U. after   14 cycles
 SCF Done:  E(RB3LYP) =  -642.174672804     A.U. after   13 cycles
 SCF Done:  E(RB3LYP) =  -642.174845198     A.U. after   13 cycles
 SCF Done:  E(RB3LYP) =  -642.174536074     A.U. after   13 cycles
 SCF Done:  E(RB3LYP) =  -642.176611725     A.U. after   12 cycles
 SCF Done:  E(RB3LYP) =  -642.177130158     A.U. after   12 cycles
 SCF Done:  E(RB3LYP) =  -642.177594518     A.U. after   12 cycles
 SCF Done:  E(RB3LYP) =  -642.178273196     A.U. after   14 cycles
 SCF Done:  E(RB3LYP) =  -642.179067601     A.U. after   12 cycles
 SCF Done:  E(RB3LYP) =  -642.179986001     A.U. after   13 cycles
 SCF Done:  E(RB3LYP) =  -642.180262607     A.U. after   10 cycles
 SCF Done:  E(RB3LYP) =  -642.180269621     A.U. after   10 cycles
 SCF Done:  E(RB3LYP) =  -642.180273413     A.U. after    9 cycles
 SCF Done:  E(RB3LYP) =  -642.180275388     A.U. after    9 cycles
 SCF Done:  E(RB3LYP) =  -642.180275980     A.U. after    8 cycles
 Optimization completed.
    -- Stationary point found.
 Normal termination of Gaussian 16 at Wed Dec  9 23:07:02 2020.

 --------------------------------------------------------------------
 #N Geom=AllCheck Guess=TCheck SCRF=Check GenChk RB3LYP/6-31G(d) Freq
 --------------------------------------------------------------------

 Structure from the checkpoint file:  "JID_3393.chk"
 ------------------------------
 CID_57178234_JID_3393_neutraal
 ------------------------------
 Charge =  0 Multiplicity = 1

 SCF Done:  E(RB3LYP) =  -642.180275980     A.U. after    1 cycles

  Exact polarizability: 122.579  -1.724  87.851  12.556   8.288  89.990
 Approx polarizability: 177.303  -6.483 146.159  26.202  18.363 153.927

                      1                      2                      3
                      A                      A                      A
 Frequencies --     35.3017                63.9347                96.8528
 Red. masses --      4.6378                 5.0089                 5.3576
 Frc consts  --      0.0034                 0.0121                 0.0296
 IR Inten    --      0.9377                 1.0842                 0.5226

                      4                      5                      6
                      A                      A                      A
 Frequencies --    175.8933               227.1715               229.7195
 Red. masses --      4.3830                 4.3119                 2.3270
 Frc consts  --      0.0799                 0.1311                 0.0723
 IR Inten    --      0.7307                 2.4845                20.1435

                      7                      8                      9
                      A                      A                      A
 Frequencies --    259.8409               273.2678               305.1142
 Red. masses --      1.4610                 2.1090                 2.1490
 Frc consts  --      0.0581                 0.0928                 0.1179
 IR Inten    --     71.3326                14.1707                42.2791

                     10                     11                     12
                      A                      A                      A
 Frequencies --    323.5003               346.8521               362.5704
 Red. masses --      4.7306                 2.4171                 2.7137
 Frc consts  --      0.2917                 0.1713                 0.2102
 IR Inten    --     19.0142                17.2243                29.9802

                     13                     14                     15
                      A                      A                      A
 Frequencies --    375.0877               417.3501               448.5402
 Red. masses --      2.4293                 3.5066                 1.7630
 Frc consts  --      0.2014                 0.3599                 0.2090
 IR Inten    --     57.7514                 4.1995                54.7349

                     16                     17                     18
                      A                      A                      A
 Frequencies --    463.5262               509.7343               560.2152
 Red. masses --      1.3959                 2.1227                 5.2014
 Frc consts  --      0.1767                 0.3250                 0.9618
 IR Inten    --     47.8067                 3.7193                 3.1370

                     19                     20                     21
                      A                      A                      A
 Frequencies --    574.2025               591.9341               641.0506
 Red. masses --      1.8144                 3.6648                 6.9690
 Frc consts  --      0.3525                 0.7566                 1.6873
 IR Inten    --    260.4696                43.0078                14.1861

                     22                     23                     24
                      A                      A                      A
 Frequencies --    652.8869               715.1082               730.7645
 Red. masses --      4.7410                 7.5376                 2.4661
 Frc consts  --      1.1907                 2.2711                 0.7759
 IR Inten    --     25.6356                 4.4201                12.4278

                     25                     26                     27
                      A                      A                      A
 Frequencies --    742.0540               833.4028               896.6514
 Red. masses --      3.6543                 1.7281                 2.8868
 Frc consts  --      1.1856                 0.7072                 1.3675
 IR Inten    --     11.0476                20.4181                67.0612

                     28                     29                     30
                      A                      A                      A
 Frequencies --    944.9703               961.9104               977.5823
 Red. masses --      1.3862                 4.1116                 1.4640
 Frc consts  --      0.7293                 2.2414                 0.8243
 IR Inten    --      0.2526                82.7629                 6.3762

                     31                     32                     33
                      A                      A                      A
 Frequencies --   1004.2736              1005.4537              1039.3630
 Red. masses --      1.8503                 1.5909                 2.8286
 Frc consts  --      1.0995                 0.9476                 1.8003
 IR Inten    --     54.7309                22.7912               139.1777

                     34                     35                     36
                      A                      A                      A
 Frequencies --   1050.5137              1075.2925              1131.6022
 Red. masses --      3.4753                 2.8132                 1.9720
 Frc consts  --      2.2597                 1.9165                 1.4878
 IR Inten    --     31.2365                 2.6380                38.3684

                     37                     38                     39
                      A                      A                      A
 Frequencies --   1158.7255              1161.0800              1225.6179
 Red. masses --      1.6120                 1.6909                 2.5542
 Frc consts  --      1.2752                 1.3431                 2.2605
 IR Inten    --     31.4165                25.4937                57.5609

                     40                     41                     42
                      A                      A                      A
 Frequencies --   1239.7429              1304.4269              1323.8423
 Red. masses --      1.4596                 3.2333                 2.1083
 Frc consts  --      1.3218                 3.2414                 2.1769
 IR Inten    --      3.2395                56.1146               113.2459

                     43                     44                     45
                      A                      A                      A
 Frequencies --   1364.5204              1374.4963              1382.2724
 Red. masses --      1.9693                 1.3644                 1.3033
 Frc consts  --      2.1603                 1.5188                 1.4672
 IR Inten    --     28.2010                19.7290                 2.0777

                     46                     47                     48
                      A                      A                      A
 Frequencies --   1456.7203              1470.6540              1528.6394
 Red. masses --      2.3938                 2.3828                 2.2075
 Frc consts  --      2.9929                 3.0364                 3.0392
 IR Inten    --      0.8114                28.5895                 7.1936

                     49                     50                     51
                      A                      A                      A
 Frequencies --   1634.6687              1642.6372              1651.8393
 Red. masses --      4.8864                 1.2547                 5.4337
 Frc consts  --      7.6931                 1.9947                 8.7353
 IR Inten    --      6.5503                93.8151                10.7444

                     52                     53                     54
                      A                      A                      A
 Frequencies --   1685.9578              1726.1023              3171.3397
 Red. masses --      1.1080                 6.9280                 1.0876
 Frc consts  --      1.8555                12.1617                 6.4446
 IR Inten    --     40.7251                94.9743                35.3871

                     55                     56                     57
                      A                      A                      A
 Frequencies --   3174.4054              3204.7884              3226.9344
 Red. masses --      1.0911                 1.0921                 1.0935
 Frc consts  --      6.4779                 6.6085                 6.7086
 IR Inten    --     10.2246                20.5092                 5.4330

                     58                     59                     60
                      A                      A                      A
 Frequencies --   3469.4040              3554.9855              3571.5023
 Red. masses --      1.0497                 1.0923                 1.0460
 Frc consts  --      7.4441                 8.1330                 7.8613
 IR Inten    --      5.4594                 7.8869                31.8345

                     61                     62                     63
                      A                      A                      A
 Frequencies --   3691.2252              3735.1893              3781.6515
 Red. masses --      1.1010                 1.0657                 1.0679
 Frc consts  --      8.8382                 8.7603                 8.9981
 IR Inten    --     44.5834                24.2140                66.8161

 - Thermochemistry -
 -------------------
 Temperature   298.150 Kelvin.  Pressure   1.00000 Atm.
 Atom     1 has atomic number  6 and mass  12.00000

 Molecular mass:   182.08038 amu.
 Principal axes and moments of inertia in atomic units:
                           1         2         3
     Eigenvalues --  1350.684822976.278483037.68402
           X            0.99987   0.00047   0.01584
           Y           -0.00440   0.96849   0.24900
           Z           -0.01522  -0.24904   0.96837
 This molecule is an asymmetric top.
 Rotational symmetry number  1.
 Warning -- assumption of classical behavior for rotation
           may cause significant error
 Rotational temperatures (Kelvin)      0.06413     0.02910     0.02851
 Rotational constants (GHZ):           1.33617     0.60638     0.59412
 Zero-point vibrational energy     478248.2 (Joules/Mol)
                                  114.30407 (Kcal/Mol)
 Warning -- explicit consideration of  20 degrees of freedom as
           vibrations may cause significant error
 Vibrational temperatures:     50.79    91.99   139.35   253.07   326.85
          (Kelvin)            330.52   373.85   393.17   438.99   465.44
                              499.04   521.66   539.67   600.47   645.35
                              666.91   733.39   806.02   826.15   851.66
                              922.33   939.36  1028.88  1051.41  1067.65
                             1199.08  1290.08  1359.60  1383.97  1406.52
                             1444.93  1446.62  1495.41  1511.45  1547.11
                             1628.12  1667.15  1670.54  1763.39  1783.71
                             1876.78  1904.71  1963.24  1977.59  1988.78
                             2095.90  2115.94  2199.37  2351.92  2363.39
                             2376.63  2425.72  2483.48  4562.85  4567.26
                             4610.98  4642.84  4991.70  5114.83  5138.60
                             5310.85  5374.10  5440.95

 Zero-point correction=                           0.182155 (Hartree/Particle)
 Thermal correction to Energy=                    0.194519
 Thermal correction to Enthalpy=                  0.195464
 Thermal correction to Gibbs Free Energy=         0.143782
 Sum of electronic and zero-point Energies=           -641.998121
 Sum of electronic and thermal Energies=              -641.985757
 Sum of electronic and thermal Enthalpies=            -641.984812
 Sum of electronic and thermal Free Energies=         -642.036494

                     E (Thermal)             CV                S
                      KCal/Mol        Cal/Mol-Kelvin    Cal/Mol-Kelvin
 Total                  122.063             47.787            108.773
 Electronic               0.000              0.000              0.000
 Translational            0.889              2.981             41.504
 Rotational               0.889              2.981             30.880
 Vibrational            120.285             41.825             36.388
 Vibration     1          0.594              1.982              5.507
 Vibration     2          0.597              1.972              4.332
 Vibration     3          0.603              1.951              3.517
 Vibration     4          0.628              1.872              2.372
 Vibration     5          0.651              1.800              1.901
 Vibration     6          0.652              1.796              1.881
 Vibration     7          0.668              1.746              1.663
 Vibration     8          0.676              1.723              1.575
 Vibration     9          0.696              1.664              1.389
 Vibration    10          0.708              1.628              1.292
 Vibration    11          0.725              1.582              1.180
 Vibration    12          0.736              1.549              1.111
 Vibration    13          0.746              1.523              1.059
 Vibration    14          0.780              1.433              0.901
 Vibration    15          0.808              1.364              0.800
 Vibration    16          0.821              1.331              0.756
 Vibration    17          0.865              1.228              0.634
 Vibration    18          0.916              1.117              0.523
 Vibration    19          0.931              1.087              0.496
 Vibration    20          0.949              1.049              0.464

 Optimization completed.
    -- Stationary point found.
 Normal termination of Gaussian 16 at Wed Dec  9 23:12:34 2020.

 ----------------------------------------------------------------------
 # B3LYP/6-311++G(d,p) empiricaldispersion=gd3bj scf=xqc pop=npa geom=c
 heck
 ----------------------------------------------------------------------

 --------------------------------------
 CID_57178234_JID_3393_Energie_neutraal
 --------------------------------------
 Structure from the checkpoint file:  "JID_3393.chk"
 Charge =  0 Multiplicity = 1

 SCF Done:  E(RB3LYP) =  -642.390217358     A.U. after   16 cycles
 Normal termination of Gaussian 16 at Wed Dec  9 23:14:28 2020.

 ----------------------------------------------------------------------
 # B3LYP/6-311++G(d,p) empiricaldispersion=gd3bj scf=xqc pop=npa geom=c
 heck
 ----------------------------------------------------------------------

 ------------------------------------
 CID_57178234_JID_3393_Energie_kation
 ------------------------------------
 Structure from the checkpoint file:  "JID_3393.chk"
 Charge =  1 Multiplicity = 2

 SCF Done:  E(UB3LYP) =  -642.085535200     A.U. after   27 cycles
 Normal termination of Gaussian 16 at Wed Dec  9 23:18:47 2020.
 Gaussian 16:  ES64L-G16RevA.03 25-Dec-2016

 ----------------------------------------------------------------------
 # B3LYP/6-311++G(d,p) empiricaldispersion=gd3bj scf=xqc pop=npa geom=c
 heck
 ----------------------------------------------------------------------

 -----------------------------------
 CID_57178234_JID_3393_Energie_anion
 -----------------------------------
 Structure from the checkpoint file:  "JID_3393.chk"
 Charge = -1 Multiplicity = 2

                         Standard orientation:
 ---------------------------------------------------------------------
 Center     Atomic      Atomic             Coordinates (Angstroms)
 Number     Number       Type             X           Y           Z
 ---------------------------------------------------------------------
      1          6           0        2.911255    0.531994    0.576678
      2          6           0        1.583375    0.944629    0.676511
      3          6           0        0.617433    0.290708   -0.086199
      4          6           0        1.042684   -0.741636   -0.929703
      5          7           0        2.309607   -1.148589   -1.038606
      6          6           0        3.222195   -0.515080   -0.288825
      7          6           0       -0.841802    0.737905   -0.106618
      8          6           0       -1.789585   -0.472859   -0.157461
      9          7           0       -1.848474   -1.395635    0.740543
     10          8           0       -0.940654   -1.116789    1.812824
     11          7           0       -2.697005   -0.502215   -1.192147
     12          7           0       -1.129295    1.615589    1.023198
     13          8           0       -1.086210    1.472606   -1.304803
     14          1           0        3.691140    1.013163    1.159284
     15          1           0        1.291097    1.757757    1.332054
     16          1           0        0.318051   -1.270000   -1.546740
     17          1           0        4.248537   -0.863605   -0.389439
     18          1           0       -1.007257   -1.929104    2.335176
     19          1           0       -2.403607   -0.033802   -2.037626
     20          1           0       -3.184103   -1.381115   -1.312425
     21          1           0       -2.101738    1.909797    0.939792
     22          1           0       -1.054693    1.066694    1.880001
     23          1           0       -0.499669    2.245667   -1.261462
 ---------------------------------------------------------------------

 SCF Done:  E(UB3LYP) =  -642.376751596     A.U. after   33 cycles
 SCF Done:  E(UB3LYP) =  -642.376751596     a.u. after    1 cycles

 The electronic state is 2-A.
 Alpha  occ. eigenvalues --  -19.05154 -19.02768 -14.22940 -14.21393 -14.19499
 Alpha  occ. eigenvalues --  -14.18813 -10.16802 -10.13289 -10.08841 -10.08363
 Alpha  occ. eigenvalues --  -10.06718 -10.06583 -10.06357  -0.96510  -0.94295
 Alpha  occ. eigenvalues --   -0.82872  -0.82438  -0.78184  -0.71409  -0.68901
 Alpha  occ. eigenvalues --   -0.65345  -0.57838  -0.52001  -0.50687  -0.46709
 Alpha  occ. eigenvalues --   -0.44525  -0.42743  -0.40291  -0.38518  -0.37250
 Alpha  occ. eigenvalues --   -0.36942  -0.36155  -0.33813  -0.32930  -0.32564
 Alpha  occ. eigenvalues --   -0.30123  -0.28510  -0.27945  -0.27406  -0.24701
 Alpha  occ. eigenvalues --   -0.22696  -0.20340  -0.18888  -0.17179  -0.15158
 Alpha  occ. eigenvalues --   -0.14310  -0.14195  -0.11241   0.04973
 Alpha virt. eigenvalues --    0.07090   0.07605   0.07951   0.08410   0.09028
 Alpha virt. eigenvalues --    0.09525   0.09927   0.11088   0.11910   0.12272
 Alpha virt. eigenvalues --    0.12665   0.13861   0.15596   0.16250   0.16688

  Beta  occ. eigenvalues --  -19.05146 -19.02718 -14.22901 -14.21340 -14.19467
  Beta  occ. eigenvalues --  -14.18706 -10.16792 -10.13279 -10.08859 -10.08245
  Beta  occ. eigenvalues --  -10.06649 -10.06613 -10.06217  -0.96478  -0.94192
  Beta  occ. eigenvalues --   -0.82807  -0.82256  -0.78120  -0.71339  -0.68681
  Beta  occ. eigenvalues --   -0.65210  -0.57715  -0.51942  -0.50438  -0.46626
  Beta  occ. eigenvalues --   -0.44460  -0.42675  -0.40192  -0.38439  -0.37182
  Beta  occ. eigenvalues --   -0.36875  -0.36070  -0.33748  -0.32870  -0.32507
  Beta  occ. eigenvalues --   -0.29984  -0.28406  -0.27766  -0.27137  -0.24632
  Beta  occ. eigenvalues --   -0.22645  -0.20219  -0.18802  -0.16608  -0.15066
  Beta  occ. eigenvalues --   -0.14102  -0.13900  -0.11134
  Beta virt. eigenvalues --    0.07315   0.08058   0.08308   0.08724   0.09013
  Beta virt. eigenvalues --    0.09297   0.10016   0.10311   0.11319   0.12464
  Beta virt. eigenvalues --    0.12710   0.13060   0.14180   0.15475   0.16279

 Mulliken charges and spin densities:
               1          2
     1  C    0.272852  -0.614860
     2  C   -1.041655   1.334513
     3  C   -1.227141   2.237799
     4  C   -0.421120  -0.398899
     5  N   -0.123607   0.125571
     6  C   -0.008578  -0.294386
     7  C    4.954059  -5.865995
     8  C   -0.980845   0.999842
     9  N   -0.319870  -0.031506
    10  O   -0.167417  -0.002408
    11  N   -0.325711   0.086191
    12  N   -0.537215   0.222742
    13  O   -0.287962   0.087156
    14  H   -0.401564   0.566025
    15  H   -0.210467   0.418681
    16  H   -0.110441   0.313197
    17  H    0.021462   0.123657
    18  H    0.193917   0.091377
    19  H    0.019783   0.259200
    20  H   -0.460624   0.734768
    21  H    0.021666   0.254760
    22  H    0.080547   0.154467
    23  H    0.059928   0.198108
 Sum of Mulliken charges =  -1.00000   1.00000

 Dipole moment (field-independent basis, Debye):
    X=              0.9827    Y=              0.2092    Z=              2.5218  Tot=              2.7146
 Quadrupole moment (field-independent basis, Debye-Ang):
   XX=           -128.2695   YY=           -105.1636   ZZ=           -106.4158
   XY=             -2.1737   XZ=             -5.8095   YZ=             -7.6630

 Summary of Natural Population Analysis:

                                       Natural Population
                Natural  -----------------------------------------------
    Atom  No    Charge         Core      Valence    Rydberg      Total
 -----------------------------------------------------------------------
      C    1   -0.13070      0.99956     2.12134    0.00980     3.13070
      C    2   -0.06036      0.99950     2.04999    0.01087     3.06036
      C    3   -0.03833      0.99946     2.02573    0.01314     3.03833
      C    4    0.03511      0.99952     1.95228    0.01309     2.96489
      N    5   -0.22499      0.99971     2.71345    0.01183     3.72499
      C    6    0.04029      0.99959     1.94601    0.01411     2.95971
      C    7    0.19403      0.99950     1.78663    0.01985     2.80597
      C    8    0.19235      0.99956     1.78531    0.02279     2.80765
      N    9   -0.13606      0.99959     2.62185    0.01462     3.63606
      O   10   -0.29922      0.99990     3.29319    0.00613     4.29922
      N   11   -0.39253      0.99969     2.88246    0.01037     3.89253
      N   12   -0.42777      0.99976     2.91756    0.01046     3.92777
      O   13   -0.37403      0.99989     3.36716    0.00699     4.37403
      H   14    0.10008      0.00000     0.39888    0.00105     0.39992
      H   15    0.10882      0.00000     0.38949    0.00169     0.39118
      H   16    0.09127      0.00000     0.40634    0.00239     0.40873
      H   17    0.08395      0.00000     0.41493    0.00112     0.41605
      H   18    0.23402      0.00000     0.26270    0.00327     0.26598
      H   19    0.20247      0.00000     0.29359    0.00394     0.29753
      H   20    0.19186      0.00000     0.30273    0.00540     0.30814
      H   21    0.18031      0.00000     0.31754    0.00215     0.31969
      H   22    0.19172      0.00000     0.30563    0.00265     0.30828
      H   23    0.23772      0.00000     0.25882    0.00346     0.26228
 =======================================================================
   * Total *   -0.00000     12.99523    34.81361    0.19116    48.00000

 Normal termination of Gaussian 16 at Wed Dec  9 23:24:11 2020.
