 Gaussian 16, Revision A.03,

 -----------------------------------------------------------
 # opt freq B3LYP/6-31G(d) empiricaldispersion=gd3bj scf=xqc
 -----------------------------------------------------------

 ------------------------------
 CID_54192266_JID_1547_neutraal
 ------------------------------
 Symbolic Z-matrix:
 Charge =  0 Multiplicity = 1

 SCF Done:  E(RB3LYP) =  -536.349957303     A.U. after   14 cycles
 SCF Done:  E(RB3LYP) =  -536.352812888     A.U. after   12 cycles
 SCF Done:  E(RB3LYP) =  -536.353385904     A.U. after   11 cycles
 SCF Done:  E(RB3LYP) =  -536.353446138     A.U. after   11 cycles
 SCF Done:  E(RB3LYP) =  -536.353576055     A.U. after   10 cycles
 SCF Done:  E(RB3LYP) =  -536.353619937     A.U. after   10 cycles
 SCF Done:  E(RB3LYP) =  -536.353656121     A.U. after   11 cycles
 SCF Done:  E(RB3LYP) =  -536.353668403     A.U. after   10 cycles
 SCF Done:  E(RB3LYP) =  -536.353686138     A.U. after   11 cycles
 SCF Done:  E(RB3LYP) =  -536.353697390     A.U. after   10 cycles
 SCF Done:  E(RB3LYP) =  -536.354627606     A.U. after   10 cycles
 SCF Done:  E(RB3LYP) =  -536.354644307     A.U. after   10 cycles
 SCF Done:  E(RB3LYP) =  -536.354645965     A.U. after    8 cycles
 SCF Done:  E(RB3LYP) =  -536.354646543     A.U. after    8 cycles
 SCF Done:  E(RB3LYP) =  -536.354646622     A.U. after    8 cycles
 SCF Done:  E(RB3LYP) =  -536.354646655     A.U. after    7 cycles
 Optimization completed.
    -- Stationary point found.
 Normal termination of Gaussian 16 at Tue Dec  8 19:57:41 2020.

 --------------------------------------------------------------------
 #N Geom=AllCheck Guess=TCheck SCRF=Check GenChk RB3LYP/6-31G(d) Freq
 --------------------------------------------------------------------

 Structure from the checkpoint file:  "JID_1547.chk"
 ------------------------------
 CID_54192266_JID_1547_neutraal
 ------------------------------
 Charge =  0 Multiplicity = 1

 SCF Done:  E(RB3LYP) =  -536.354646655     A.U. after    1 cycles

  Exact polarizability: 115.413  -1.001  90.285   1.481   4.908  79.929
 Approx polarizability: 135.617   7.111 136.149   4.296  10.260 117.223

                      1                      2                      3
                      A                      A                      A
 Frequencies --     25.8370                50.6280                60.6927
 Red. masses --      4.7836                 2.8882                 3.8824
 Frc consts  --      0.0019                 0.0044                 0.0084
 IR Inten    --      1.0407                 1.0683                 1.5538

                      4                      5                      6
                      A                      A                      A
 Frequencies --     80.0343               104.6940               137.6101
 Red. masses --      3.8007                 5.5007                 2.9548
 Frc consts  --      0.0143                 0.0355                 0.0330
 IR Inten    --      1.1634                 1.2235                 8.5226

                      7                      8                      9
                      A                      A                      A
 Frequencies --    149.0501               215.9600               220.8665
 Red. masses --      1.1815                 3.1807                 1.3069
 Frc consts  --      0.0155                 0.0874                 0.0376
 IR Inten    --      1.4436                 1.3436                 0.5012

                     10                     11                     12
                      A                      A                      A
 Frequencies --    244.3444               278.7099               297.2234
 Red. masses --      1.8297                 1.8534                 1.2800
 Frc consts  --      0.0644                 0.0848                 0.0666
 IR Inten    --      3.1100                 2.2306               138.8856

                     13                     14                     15
                      A                      A                      A
 Frequencies --    323.4170               392.7512               437.5934
 Red. masses --      2.9793                 1.9841                 2.5969
 Frc consts  --      0.1836                 0.1803                 0.2930
 IR Inten    --     47.5761                 8.7762                 2.9096

                     16                     17                     18
                      A                      A                      A
 Frequencies --    468.7142               528.0855               555.3000
 Red. masses --      2.1353                 2.7933                 3.2931
 Frc consts  --      0.2764                 0.4590                 0.5983
 IR Inten    --      1.5710                 0.6094                31.2454

                     19                     20                     21
                      A                      A                      A
 Frequencies --    575.9231               594.7675               709.1874
 Red. masses --      2.4894                 2.2568                 1.2381
 Frc consts  --      0.4865                 0.4704                 0.3669
 IR Inten    --      0.5724                 4.2173                75.0570

                     22                     23                     24
                      A                      A                      A
 Frequencies --    764.5024               818.9604               875.3901
 Red. masses --      2.5913                 2.8429                 2.5877
 Frc consts  --      0.8923                 1.1234                 1.1683
 IR Inten    --     19.0310                 2.2072                15.7956

                     25                     26                     27
                      A                      A                      A
 Frequencies --    903.6755               943.0948              1000.8424
 Red. masses --      1.8840                 1.9927                 2.0150
 Frc consts  --      0.9065                 1.0442                 1.1892
 IR Inten    --      3.3063                11.8062                 0.8673

                     28                     29                     30
                      A                      A                      A
 Frequencies --   1040.8850              1063.6660              1066.1827
 Red. masses --      1.6012                 1.7472                 2.2402
 Frc consts  --      1.0221                 1.1647                 1.5004
 IR Inten    --     40.1523                 3.3866                53.0044

                     31                     32                     33
                      A                      A                      A
 Frequencies --   1075.2667              1085.9300              1104.5015
 Red. masses --      2.0707                 1.9482                 2.6172
 Frc consts  --      1.4106                 1.3536                 1.8812
 IR Inten    --     14.3720                11.0685                68.6940

                     34                     35                     36
                      A                      A                      A
 Frequencies --   1153.1446              1179.9531              1181.8811
 Red. masses --      1.6808                 1.5282                 2.4358
 Frc consts  --      1.3168                 1.2536                 2.0047
 IR Inten    --     21.0754                15.8481                14.8174

                     37                     38                     39
                      A                      A                      A
 Frequencies --   1230.3408              1251.5883              1283.7312
 Red. masses --      1.2840                 1.4579                 1.3941
 Frc consts  --      1.1452                 1.3455                 1.3536
 IR Inten    --     28.7033                 2.4730                24.7917

                     40                     41                     42
                      A                      A                      A
 Frequencies --   1339.9950              1350.0857              1370.8459
 Red. masses --      1.6006                 1.5551                 1.5598
 Frc consts  --      1.6933                 1.6701                 1.7270
 IR Inten    --     15.0669               104.4997                21.0177

                     43                     44                     45
                      A                      A                      A
 Frequencies --   1403.8446              1407.8598              1413.8290
 Red. masses --      1.3365                 1.3427                 1.1746
 Frc consts  --      1.5519                 1.5680                 1.3833
 IR Inten    --      2.9808                19.1442                27.9932

                     46                     47                     48
                      A                      A                      A
 Frequencies --   1426.2675              1430.3836              1432.5375
 Red. masses --      1.4380                 1.4638                 1.3867
 Frc consts  --      1.7235                 1.7646                 1.6767
 IR Inten    --     50.4424                34.2226                19.5042

                     49                     50                     51
                      A                      A                      A
 Frequencies --   1481.7305              1488.7677              1497.8073
 Red. masses --      1.4223                 1.3171                 1.2187
 Frc consts  --      1.8399                 1.7199                 1.6109
 IR Inten    --     65.3799                97.9732                22.0167

                     52                     53                     54
                      A                      A                      A
 Frequencies --   1501.8192              1513.2258              1516.1748
 Red. masses --      1.0682                 1.0626                 1.0561
 Frc consts  --      1.4195                 1.4336                 1.4304
 IR Inten    --      9.7352                 4.2739                10.7801

                     55                     56                     57
                      A                      A                      A
 Frequencies --   1521.1197              1528.0551              1545.6763
 Red. masses --      1.0822                 1.1001                 1.0613
 Frc consts  --      1.4753                 1.5134                 1.4939
 IR Inten    --      4.4492                 9.4937                 6.3509

                     58                     59                     60
                      A                      A                      A
 Frequencies --   1550.3911              1795.6506              2925.1897
 Red. masses --      1.0840                 8.4896                 1.0732
 Frc consts  --      1.5351                16.1281                 5.4106
 IR Inten    --     14.3572               420.7028                89.2274

                     61                     62                     63
                      A                      A                      A
 Frequencies --   2951.5232              2995.2062              3017.2059
 Red. masses --      1.0617                 1.0735                 1.0679
 Frc consts  --      5.4492                 5.6740                 5.7278
 IR Inten    --     87.0275                61.4800                54.1396

                     64                     65                     66
                      A                      A                      A
 Frequencies --   3036.1853              3053.5026              3087.4681
 Red. masses --      1.0653                 1.0398                 1.0734
 Frc consts  --      5.7861                 5.7119                 6.0289
 IR Inten    --     32.9881                 6.1076                26.4771

                     67                     68                     69
                      A                      A                      A
 Frequencies --   3088.9648              3090.5118              3098.9623
 Red. masses --      1.0871                 1.0943                 1.1003
 Frc consts  --      6.1114                 6.1582                 6.2259
 IR Inten    --     35.4512                30.2161                33.9810

                     70                     71                     72
                      A                      A                      A
 Frequencies --   3111.5231              3119.6595              3130.8319
 Red. masses --      1.1005                 1.0888                 1.1038
 Frc consts  --      6.2777                 6.2431                 6.3747
 IR Inten    --     14.4122                25.9349                25.1312

                     73                     74                     75
                      A                      A                      A
 Frequencies --   3178.6896              3559.8310              3772.2794
 Red. masses --      1.0998                 1.0751                 1.0663
 Frc consts  --      6.5475                 8.0269                 8.9404
 IR Inten    --     10.3242                72.4716                10.3871

 - Thermochemistry -
 -------------------
 Temperature   298.150 Kelvin.  Pressure   1.00000 Atm.
 Atom     1 has atomic number  6 and mass  12.00000

 Molecular mass:   160.12118 amu.
 Principal axes and moments of inertia in atomic units:
                           1         2         3
     Eigenvalues --   758.398064221.303964371.08148
           X            0.99971  -0.02400  -0.00193
           Y            0.02400   0.99971  -0.00010
           Z            0.00193   0.00005   1.00000
 This molecule is an asymmetric top.
 Rotational symmetry number  1.
 Warning -- assumption of classical behavior for rotation
           may cause significant error
 Rotational temperatures (Kelvin)      0.11421     0.02052     0.01982
 Rotational constants (GHZ):           2.37968     0.42753     0.41288
 Zero-point vibrational energy     629286.7 (Joules/Mol)
                                  150.40314 (Kcal/Mol)
 Warning -- explicit consideration of  20 degrees of freedom as
           vibrations may cause significant error
 Vibrational temperatures:     37.17    72.84    87.32   115.15   150.63
          (Kelvin)            197.99   214.45   310.72   317.78   351.56
                              401.00   427.64   465.32   565.08   629.60
                              674.38   759.80   798.95   828.62   855.74
                             1020.36  1099.95  1178.30  1259.49  1300.19
                             1356.90  1439.99  1497.60  1530.38  1534.00
                             1547.07  1562.41  1589.13  1659.12  1697.69
                             1700.46  1770.19  1800.76  1847.00  1927.95
                             1942.47  1972.34  2019.82  2025.60  2034.18
                             2052.08  2058.00  2061.10  2131.88  2142.00
                             2155.01  2160.78  2177.19  2181.44  2188.55
                             2198.53  2223.88  2230.67  2583.54  4208.70
                             4246.58  4309.43  4341.09  4368.39  4393.31
                             4442.18  4444.33  4446.56  4458.72  4476.79
                             4488.49  4504.57  4573.43  5121.80  5427.47

 Zero-point correction=                           0.239683 (Hartree/Particle)
 Thermal correction to Energy=                    0.253092
 Thermal correction to Enthalpy=                  0.254036
 Thermal correction to Gibbs Free Energy=         0.198419
 Sum of electronic and zero-point Energies=           -536.114964
 Sum of electronic and thermal Energies=              -536.101554
 Sum of electronic and thermal Enthalpies=            -536.100610
 Sum of electronic and thermal Free Energies=         -536.156227

                     E (Thermal)             CV                S
                      KCal/Mol        Cal/Mol-Kelvin    Cal/Mol-Kelvin
 Total                  158.818             47.396            117.056
 Electronic               0.000              0.000              0.000
 Translational            0.889              2.981             41.121
 Rotational               0.889              2.981             31.015
 Vibrational            157.040             41.434             44.919
 Vibration     1          0.593              1.985              6.126
 Vibration     2          0.595              1.977              4.793
 Vibration     3          0.597              1.973              4.435
 Vibration     4          0.600              1.963              3.890
 Vibration     5          0.605              1.945              3.365
 Vibration     6          0.614              1.916              2.837
 Vibration     7          0.618              1.904              2.684
 Vibration     8          0.645              1.817              1.993
 Vibration     9          0.648              1.809              1.952
 Vibration    10          0.660              1.772              1.771
 Vibration    11          0.679              1.713              1.542
 Vibration    12          0.691              1.679              1.432
 Vibration    13          0.708              1.629              1.293
 Vibration    14          0.760              1.486              0.990
 Vibration    15          0.798              1.388              0.834
 Vibration    16          0.826              1.319              0.741
 Vibration    17          0.883              1.188              0.591
 Vibration    18          0.911              1.128              0.533
 Vibration    19          0.932              1.083              0.493
 Vibration    20          0.952              1.043              0.459

 Optimization completed.
    -- Stationary point found.
 Normal termination of Gaussian 16 at Tue Dec  8 20:03:13 2020.

 ----------------------------------------------------------------------
 # B3LYP/6-311++G(d,p) empiricaldispersion=gd3bj scf=xqc pop=npa geom=c
 heck
 ----------------------------------------------------------------------

 --------------------------------------
 CID_54192266_JID_1547_Energie_neutraal
 --------------------------------------
 Structure from the checkpoint file:  "JID_1547.chk"
 Charge =  0 Multiplicity = 1

 SCF Done:  E(RB3LYP) =  -536.527966036     A.U. after   13 cycles
 Normal termination of Gaussian 16 at Tue Dec  8 20:05:37 2020.

 ----------------------------------------------------------------------
 # B3LYP/6-311++G(d,p) empiricaldispersion=gd3bj scf=xqc pop=npa geom=c
 heck
 ----------------------------------------------------------------------

 ------------------------------------
 CID_54192266_JID_1547_Energie_kation
 ------------------------------------
 Structure from the checkpoint file:  "JID_1547.chk"
 Charge =  1 Multiplicity = 2

 SCF Done:  E(UB3LYP) =  -536.227259729     A.U. after   24 cycles
 Normal termination of Gaussian 16 at Tue Dec  8 20:12:14 2020.
 Gaussian 16:  ES64L-G16RevA.03 25-Dec-2016

 ----------------------------------------------------------------------
 # B3LYP/6-311++G(d,p) empiricaldispersion=gd3bj scf=xqc pop=npa geom=c
 heck
 ----------------------------------------------------------------------

 -----------------------------------
 CID_54192266_JID_1547_Energie_anion
 -----------------------------------
 Structure from the checkpoint file:  "JID_1547.chk"
 Charge = -1 Multiplicity = 2

                         Standard orientation:
 ---------------------------------------------------------------------
 Center     Atomic      Atomic             Coordinates (Angstroms)
 Number     Number       Type             X           Y           Z
 ---------------------------------------------------------------------
      1          6           0        3.847878   -0.943788   -0.107121
      2          6           0        3.019498    0.262592    0.309237
      3          8           0        3.527466    1.287518    0.746222
      4          7           0        1.661608    0.130701    0.191400
      5          6           0        0.931713   -0.917705   -0.490391
      6          6           0       -0.548354   -0.834708   -0.092889
      7          7           0       -1.075739    0.514137   -0.264899
      8          6           0       -1.308413    0.874594   -1.654702
      9          6           0       -2.158099    0.894783    0.643212
     10          6           0       -3.527900    0.243816    0.419189
     11          8           0       -3.536269   -1.154191    0.693357
     12          1           0        4.900507   -0.702411    0.042276
     13          1           0        3.680671   -1.199789   -1.160140
     14          1           0        3.592022   -1.826512    0.490699
     15          1           0        1.122345    0.972924    0.366764
     16          1           0        1.037229   -0.845835   -1.584828
     17          1           0        1.312697   -1.902514   -0.200373
     18          1           0       -1.099120   -1.594754   -0.680851
     19          1           0       -0.647804   -1.103851    0.961960
     20          1           0       -2.056184    0.236307   -2.161893
     21          1           0       -1.653364    1.911809   -1.709945
     22          1           0       -0.375459    0.804600   -2.222426
     23          1           0       -1.832417    0.669256    1.664830
     24          1           0       -2.279755    1.984879    0.573335
     25          1           0       -4.244564    0.692253    1.116286
     26          1           0       -3.895369    0.451803   -0.597150
     27          1           0       -3.130031   -1.606152   -0.059891
 ---------------------------------------------------------------------

 SCF Done:  E(UB3LYP) =  -536.520993768     A.U. after   29 cycles

 The electronic state is 2-A.
 Alpha  occ. eigenvalues --  -19.02236 -18.98457 -14.22723 -14.21273 -10.17208
 Alpha  occ. eigenvalues --  -10.11622 -10.10549 -10.09990 -10.09922 -10.08660
 Alpha  occ. eigenvalues --  -10.07684  -0.93477  -0.92399  -0.83822  -0.81082
 Alpha  occ. eigenvalues --   -0.66636  -0.64170  -0.63145  -0.58236  -0.53483
 Alpha  occ. eigenvalues --   -0.48873  -0.47391  -0.42095  -0.40087  -0.39322
 Alpha  occ. eigenvalues --   -0.38276  -0.36727  -0.35369  -0.34971  -0.32506
 Alpha  occ. eigenvalues --   -0.32138  -0.30759  -0.30372  -0.30104  -0.29113
 Alpha  occ. eigenvalues --   -0.27712  -0.26830  -0.25973  -0.25433  -0.23643
 Alpha  occ. eigenvalues --   -0.19008  -0.15826  -0.15203  -0.11931   0.04141
 Alpha virt. eigenvalues --    0.06548   0.07627   0.07946   0.09112   0.09475
 Alpha virt. eigenvalues --    0.10039   0.10336   0.11214   0.11887   0.12163
 Alpha virt. eigenvalues --    0.12512   0.12940   0.13884   0.14562   0.15193

  Beta  occ. eigenvalues --  -19.02204 -18.98452 -14.22723 -14.21269 -10.17205
  Beta  occ. eigenvalues --  -10.11594 -10.10514 -10.09952 -10.09913 -10.08602
  Beta  occ. eigenvalues --  -10.07656  -0.93466  -0.92332  -0.83800  -0.81064
  Beta  occ. eigenvalues --   -0.66588  -0.64123  -0.63084  -0.58150  -0.53408
  Beta  occ. eigenvalues --   -0.48817  -0.47318  -0.42014  -0.40047  -0.39275
  Beta  occ. eigenvalues --   -0.38235  -0.36687  -0.35324  -0.34916  -0.32464
  Beta  occ. eigenvalues --   -0.32089  -0.30704  -0.30342  -0.30074  -0.29057
  Beta  occ. eigenvalues --   -0.27671  -0.26797  -0.25921  -0.25391  -0.23603
  Beta  occ. eigenvalues --   -0.18968  -0.15807  -0.15193  -0.11884
  Beta virt. eigenvalues --    0.06673   0.07266   0.08481   0.08656   0.09365
  Beta virt. eigenvalues --    0.10093   0.10448   0.10856   0.11440   0.12291
  Beta virt. eigenvalues --    0.12429   0.12821   0.13091   0.14133   0.14997

 Mulliken charges and spin densities:
               1          2
     1  C    0.358814  -0.836693
     2  C   -0.092964   0.279833
     3  O   -0.367866  -0.001276
     4  N   -0.276221   0.156565
     5  C    1.162810  -1.836815
     6  C   -0.406836   0.212736
     7  N   -0.266489   0.222690
     8  C    1.076150  -1.485406
     9  C   -0.574565   0.491810
    10  C    0.656082  -1.063447
    11  O   -0.264728   0.020211
    12  H    0.104948   0.064412
    13  H   -0.180587   0.339242
    14  H   -0.121890   0.280707
    15  H    0.234135   0.100892
    16  H   -0.205175   0.380176
    17  H   -0.371882   0.547896
    18  H   -0.450477   0.590993
    19  H    0.109658   0.100193
    20  H   -0.483552   0.629499
    21  H   -0.230537   0.378203
    22  H   -0.187877   0.337011
    23  H    0.097311   0.055541
    24  H    0.034726   0.101819
    25  H   -0.093040   0.256762
    26  H   -0.217177   0.373808
    27  H   -0.042772   0.302637
 Sum of Mulliken charges =  -1.00000   1.00000

 Dipole moment (field-independent basis, Debye):
    X=              0.8814    Y=              1.9564    Z=              3.0196  Tot=              3.7044
 Quadrupole moment (field-independent basis, Debye-Ang):
   XX=           -139.8438   YY=           -108.9663   ZZ=           -105.4129
   XY=            -10.9176   XZ=             -7.7144   YZ=             -3.3267

 Summary of Natural Population Analysis:

                                       Natural Population
                Natural  -----------------------------------------------
    Atom  No    Charge         Core      Valence    Rydberg      Total
 -----------------------------------------------------------------------
      C    1   -0.33515      0.99963     2.33090    0.00462     3.33515
      C    2    0.34286      0.99970     1.63505    0.02239     2.65714
      O    3   -0.32819      0.99988     3.32237    0.00594     4.32819
      N    4   -0.32434      0.99967     2.81509    0.00958     3.82434
      C    5   -0.09200      0.99961     2.08143    0.01096     3.09200
      C    6   -0.08662      0.99960     2.07330    0.01372     3.08662
      N    7   -0.29163      0.99973     2.77851    0.01339     3.79163
      C    8   -0.18022      0.99963     2.17129    0.00930     3.18022
      C    9   -0.09129      0.99961     2.08032    0.01137     3.09129
      C   10   -0.02177      0.99960     2.00907    0.01310     3.02177
      O   11   -0.37235      0.99990     3.36557    0.00688     4.37235
      H   12    0.10949      0.00000     0.38974    0.00078     0.39051
      H   13    0.10983      0.00000     0.38907    0.00110     0.39017
      H   14    0.10938      0.00000     0.38953    0.00109     0.39062
      H   15    0.20042      0.00000     0.29638    0.00319     0.29958
      H   16    0.09181      0.00000     0.40587    0.00232     0.40819
      H   17    0.10127      0.00000     0.39688    0.00186     0.39873
      H   18    0.08764      0.00000     0.40877    0.00358     0.41236
      H   19    0.10048      0.00000     0.39797    0.00155     0.39952
      H   20    0.08678      0.00000     0.41041    0.00281     0.41322
      H   21    0.09621      0.00000     0.40259    0.00120     0.40379
      H   22    0.09834      0.00000     0.40024    0.00142     0.40166
      H   23    0.09557      0.00000     0.40320    0.00122     0.40443
      H   24    0.09494      0.00000     0.40403    0.00103     0.40506
      H   25    0.08373      0.00000     0.41503    0.00125     0.41627
      H   26    0.08133      0.00000     0.41704    0.00162     0.41867
      H   27    0.23348      0.00000     0.26187    0.00464     0.26652
 =======================================================================
   * Total *    0.00000     10.99656    32.85153    0.15191    44.00000

 Normal termination of Gaussian 16 at Tue Dec  8 20:19:54 2020.
