 Gaussian 16, Revision A.03,

 -----------------------------------------------------------
 # opt freq B3LYP/6-31G(d) empiricaldispersion=gd3bj scf=xqc
 -----------------------------------------------------------

 ------------------------------
 CID_142434108_JID_708_neutraal
 ------------------------------
 Symbolic Z-matrix:
 Charge =  0 Multiplicity = 1

 SCF Done:  E(RB3LYP) =  -765.619446248     A.U. after   13 cycles
 SCF Done:  E(RB3LYP) =  -765.624299718     A.U. after   12 cycles
 SCF Done:  E(RB3LYP) =  -765.624700019     A.U. after   11 cycles
 SCF Done:  E(RB3LYP) =  -765.624943410     A.U. after   10 cycles
 SCF Done:  E(RB3LYP) =  -765.625191422     A.U. after   11 cycles
 SCF Done:  E(RB3LYP) =  -765.625424505     A.U. after   10 cycles
 SCF Done:  E(RB3LYP) =  -765.625736944     A.U. after   12 cycles
 SCF Done:  E(RB3LYP) =  -765.626049541     A.U. after   12 cycles
 SCF Done:  E(RB3LYP) =  -765.626343712     A.U. after   12 cycles
 SCF Done:  E(RB3LYP) =  -765.626131158     A.U. after   12 cycles
 SCF Done:  E(RB3LYP) =  -765.630868177     A.U. after   11 cycles
 SCF Done:  E(RB3LYP) =  -765.630933441     A.U. after   10 cycles
 SCF Done:  E(RB3LYP) =  -765.630947161     A.U. after    9 cycles
 SCF Done:  E(RB3LYP) =  -765.630949673     A.U. after   10 cycles
 SCF Done:  E(RB3LYP) =  -765.630950106     A.U. after    7 cycles
 SCF Done:  E(RB3LYP) =  -765.630950299     A.U. after    8 cycles
 Optimization completed.
    -- Stationary point found.
 Normal termination of Gaussian 16 at Tue Dec  8 13:30:44 2020.

 --------------------------------------------------------------------
 #N Geom=AllCheck Guess=TCheck SCRF=Check GenChk RB3LYP/6-31G(d) Freq
 --------------------------------------------------------------------

 Structure from the checkpoint file:  "JID_708.chk"
 ------------------------------
 CID_142434108_JID_708_neutraal
 ------------------------------
 Charge =  0 Multiplicity = 1

 SCF Done:  E(RB3LYP) =  -765.630950299     A.U. after    1 cycles

  Exact polarizability: 108.125   4.905 118.262  13.234   2.207  81.245
 Approx polarizability: 151.960  17.119 198.661  25.614   7.694 122.538

                      1                      2                      3
                      A                      A                      A
 Frequencies --     43.4188                71.8261               117.7981
 Red. masses --      2.9815                 3.8065                 2.2922
 Frc consts  --      0.0033                 0.0116                 0.0187
 IR Inten    --      0.3974                 1.1724                 0.0693

                      4                      5                      6
                      A                      A                      A
 Frequencies --    153.1438               167.8350               189.3527
 Red. masses --      2.6824                 1.1244                 2.3914
 Frc consts  --      0.0371                 0.0187                 0.0505
 IR Inten    --      0.4631                 0.1721                 0.6240

                      7                      8                      9
                      A                      A                      A
 Frequencies --    252.7090               299.5717               363.5152
 Red. masses --      1.3472                 2.9887                 2.7306
 Frc consts  --      0.0507                 0.1580                 0.2126
 IR Inten    --      0.1989                 2.5405                 2.0873

                     10                     11                     12
                      A                      A                      A
 Frequencies --    377.3206               407.8159               446.6378
 Red. masses --      2.1803                 3.8825                 3.8468
 Frc consts  --      0.1829                 0.3804                 0.4521
 IR Inten    --      5.1324                 3.5319                10.6522

                     13                     14                     15
                      A                      A                      A
 Frequencies --    460.5103               493.9197               547.0984
 Red. masses --      4.0669                 3.0519                 1.7580
 Frc consts  --      0.5081                 0.4387                 0.3100
 IR Inten    --      6.3056                25.0253                61.5660

                     16                     17                     18
                      A                      A                      A
 Frequencies --    577.2821               625.6993               684.1358
 Red. masses --      4.0260                 2.9786                 1.4987
 Frc consts  --      0.7905                 0.6871                 0.4133
 IR Inten    --      5.1743                 1.2180                37.0116

                     19                     20                     21
                      A                      A                      A
 Frequencies --    726.7051               800.7700               818.1144
 Red. masses --      3.1381                 1.5936                 2.1473
 Frc consts  --      0.9764                 0.6021                 0.8468
 IR Inten    --     26.2170                15.7997                 5.7034

                     22                     23                     24
                      A                      A                      A
 Frequencies --    860.8024               883.8499               902.1732
 Red. masses --      2.8594                 1.3358                 2.0548
 Frc consts  --      1.2483                 0.6148                 0.9854
 IR Inten    --      6.5545                 2.3977                 0.8110

                     25                     26                     27
                      A                      A                      A
 Frequencies --    932.1557              1001.8078              1051.9543
 Red. masses --      1.7326                 1.9004                 1.8165
 Frc consts  --      0.8870                 1.1237                 1.1844
 IR Inten    --      4.8568                 3.3579                 2.8662

                     28                     29                     30
                      A                      A                      A
 Frequencies --   1072.8153              1099.0027              1102.1883
 Red. masses --      1.4692                 1.8141                 2.0831
 Frc consts  --      0.9963                 1.2910                 1.4910
 IR Inten    --      0.9327                21.8589                 1.2026

                     31                     32                     33
                      A                      A                      A
 Frequencies --   1148.5408              1167.2496              1223.6495
 Red. masses --      1.8585                 2.2358                 1.6548
 Frc consts  --      1.4444                 1.7947                 1.4599
 IR Inten    --      4.3316                12.8451                13.0339

                     34                     35                     36
                      A                      A                      A
 Frequencies --   1244.3033              1276.2265              1307.4706
 Red. masses --      2.4217                 1.3068                 1.2380
 Frc consts  --      2.2092                 1.2541                 1.2469
 IR Inten    --     16.3477                 1.1351                 0.8769

                     37                     38                     39
                      A                      A                      A
 Frequencies --   1368.9373              1377.0827              1393.8701
 Red. masses --      1.4282                 1.3601                 1.3673
 Frc consts  --      1.5769                 1.5196                 1.5652
 IR Inten    --      9.7558                 1.1868                 4.0725

                     40                     41                     42
                      A                      A                      A
 Frequencies --   1439.6709              1441.6966              1496.3231
 Red. masses --      1.2763                 1.2607                 1.4629
 Frc consts  --      1.5586                 1.5439                 1.9299
 IR Inten    --      5.6332                 1.3488                93.4513

                     43                     44                     45
                      A                      A                      A
 Frequencies --   1509.7950              1511.7611              1518.7069
 Red. masses --      1.1295                 1.0460                 1.0719
 Frc consts  --      1.5169                 1.4084                 1.4567
 IR Inten    --     12.4181                 4.4241                 4.4849

                     46                     47                     48
                      A                      A                      A
 Frequencies --   1526.4295              1534.0244              1538.9942
 Red. masses --      1.0660                 1.0740                 1.0569
 Frc consts  --      1.4634                 1.4891                 1.4749
 IR Inten    --      4.6557                 4.4591                 5.8675

                     49                     50                     51
                      A                      A                      A
 Frequencies --   1702.5436              1750.6444              3030.0465
 Red. masses --      4.4000                 7.3308                 1.0456
 Frc consts  --      7.5145                13.2373                 5.6562
 IR Inten    --     26.6808                25.3809                36.0169

                     52                     53                     54
                      A                      A                      A
 Frequencies --   3032.7497              3042.9403              3048.1285
 Red. masses --      1.0625                 1.0389                 1.0625
 Frc consts  --      5.7577                 5.6677                 5.8163
 IR Inten    --     22.4817                28.7193                50.8873

                     55                     56                     57
                      A                      A                      A
 Frequencies --   3075.0579              3076.6694              3090.6130
 Red. masses --      1.1007                 1.0984                 1.0972
 Frc consts  --      6.1321                 6.1261                 6.1750
 IR Inten    --     25.8877                 8.4941                19.6064

                     58                     59                     60
                      A                      A                      A
 Frequencies --   3110.0451              3123.6553              3169.3144
 Red. masses --      1.1004                 1.1023                 1.0932
 Frc consts  --      6.2708                 6.3367                 6.4695
 IR Inten    --     52.7339                42.5791                16.4755

                     61                     62                     63
                      A                      A                      A
 Frequencies --   3187.9364              3240.6518              3611.5788
 Red. masses --      1.0895                 1.0962                 1.0765
 Frc consts  --      6.5237                 6.7824                 8.2729
 IR Inten    --     13.1482                10.8027                19.7208

 - Thermochemistry -
 -------------------
 Temperature   298.150 Kelvin.  Pressure   1.00000 Atm.
 Atom     1 has atomic number  6 and mass  12.00000

 Molecular mass:   155.07687 amu.
 Principal axes and moments of inertia in atomic units:
                           1         2         3
     Eigenvalues --  1234.184261793.352962345.83182
           X            0.99980   0.01960   0.00346
           Y           -0.01951   0.99955  -0.02296
           Z           -0.00391   0.02288   0.99973
 This molecule is an asymmetric top.
 Rotational symmetry number  1.
 Warning -- assumption of classical behavior for rotation
           may cause significant error
 Rotational temperatures (Kelvin)      0.07018     0.04830     0.03692
 Rotational constants (GHZ):           1.46229     1.00635     0.76934
 Zero-point vibrational energy     519473.8 (Joules/Mol)
                                  124.15722 (Kcal/Mol)
 Warning -- explicit consideration of  16 degrees of freedom as
           vibrations may cause significant error
 Vibrational temperatures:     62.47   103.34   169.49   220.34   241.48
          (Kelvin)            272.44   363.59   431.02   523.02   542.88
                              586.76   642.61   662.57   710.64   787.15
                              830.58   900.24   984.32  1045.57  1152.13
                             1177.08  1238.50  1271.66  1298.03  1341.16
                             1441.38  1513.53  1543.54  1581.22  1585.80
                             1652.49  1679.41  1760.56  1790.27  1836.21
                             1881.16  1969.60  1981.31  2005.47  2071.37
                             2074.28  2152.88  2172.26  2175.09  2185.08
                             2196.19  2207.12  2214.27  2449.58  2518.79
                             4359.56  4363.45  4378.11  4385.58  4424.32
                             4426.64  4446.70  4474.66  4494.24  4559.94
                             4586.73  4662.58  5196.26

 Zero-point correction=                           0.197857 (Hartree/Particle)
 Thermal correction to Energy=                    0.208906
 Thermal correction to Enthalpy=                  0.209850
 Thermal correction to Gibbs Free Energy=         0.160926
 Sum of electronic and zero-point Energies=           -765.433093
 Sum of electronic and thermal Energies=              -765.422044
 Sum of electronic and thermal Enthalpies=            -765.421100
 Sum of electronic and thermal Free Energies=         -765.470025

                     E (Thermal)             CV                S
                      KCal/Mol        Cal/Mol-Kelvin    Cal/Mol-Kelvin
 Total                  131.091             41.333            102.971
 Electronic               0.000              0.000              0.000
 Translational            0.889              2.981             41.026
 Rotational               0.889              2.981             30.030
 Vibrational            129.313             35.371             31.915
 Vibration     1          0.595              1.980              5.097
 Vibration     2          0.598              1.967              4.103
 Vibration     3          0.608              1.935              3.136
 Vibration     4          0.619              1.899              2.633
 Vibration     5          0.625              1.882              2.460
 Vibration     6          0.633              1.855              2.234
 Vibration     7          0.664              1.758              1.712
 Vibration     8          0.692              1.674              1.419
 Vibration     9          0.737              1.547              1.107
 Vibration    10          0.748              1.518              1.050
 Vibration    11          0.772              1.453              0.934
 Vibration    12          0.806              1.368              0.806
 Vibration    13          0.818              1.338              0.765
 Vibration    14          0.850              1.264              0.674
 Vibration    15          0.902              1.146              0.550
 Vibration    16          0.934              1.080              0.490

 Optimization completed.
    -- Stationary point found.
 Normal termination of Gaussian 16 at Tue Dec  8 13:36:32 2020.

 ----------------------------------------------------------------------
 # B3LYP/6-311++G(d,p) empiricaldispersion=gd3bj scf=xqc pop=npa geom=c
 heck
 ----------------------------------------------------------------------

 --------------------------------------
 CID_142434108_JID_708_Energie_neutraal
 --------------------------------------
 Structure from the checkpoint file:  "JID_708.chk"
 Charge =  0 Multiplicity = 1

 SCF Done:  E(RB3LYP) =  -765.762135680     A.U. after   15 cycles
 Normal termination of Gaussian 16 at Tue Dec  8 13:38:24 2020.

 ----------------------------------------------------------------------
 # B3LYP/6-311++G(d,p) empiricaldispersion=gd3bj scf=xqc pop=npa geom=c
 heck
 ----------------------------------------------------------------------

 ------------------------------------
 CID_142434108_JID_708_Energie_kation
 ------------------------------------
 Structure from the checkpoint file:  "JID_708.chk"
 Charge =  1 Multiplicity = 2

 SCF Done:  E(UB3LYP) =  -765.512309752     A.U. after   20 cycles
 Normal termination of Gaussian 16 at Tue Dec  8 13:42:09 2020.
 Gaussian 16:  ES64L-G16RevA.03 25-Dec-2016

 ----------------------------------------------------------------------
 # B3LYP/6-311++G(d,p) empiricaldispersion=gd3bj scf=xqc pop=npa geom=c
 heck
 ----------------------------------------------------------------------

 -----------------------------------
 CID_142434108_JID_708_Energie_anion
 -----------------------------------
 Structure from the checkpoint file:  "JID_708.chk"
 Charge = -1 Multiplicity = 2

                         Standard orientation:
 ---------------------------------------------------------------------
 Center     Atomic      Atomic             Coordinates (Angstroms)
 Number     Number       Type             X           Y           Z
 ---------------------------------------------------------------------
      1          6           0       -2.424468    0.109975    1.443521
      2          6           0       -2.451222   -0.797335    0.212869
      3          6           0       -1.648053   -0.230975   -0.975892
      4          6           0       -0.185616   -0.037860   -0.674861
      5          6           0        0.429234    1.123327   -0.392393
      6          7           0        1.791224    1.145787    0.018085
      7          6           0        2.259077    0.129892    0.867727
      8          6           0        1.855510   -1.136705    0.734941
      9         16           0        0.766672   -1.570698   -0.605097
     10          6           0       -0.210813    2.484082   -0.401180
     11          1           0       -1.398713    0.245734    1.802239
     12          1           0       -3.016607   -0.314507    2.261720
     13          1           0       -2.833665    1.102268    1.214421
     14          1           0       -2.047365   -1.782585    0.473591
     15          1           0       -3.487051   -0.956067   -0.114332
     16          1           0       -1.753813   -0.912607   -1.830978
     17          1           0       -2.092827    0.720284   -1.289653
     18          1           0        2.121157    2.069648    0.259663
     19          1           0        2.926920    0.441760    1.666472
     20          1           0        2.135867   -1.915410    1.433483
     21          1           0        0.423726    3.194793   -0.948399
     22          1           0       -1.189603    2.479881   -0.880880
     23          1           0       -0.335246    2.871053    0.619218
 ---------------------------------------------------------------------

 SCF Done:  E(UB3LYP) =  -765.749447686     A.U. after   31 cycles

 The electronic state is 2-A.
 Alpha  occ. eigenvalues --  -88.74036 -14.22755 -10.10692 -10.10088 -10.08256
 Alpha  occ. eigenvalues --  -10.07882 -10.07355 -10.06546 -10.06394 -10.05267
 Alpha  occ. eigenvalues --   -7.82637  -5.79019  -5.78662  -5.78033  -0.84286
 Alpha  occ. eigenvalues --   -0.71912  -0.68965  -0.66517  -0.60767  -0.58454
 Alpha  occ. eigenvalues --   -0.54729  -0.50152  -0.47292  -0.42529  -0.39159
 Alpha  occ. eigenvalues --   -0.37189  -0.35012  -0.33933  -0.33163  -0.31898
 Alpha  occ. eigenvalues --   -0.30227  -0.29680  -0.29019  -0.27006  -0.25466
 Alpha  occ. eigenvalues --   -0.24324  -0.23936  -0.22848  -0.21625  -0.17137
 Alpha  occ. eigenvalues --   -0.15079  -0.07253   0.04614
 Alpha virt. eigenvalues --    0.06850   0.07695   0.08750   0.09163   0.09679
 Alpha virt. eigenvalues --    0.09957   0.10629   0.11329   0.11866   0.12362
 Alpha virt. eigenvalues --    0.13052   0.13678   0.13957   0.14328   0.15080

  Beta  occ. eigenvalues --  -88.74033 -14.22711 -10.10689 -10.10061 -10.08256
  Beta  occ. eigenvalues --  -10.07877 -10.07341 -10.06536 -10.06335 -10.05243
  Beta  occ. eigenvalues --   -7.82634  -5.79016  -5.78660  -5.78031  -0.84227
  Beta  occ. eigenvalues --   -0.71888  -0.68924  -0.66484  -0.60699  -0.58405
  Beta  occ. eigenvalues --   -0.54668  -0.50100  -0.47240  -0.42435  -0.39123
  Beta  occ. eigenvalues --   -0.37127  -0.34970  -0.33900  -0.33110  -0.31846
  Beta  occ. eigenvalues --   -0.30188  -0.29637  -0.28958  -0.26971  -0.25433
  Beta  occ. eigenvalues --   -0.24301  -0.23898  -0.22823  -0.21601  -0.17117
  Beta  occ. eigenvalues --   -0.15058  -0.07231
  Beta virt. eigenvalues --    0.06978   0.08051   0.08360   0.08951   0.09408
  Beta virt. eigenvalues --    0.10243   0.10634   0.10970   0.11853   0.12296
  Beta virt. eigenvalues --    0.12701   0.13503   0.13821   0.14370   0.14546

 Mulliken charges and spin densities:
               1          2
     1  C    0.434433  -1.016307
     2  C   -0.678595   0.396897
     3  C   -0.974960   0.814361
     4  C    2.229957  -0.749661
     5  C   -2.893591   1.579619
     6  N   -0.223605   0.286723
     7  C   -0.079713   0.125773
     8  C    0.220711  -0.843126
     9  S    0.533750  -0.579365
    10  C    3.389748  -4.087870
    11  H    0.038879   0.132485
    12  H   -0.109098   0.244584
    13  H   -0.043425   0.179374
    14  H    0.093819   0.012795
    15  H   -0.262441   0.398533
    16  H    0.035074   0.114094
    17  H   -0.003142   0.159391
    18  H   -0.479022   0.757181
    19  H   -1.117245   1.288360
    20  H    0.090484   0.110640
    21  H   -0.471514   0.624813
    22  H   -0.265916   0.386371
    23  H   -0.464589   0.664336
 Sum of Mulliken charges =  -1.00000   1.00000

 Dipole moment (field-independent basis, Debye):
    X=             -2.8674    Y=             -6.4953    Z=             -2.2862  Tot=              7.4591
 Quadrupole moment (field-independent basis, Debye-Ang):
   XX=           -122.0005   YY=           -119.6358   ZZ=           -102.5720
   XY=             -7.9744   XZ=             -3.2182   YZ=             -5.5683

 Summary of Natural Population Analysis:

                                       Natural Population
                Natural  -----------------------------------------------
    Atom  No    Charge         Core      Valence    Rydberg      Total
 -----------------------------------------------------------------------
      C    1   -0.28884      0.99967     2.28421    0.00497     3.28884
      C    2   -0.18847      0.99964     2.18006    0.00877     3.18847
      C    3   -0.20045      0.99957     2.19097    0.00991     3.20045
      C    4   -0.10807      0.99934     2.09496    0.01377     3.10807
      C    5    0.08226      0.99935     1.90500    0.01339     2.91774
      N    6   -0.31451      0.99967     2.79987    0.01498     3.81451
      C    7    0.00721      0.99945     1.97788    0.01546     2.99279
      C    8   -0.21314      0.99946     2.20217    0.01151     3.21314
      S    9    0.10612      4.99952     2.87337    0.02099     7.89388
      C   10   -0.29777      0.99962     2.29184    0.00631     3.29777
      H   11    0.10339      0.00000     0.39519    0.00142     0.39661
      H   12    0.09595      0.00000     0.40321    0.00083     0.40405
      H   13    0.09607      0.00000     0.40270    0.00123     0.40393
      H   14    0.09735      0.00000     0.40131    0.00134     0.40265
      H   15    0.09164      0.00000     0.40731    0.00105     0.40836
      H   16    0.09886      0.00000     0.40007    0.00108     0.40114
      H   17    0.10283      0.00000     0.39576    0.00141     0.39717
      H   18    0.19806      0.00000     0.29088    0.01106     0.30194
      H   19    0.10295      0.00000     0.39376    0.00329     0.39705
      H   20    0.10523      0.00000     0.39383    0.00093     0.39477
      H   21    0.10682      0.00000     0.39130    0.00188     0.39318
      H   22    0.10596      0.00000     0.39257    0.00147     0.39404
      H   23    0.11056      0.00000     0.38651    0.00293     0.38944
 =======================================================================
   * Total *   -0.00000     13.99529    27.85474    0.14998    42.00000

 Normal termination of Gaussian 16 at Tue Dec  8 13:50:00 2020.
