 Gaussian 16, Revision A.03,

 -----------------------------------------------------------
 # opt freq B3LYP/6-31G(d) empiricaldispersion=gd3bj scf=xqc
 -----------------------------------------------------------

 ------------------------------
 CID_82416772_JID_1425_neutraal
 ------------------------------
 Symbolic Z-matrix:
 Charge =  0 Multiplicity = 1

 SCF Done:  E(RB3LYP) =  -478.178397867     A.U. after   14 cycles
 SCF Done:  E(RB3LYP) =  -478.181540930     A.U. after   12 cycles
 SCF Done:  E(RB3LYP) =  -478.181866132     A.U. after   10 cycles
 SCF Done:  E(RB3LYP) =  -478.182002901     A.U. after   11 cycles
 SCF Done:  E(RB3LYP) =  -478.182109002     A.U. after   10 cycles
 SCF Done:  E(RB3LYP) =  -478.182154564     A.U. after   10 cycles
 SCF Done:  E(RB3LYP) =  -478.182196809     A.U. after   10 cycles
 SCF Done:  E(RB3LYP) =  -478.182212621     A.U. after   10 cycles
 SCF Done:  E(RB3LYP) =  -478.182225802     A.U. after    9 cycles
 SCF Done:  E(RB3LYP) =  -478.182247179     A.U. after   10 cycles
 SCF Done:  E(RB3LYP) =  -478.182687981     A.U. after    9 cycles
 SCF Done:  E(RB3LYP) =  -478.182692195     A.U. after    8 cycles
 SCF Done:  E(RB3LYP) =  -478.182696104     A.U. after    9 cycles
 SCF Done:  E(RB3LYP) =  -478.182696539     A.U. after    8 cycles
 SCF Done:  E(RB3LYP) =  -478.182696582     A.U. after    7 cycles
 SCF Done:  E(RB3LYP) =  -478.182696620     A.U. after    7 cycles
 Optimization completed.
    -- Stationary point found.

 1\1\GINC-NODE316\FOpt\RB3LYP\6-31G(d)\C8H15N3\VSC10255\08-Dec-2020\0\\
 # opt freq B3LYP/6-31G(d) empiricaldispersion=gd3bj scf=xqc\\CID_82416
 772_JID_1425_neutraal\\0,1\C,0.9456698317,-0.0661805863,-0.104533497\C
 ,0.4446722462,0.20928525,1.2782628736\C,-0.0440269425,-0.6747731695,2.
 2146033467\N,-0.3331407157,0.1028286692,3.3353206245\C,-0.0253130677,1
 .4041435573,3.0120364351\N,0.4503495963,1.4945347215,1.7863390742\C,-0
 .2219762215,2.5613290366,3.9362167471\C,-0.9582706995,-0.3438393037,4.
 5657472433\C,-0.1773920951,-2.1712456475,2.1482976759\C,1.0133877752,-

 Normal termination of Gaussian 16 at Tue Dec  8 20:04:41 2020.

 --------------------------------------------------------------------
 #N Geom=AllCheck Guess=TCheck SCRF=Check GenChk RB3LYP/6-31G(d) Freq
 --------------------------------------------------------------------

 Structure from the checkpoint file:  "JID_1425.chk"
 ------------------------------
 CID_82416772_JID_1425_neutraal
 ------------------------------
 Charge =  0 Multiplicity = 1

 SCF Done:  E(RB3LYP) =  -478.182696620     A.U. after    1 cycles

  Exact polarizability: 120.852   1.644 114.561  -1.801  -0.162  71.038
 Approx polarizability: 164.098  -2.876 169.253  -5.180  -0.982 104.154

                      1                      2                      3
                      A                      A                      A
 Frequencies --     59.2420                79.0465                90.6274
 Red. masses --      2.2742                 1.1671                 2.8934
 Frc consts  --      0.0047                 0.0043                 0.0140
 IR Inten    --      1.6100                 0.8804                 0.5760

                      4                      5                      6
                      A                      A                      A
 Frequencies --    146.6164               156.5156               170.3355
 Red. masses --      1.1631                 1.6245                 1.4129
 Frc consts  --      0.0147                 0.0234                 0.0242
 IR Inten    --      9.5589                11.1468                11.8515

                      7                      8                      9
                      A                      A                      A
 Frequencies --    183.0185               211.3111               231.6560
 Red. masses --      2.4818                 2.5563                 1.2048
 Frc consts  --      0.0490                 0.0673                 0.0381
 IR Inten    --      6.3625                 3.1191                31.2928

                     10                     11                     12
                      A                      A                      A
 Frequencies --    256.6885               270.6919               292.3084
 Red. masses --      1.6142                 1.5635                 3.6116
 Frc consts  --      0.0627                 0.0675                 0.1818
 IR Inten    --      0.8315                 2.7461                 0.8424

                     13                     14                     15
                      A                      A                      A
 Frequencies --    321.7900               344.1560               428.2950
 Red. masses --      2.3913                 2.9383                 3.2863
 Frc consts  --      0.1459                 0.2050                 0.3552
 IR Inten    --      0.3282                 2.2151                 1.5849

                     16                     17                     18
                      A                      A                      A
 Frequencies --    463.1490               541.9933               602.8043
 Red. masses --      3.1014                 3.1581                 3.8019
 Frc consts  --      0.3920                 0.5466                 0.8140
 IR Inten    --      2.0366                 4.1108                 0.5227

                     19                     20                     21
                      A                      A                      A
 Frequencies --    632.7992               678.7822               700.8215
 Red. masses --      3.1752                 5.7737                 3.7869
 Frc consts  --      0.7491                 1.5673                 1.0958
 IR Inten    --      1.1828                 2.3688                 8.2758

                     22                     23                     24
                      A                      A                      A
 Frequencies --    714.3354               860.6369               881.2086
 Red. masses --      5.6582                 2.8818                 2.3374
 Frc consts  --      1.7011                 1.2576                 1.0694
 IR Inten    --      0.4724                 7.8301                85.5132

                     25                     26                     27
                      A                      A                      A
 Frequencies --    954.7473               996.9764              1010.7914
 Red. masses --      1.2823                 1.7858                 1.6107
 Frc consts  --      0.6887                 1.0458                 0.9696
 IR Inten    --     51.1658                 5.9073                 3.6813

                     28                     29                     30
                      A                      A                      A
 Frequencies --   1037.6048              1069.1868              1073.8357
 Red. masses --      1.6929                 2.1802                 1.4639
 Frc consts  --      1.0739                 1.4684                 0.9946
 IR Inten    --      4.5748                21.4349                 3.0639

                     31                     32                     33
                      A                      A                      A
 Frequencies --   1077.4004              1082.9682              1133.0190
 Red. masses --      1.6139                 2.1146                 1.9803
 Frc consts  --      1.1038                 1.4612                 1.4978
 IR Inten    --      9.4919                 4.1456                33.1346

                     34                     35                     36
                      A                      A                      A
 Frequencies --   1162.3147              1200.9037              1254.7489
 Red. masses --      1.3041                 1.9232                 1.6471
 Frc consts  --      1.0380                 1.6341                 1.5279
 IR Inten    --      2.1180                 3.1595                 5.3766

                     37                     38                     39
                      A                      A                      A
 Frequencies --   1271.9515              1332.2534              1355.5995
 Red. masses --      3.6533                 3.2044                 1.6012
 Frc consts  --      3.4824                 3.3510                 1.7337
 IR Inten    --      2.5016                15.5065                16.6343

                     40                     41                     42
                      A                      A                      A
 Frequencies --   1420.0798              1427.5833              1430.9178
 Red. masses --      2.1125                 1.3301                 1.2865
 Frc consts  --      2.5100                 1.5971                 1.5520
 IR Inten    --      5.4829                12.8173                 2.2572

                     43                     44                     45
                      A                      A                      A
 Frequencies --   1442.0036              1446.1161              1455.3483
 Red. masses --      1.6334                 1.5580                 2.2046
 Frc consts  --      2.0012                 1.9196                 2.7512
 IR Inten    --      5.5945                 8.6121                74.5950

                     46                     47                     48
                      A                      A                      A
 Frequencies --   1493.9067              1506.4266              1508.6134
 Red. masses --      1.2940                 1.0466                 1.0493
 Frc consts  --      1.7015                 1.3994                 1.4070
 IR Inten    --     21.2772                 4.0736                12.7818

                     49                     50                     51
                      A                      A                      A
 Frequencies --   1518.5179              1522.4325              1522.7357
 Red. masses --      1.0558                 1.1127                 1.1475
 Frc consts  --      1.4344                 1.5195                 1.5676
 IR Inten    --      2.9608                 2.0003                 2.2832

                     52                     53                     54
                      A                      A                      A
 Frequencies --   1524.5759              1531.1908              1554.9217
 Red. masses --      1.1784                 1.1514                 1.1239
 Frc consts  --      1.6138                 1.5904                 1.6010
 IR Inten    --      1.5524                 5.9843                 3.7456

                     55                     56                     57
                      A                      A                      A
 Frequencies --   1578.3766              1639.0347              1703.8016
 Red. masses --      4.3062                 6.2443                 1.0858
 Frc consts  --      6.3207                 9.8835                 1.8571
 IR Inten    --     28.1044                15.2612                18.6572

                     58                     59                     60
                      A                      A                      A
 Frequencies --   3037.6041              3038.1675              3041.2041
 Red. masses --      1.0381                 1.0385                 1.0402
 Frc consts  --      5.6438                 5.6480                 5.6681
 IR Inten    --     38.7931                30.8779                31.7672

                     61                     62                     63
                      A                      A                      A
 Frequencies --   3061.1027              3071.0768              3084.0465
 Red. masses --      1.0383                 1.0856                 1.1014
 Frc consts  --      5.7324                 6.0325                 6.1720
 IR Inten    --     49.5694                 8.3884                22.2288

                     64                     65                     66
                      A                      A                      A
 Frequencies --   3096.2597              3104.8330              3121.7399
 Red. masses --      1.0960                 1.1013                 1.1013
 Frc consts  --      6.1905                 6.2548                 6.3234
 IR Inten    --     21.9156                55.6187                41.9337

                     67                     68                     69
                      A                      A                      A
 Frequencies --   3123.6019              3124.1531              3160.6017
 Red. masses --      1.1017                 1.1017                 1.0964
 Frc consts  --      6.3332                 6.3355                 6.4531
 IR Inten    --     25.5092                 6.5148                 5.6702

                     70                     71                     72
                      A                      A                      A
 Frequencies --   3170.5285              3464.2533              3545.5033
 Red. masses --      1.1007                 1.0500                 1.0919
 Frc consts  --      6.5192                 7.4244                 8.0867
 IR Inten    --     10.9405                 3.2306                 0.4402

 - Thermochemistry -
 -------------------
 Temperature   298.150 Kelvin.  Pressure   1.00000 Atm.
 Atom     1 has atomic number  6 and mass  12.00000

 Molecular mass:   153.12660 amu.
 Principal axes and moments of inertia in atomic units:
                           1         2         3
     Eigenvalues --  1240.704921875.793902733.07164
           X            0.99899   0.04429   0.00791
           Y           -0.04425   0.99900  -0.00571
           Z           -0.00815   0.00535   0.99995
 This molecule is an asymmetric top.
 Rotational symmetry number  1.
 Warning -- assumption of classical behavior for rotation
           may cause significant error
 Rotational temperatures (Kelvin)      0.06981     0.04617     0.03169
 Rotational constants (GHZ):           1.45461     0.96212     0.66033
 Zero-point vibrational energy     602944.2 (Joules/Mol)
                                  144.10711 (Kcal/Mol)
 Warning -- explicit consideration of  18 degrees of freedom as
           vibrations may cause significant error
 Vibrational temperatures:     85.24   113.73   130.39   210.95   225.19
          (Kelvin)            245.07   263.32   304.03   333.30   369.32
                              389.47   420.57   462.98   495.16   616.22
                              666.37   779.81   867.30   910.46   976.62
                             1008.33  1027.77  1238.26  1267.86  1373.67
                             1434.43  1454.30  1492.88  1538.32  1545.01
                             1550.14  1558.15  1630.16  1672.31  1727.83
                             1805.30  1830.05  1916.82  1950.41  2043.18
                             2053.97  2058.77  2074.72  2080.64  2093.92
                             2149.40  2167.41  2170.56  2184.81  2190.44
                             2190.88  2193.52  2203.04  2237.19  2270.93
                             2358.21  2451.39  4370.43  4371.25  4375.61
                             4404.24  4418.59  4437.26  4454.83  4467.16
                             4491.49  4494.17  4494.96  4547.40  4561.68
                             4984.29  5101.19

 Zero-point correction=                           0.229649 (Hartree/Particle)
 Thermal correction to Energy=                    0.242427
 Thermal correction to Enthalpy=                  0.243372
 Thermal correction to Gibbs Free Energy=         0.191199
 Sum of electronic and zero-point Energies=           -477.953047
 Sum of electronic and thermal Energies=              -477.940269
 Sum of electronic and thermal Enthalpies=            -477.939325
 Sum of electronic and thermal Free Energies=         -477.991498

                     E (Thermal)             CV                S
                      KCal/Mol        Cal/Mol-Kelvin    Cal/Mol-Kelvin
 Total                  152.126             46.194            109.807
 Electronic               0.000              0.000              0.000
 Translational            0.889              2.981             40.988
 Rotational               0.889              2.981             30.232
 Vibrational            150.348             40.233             38.587
 Vibration     1          0.597              1.974              4.482
 Vibration     2          0.600              1.963              3.914
 Vibration     3          0.602              1.956              3.646
 Vibration     4          0.617              1.906              2.716
 Vibration     5          0.620              1.895              2.591
 Vibration     6          0.625              1.879              2.432
 Vibration     7          0.631              1.863              2.297
 Vibration     8          0.643              1.824              2.032
 Vibration     9          0.653              1.793              1.866
 Vibration    10          0.666              1.751              1.684
 Vibration    11          0.674              1.727              1.592
 Vibration    12          0.688              1.688              1.461
 Vibration    13          0.707              1.632              1.301
 Vibration    14          0.723              1.587              1.193
 Vibration    15          0.790              1.409              0.864
 Vibration    16          0.821              1.332              0.757
 Vibration    17          0.897              1.157              0.561
 Vibration    18          0.961              1.026              0.445

                           ! Non-Optimized Parameters !

 1\1\GINC-NODE316\Freq\RB3LYP\6-31G(d)\C8H15N3\VSC10255\08-Dec-2020\0\\
 #N Geom=AllCheck Guess=TCheck SCRF=Check GenChk RB3LYP/6-31G(d) Freq\\
 CID_82416772_JID_1425_neutraal\\0,1\C,0.9456698317,-0.0661805863,-0.10
 4533497\C,0.4446722462,0.20928525,1.2782628736\C,-0.0440269425,-0.6747
 731695,2.2146033467\N,-0.3331407157,0.1028286692,3.3353206245\C,-0.025
 3130677,1.4041435573,3.0120364351\N,0.4503495963,1.4945347215,1.786339
 0742\C,-0.2219762215,2.5613290366,3.9362167471\C,-0.9582706995,-0.3438
 393037,4.5657472433\C,-0.1773920951,-2.1712456475,2.1482976759\C,1.013

 Normal termination of Gaussian 16 at Tue Dec  8 20:10:02 2020.

 ----------------------------------------------------------------------
 # B3LYP/6-311++G(d,p) empiricaldispersion=gd3bj scf=xqc pop=npa geom=c
 heck
 ----------------------------------------------------------------------

 --------------------------------------
 CID_82416772_JID_1425_Energie_neutraal
 --------------------------------------
 Structure from the checkpoint file:  "JID_1425.chk"
 Charge =  0 Multiplicity = 1

 SCF Done:  E(RB3LYP) =  -478.319944349     A.U. after   14 cycles
 Normal termination of Gaussian 16 at Tue Dec  8 20:12:18 2020.

 ----------------------------------------------------------------------
 # B3LYP/6-311++G(d,p) empiricaldispersion=gd3bj scf=xqc pop=npa geom=c
 heck
 ----------------------------------------------------------------------

 ------------------------------------
 CID_82416772_JID_1425_Energie_kation
 ------------------------------------
 Structure from the checkpoint file:  "JID_1425.chk"
 Charge =  1 Multiplicity = 2

 SCF Done:  E(UB3LYP) =  -478.044077243     A.U. after   20 cycles
 Normal termination of Gaussian 16 at Tue Dec  8 20:16:37 2020.
 Gaussian 16:  ES64L-G16RevA.03 25-Dec-2016

 -----------------------------------
 CID_82416772_JID_1425_Energie_anion
 -----------------------------------
 Structure from the checkpoint file:  "JID_1425.chk"
 Charge = -1 Multiplicity = 2

                         Standard orientation:
 ---------------------------------------------------------------------
 Center     Atomic      Atomic             Coordinates (Angstroms)
 Number     Number       Type             X           Y           Z
 ---------------------------------------------------------------------
      1          6           0        0.204660    2.846719   -0.188092
      2          6           0       -0.321892    1.448068   -0.113759
      3          6           0        0.374244    0.259586   -0.108963
      4          7           0       -0.597923   -0.732774    0.010927
      5          6           0       -1.817698   -0.097810    0.051678
      6          7           0       -1.679805    1.211183   -0.013772
      7          6           0       -3.126441   -0.812210    0.144872
      8          6           0       -0.385537   -2.167221   -0.027844
      9          6           0        1.857528    0.012552   -0.130305
     10          6           0        2.423450   -0.219213    1.284675
     11          7           0        2.240631   -1.045243   -1.094446
     12          1           0       -0.383305    3.435763   -0.900032
     13          1           0        1.252094    2.872050   -0.506592
     14          1           0        0.139539    3.355216    0.782642
     15          1           0       -3.313157   -1.459541   -0.721672
     16          1           0       -3.202365   -1.433985    1.046187
     17          1           0       -3.914719   -0.058132    0.182847
     18          1           0        0.005732   -2.473304   -1.002097
     19          1           0        0.316693   -2.477858    0.753465
     20          1           0       -1.334637   -2.673029    0.152964
     21          1           0        2.296473    0.940137   -0.513098
     22          1           0        2.012991   -1.136922    1.724568
     23          1           0        3.515649   -0.317193    1.254338
     24          1           0        2.166464    0.610268    1.951865
     25          1           0        3.207131   -0.890992   -1.377463
     26          1           0        2.245202   -1.947473   -0.620461
 ---------------------------------------------------------------------

 SCF Done:  E(UB3LYP) =  -478.309156613     A.U. after   29 cycles

 The electronic state is 2-A.
 Alpha  occ. eigenvalues --  -14.25467 -14.18634 -14.17562 -10.11656 -10.10499
 Alpha  occ. eigenvalues --  -10.09995 -10.08292 -10.07407 -10.07341 -10.06378
 Alpha  occ. eigenvalues --  -10.05450  -0.90394  -0.78619  -0.77064  -0.68252
 Alpha  occ. eigenvalues --   -0.63542  -0.62719  -0.60802  -0.56042  -0.50698
 Alpha  occ. eigenvalues --   -0.46885  -0.44018  -0.39275  -0.38462  -0.36991
 Alpha  occ. eigenvalues --   -0.33929  -0.33105  -0.32444  -0.32100  -0.31386
 Alpha  occ. eigenvalues --   -0.30367  -0.29906  -0.29528  -0.28080  -0.27131
 Alpha  occ. eigenvalues --   -0.26460  -0.25955  -0.23848  -0.16353  -0.15482
 Alpha  occ. eigenvalues --   -0.14177  -0.10353   0.04365
 Alpha virt. eigenvalues --    0.06610   0.07772   0.08602   0.09048   0.10050
 Alpha virt. eigenvalues --    0.10132   0.11014   0.11543   0.12077   0.12376
 Alpha virt. eigenvalues --    0.12818   0.13541   0.14142   0.14486   0.15330

  Beta  occ. eigenvalues --  -14.25463 -14.18586 -14.17557 -10.11656 -10.10486
  Beta  occ. eigenvalues --  -10.09934 -10.08293 -10.07405 -10.07310 -10.06369
  Beta  occ. eigenvalues --  -10.05404  -0.90383  -0.78557  -0.77033  -0.68223
  Beta  occ. eigenvalues --   -0.63474  -0.62684  -0.60733  -0.55983  -0.50624
  Beta  occ. eigenvalues --   -0.46866  -0.43969  -0.39227  -0.38401  -0.36955
  Beta  occ. eigenvalues --   -0.33869  -0.33068  -0.32402  -0.32056  -0.31365
  Beta  occ. eigenvalues --   -0.30321  -0.29875  -0.29482  -0.28057  -0.27100
  Beta  occ. eigenvalues --   -0.26413  -0.25920  -0.23802  -0.16334  -0.15470
  Beta  occ. eigenvalues --   -0.14127  -0.10343
  Beta virt. eigenvalues --    0.06889   0.07608   0.08365   0.09227   0.09677
  Beta virt. eigenvalues --    0.10599   0.10716   0.11253   0.12056   0.12376
  Beta virt. eigenvalues --    0.12747   0.13245   0.13771   0.14529   0.14822

 Mulliken charges and spin densities:
               1          2
     1  C   -0.065365  -0.427704
     2  C   -0.550706   0.392236
     3  C    1.165077  -0.657323
     4  N   -0.219940   0.240042
     5  C   -0.786538   0.900050
     6  N   -0.100643   0.018841
     7  C    1.418611  -2.022002
     8  C    1.364904  -1.758886
     9  C   -1.830648   1.340036
    10  C    1.167111  -1.780255
    11  N   -0.282028  -0.054700
    12  H    0.122095   0.016158
    13  H   -0.014535   0.119205
    14  H    0.045792   0.105407
    15  H   -0.092313   0.254930
    16  H   -0.237906   0.404149
    17  H    0.125553   0.034817
    18  H   -0.131008   0.327838
    19  H   -0.680080   0.855399
    20  H   -0.427942   0.583055
    21  H   -0.018318   0.232921
    22  H   -0.052009   0.188580
    23  H   -0.659194   0.820658
    24  H   -0.025993   0.159477
    25  H   -0.237515   0.486426
    26  H    0.003536   0.220648
 Sum of Mulliken charges =  -1.00000   1.00000

 Dipole moment (field-independent basis, Debye):
    X=             -2.9691    Y=              4.4634    Z=             -0.4815  Tot=              5.3823
 Quadrupole moment (field-independent basis, Debye-Ang):
   XX=           -128.2903   YY=           -115.3560   ZZ=            -99.0478
   XY=              4.3619   XZ=              1.1264   YZ=              1.8702

 Summary of Natural Population Analysis:

                                       Natural Population
                Natural  -----------------------------------------------
    Atom  No    Charge         Core      Valence    Rydberg      Total
 -----------------------------------------------------------------------
      C    1   -0.29294      0.99963     2.28855    0.00476     3.29294
      C    2    0.05003      0.99948     1.93823    0.01226     2.94997
      C    3    0.06438      0.99942     1.92206    0.01415     2.93562
      N    4   -0.20672      0.99959     2.69713    0.01000     3.70672
      C    5    0.19498      0.99961     1.78852    0.01689     2.80502
      N    6   -0.27004      0.99968     2.76097    0.00939     3.77004
      C    7   -0.30897      0.99963     2.30377    0.00557     3.30897
      C    8   -0.17756      0.99963     2.16982    0.00811     3.17756
      C    9   -0.02987      0.99958     2.01800    0.01230     3.02987
      C   10   -0.28655      0.99964     2.28146    0.00545     3.28655
      N   11   -0.42008      0.99977     2.90975    0.01056     3.92008
      H   12    0.10235      0.00000     0.39635    0.00129     0.39765
      H   13    0.09980      0.00000     0.39912    0.00108     0.40020
      H   14    0.09950      0.00000     0.39904    0.00145     0.40050
      H   15    0.10463      0.00000     0.39422    0.00116     0.39537
      H   16    0.10572      0.00000     0.39300    0.00128     0.39428
      H   17    0.11274      0.00000     0.38617    0.00109     0.38726
      H   18    0.10530      0.00000     0.39310    0.00159     0.39470
      H   19    0.10051      0.00000     0.39712    0.00237     0.39949
      H   20    0.10425      0.00000     0.39365    0.00210     0.39575
      H   21    0.09831      0.00000     0.39947    0.00222     0.40169
      H   22    0.09739      0.00000     0.40092    0.00169     0.40261
      H   23    0.10026      0.00000     0.39752    0.00222     0.39974
      H   24    0.10026      0.00000     0.39869    0.00105     0.39974
      H   25    0.17838      0.00000     0.31866    0.00296     0.32162
      H   26    0.17396      0.00000     0.32274    0.00330     0.32604
 =======================================================================
   * Total *   -0.00000     10.99565    30.86804    0.13631    42.00000

 Normal termination of Gaussian 16 at Tue Dec  8 20:22:04 2020.
