 Gaussian 16, Revision A.03,

 -----------------------------------------------------------
 # opt freq B3LYP/6-31G(d) empiricaldispersion=gd3bj scf=xqc
 -----------------------------------------------------------

 -------------------------------
 CID_103154303_JID_3546_neutraal
 -------------------------------
 Symbolic Z-matrix:
 Charge =  0 Multiplicity = 1

 SCF Done:  E(RB3LYP) =  -650.876765140     A.U. after   14 cycles
 SCF Done:  E(RB3LYP) =  -650.882146948     A.U. after   12 cycles
 SCF Done:  E(RB3LYP) =  -650.882761299     A.U. after   12 cycles
 SCF Done:  E(RB3LYP) =  -650.882869915     A.U. after   11 cycles
 SCF Done:  E(RB3LYP) =  -650.883248354     A.U. after   12 cycles
 SCF Done:  E(RB3LYP) =  -650.883507779     A.U. after   11 cycles
 SCF Done:  E(RB3LYP) =  -650.883800215     A.U. after   11 cycles
 SCF Done:  E(RB3LYP) =  -650.883839331     A.U. after   12 cycles
 SCF Done:  E(RB3LYP) =  -650.883672815     A.U. after   12 cycles
 SCF Done:  E(RB3LYP) =  -650.883998790     A.U. after   10 cycles
 SCF Done:  E(RB3LYP) =  -650.885766294     A.U. after    7 cycles
 SCF Done:  E(RB3LYP) =  -650.885766411     A.U. after    7 cycles
 SCF Done:  E(RB3LYP) =  -650.885766532     A.U. after    7 cycles
 SCF Done:  E(RB3LYP) =  -650.885766661     A.U. after    7 cycles
 SCF Done:  E(RB3LYP) =  -650.885766737     A.U. after    7 cycles
 Optimization completed.
    -- Stationary point found.
 Normal termination of Gaussian 16 at Mon Dec 14 16:49:02 2020.

 --------------------------------------------------------------------
 #N Geom=AllCheck Guess=TCheck SCRF=Check GenChk RB3LYP/6-31G(d) Freq
 --------------------------------------------------------------------

 Structure from the checkpoint file:  "JID_3546.chk"
 -------------------------------
 CID_103154303_JID_3546_neutraal
 -------------------------------
 Charge =  0 Multiplicity = 1

 SCF Done:  E(RB3LYP) =  -650.885766737     A.U. after    1 cycles

  Exact polarizability: 128.784   2.591  96.465  -3.527   1.965  94.495
 Approx polarizability: 161.133   3.984 134.322  -9.089  -3.633 147.783

                      1                      2                      3
                      A                      A                      A
 Frequencies --     36.3968                59.5772                61.1030
 Red. masses --      5.4605                 4.4210                 4.6036
 Frc consts  --      0.0043                 0.0092                 0.0101
 IR Inten    --      0.5932                 2.7173                 0.9565

                      4                      5                      6
                      A                      A                      A
 Frequencies --     83.1910                84.9560               138.5348
 Red. masses --      3.7200                 3.6025                 2.8658
 Frc consts  --      0.0152                 0.0153                 0.0324
 IR Inten    --      1.4214                 4.0650                 7.6332

                      7                      8                      9
                      A                      A                      A
 Frequencies --    155.3491               164.6718               170.2233
 Red. masses --      2.6169                 3.8952                 2.6506
 Frc consts  --      0.0372                 0.0622                 0.0453
 IR Inten    --      6.9513                 1.8969                 5.2120

                     10                     11                     12
                      A                      A                      A
 Frequencies --    209.6586               214.9819               238.8060
 Red. masses --      1.4160                 1.4129                 2.3059
 Frc consts  --      0.0367                 0.0385                 0.0775
 IR Inten    --     32.8042                17.8927                13.3635

                     13                     14                     15
                      A                      A                      A
 Frequencies --    278.7602               301.2714               317.6258
 Red. masses --      2.3720                 1.1604                 3.0754
 Frc consts  --      0.1086                 0.0621                 0.1828
 IR Inten    --     24.5938                97.1547                 4.8648

                     16                     17                     18
                      A                      A                      A
 Frequencies --    336.7247               373.3398               412.6849
 Red. masses --      2.5165                 2.4416                 2.3531
 Frc consts  --      0.1681                 0.2005                 0.2361
 IR Inten    --      4.9153                 0.7933                 7.6837

                     19                     20                     21
                      A                      A                      A
 Frequencies --    456.9355               510.3889               520.3830
 Red. masses --      3.0450                 2.5009                 2.5761
 Frc consts  --      0.3746                 0.3838                 0.4110
 IR Inten    --     19.9442                 2.4870                 6.2972

                     22                     23                     24
                      A                      A                      A
 Frequencies --    560.5703               610.8990               653.4382
 Red. masses --      1.9996                 3.4657                 1.7286
 Frc consts  --      0.3702                 0.7621                 0.4349
 IR Inten    --     22.5452                26.9525                95.2470

                     25                     26                     27
                      A                      A                      A
 Frequencies --    717.1521               777.0426               805.4276
 Red. masses --      2.6902                 3.6528                 1.6342
 Frc consts  --      0.8152                 1.2995                 0.6246
 IR Inten    --     15.4444                 3.2206                 1.2732

                     28                     29                     30
                      A                      A                      A
 Frequencies --    856.5379               869.3161               884.4276
 Red. masses --      2.5422                 2.1813                 1.7106
 Frc consts  --      1.0989                 0.9712                 0.7883
 IR Inten    --     15.2851                40.4822                76.7052

                     31                     32                     33
                      A                      A                      A
 Frequencies --    905.6782               983.4515              1006.7081
 Red. masses --      2.0098                 2.1526                 1.9712
 Frc consts  --      0.9713                 1.2266                 1.1770
 IR Inten    --     33.0967                56.5320                10.6868

                     34                     35                     36
                      A                      A                      A
 Frequencies --   1013.4295              1034.5862              1067.1360
 Red. masses --      2.2579                 2.0920                 2.8239
 Frc consts  --      1.3663                 1.3193                 1.8947
 IR Inten    --     14.4501                 6.2199                38.4804

                     37                     38                     39
                      A                      A                      A
 Frequencies --   1101.4000              1103.8934              1115.6249
 Red. masses --      3.1096                 2.0059                 2.8366
 Frc consts  --      2.2225                 1.4402                 2.0801
 IR Inten    --     37.6151                 4.4721                64.0309

                     40                     41                     42
                      A                      A                      A
 Frequencies --   1146.6578              1156.1875              1190.3005
 Red. masses --      1.8428                 2.0036                 1.2680
 Frc consts  --      1.4275                 1.5781                 1.0584
 IR Inten    --      9.9133                14.2476                 0.7520

                     43                     44                     45
                      A                      A                      A
 Frequencies --   1217.7801              1231.0801              1237.9301
 Red. masses --      1.5382                 1.3340                 1.4504
 Frc consts  --      1.3440                 1.1912                 1.3096
 IR Inten    --     31.7260                20.2683                 5.4112

                     46                     47                     48
                      A                      A                      A
 Frequencies --   1257.7777              1260.1702              1285.1918
 Red. masses --      1.2171                 1.2364                 1.4551
 Frc consts  --      1.1344                 1.1568                 1.4161
 IR Inten    --     62.5379                19.8196                 6.8579

                     49                     50                     51
                      A                      A                      A
 Frequencies --   1302.8236              1332.0664              1342.4000
 Red. masses --      1.3341                 1.4863                 1.1396
 Frc consts  --      1.3342                 1.5538                 1.2099
 IR Inten    --     86.1756                35.3020                 4.0031

                     52                     53                     54
                      A                      A                      A
 Frequencies --   1355.6962              1400.7562              1418.5297
 Red. masses --      1.3598                 1.2912                 1.3031
 Frc consts  --      1.4724                 1.4927                 1.5449
 IR Inten    --     57.8511                 8.7352                 2.9836

                     55                     56                     57
                      A                      A                      A
 Frequencies --   1423.3697              1439.1782              1463.3772
 Red. masses --      1.3440                 1.4551                 1.4877
 Frc consts  --      1.6043                 1.7758                 1.8771
 IR Inten    --      6.1987                26.8107                 5.1286

                     58                     59                     60
                      A                      A                      A
 Frequencies --   1474.4378              1489.4887              1505.8089
 Red. masses --      1.4614                 1.5951                 1.1319
 Frc consts  --      1.8719                 2.0850                 1.5121
 IR Inten    --      3.8998                44.2288                 2.7367

                     61                     62                     63
                      A                      A                      A
 Frequencies --   1508.9228              1512.2725              1520.4087
 Red. masses --      1.2606                 1.0983                 1.0655
 Frc consts  --      1.6910                 1.4799                 1.4511
 IR Inten    --     34.3610                 4.4955                 7.1971

                     64                     65                     66
                      A                      A                      A
 Frequencies --   1533.8949              1541.1235              1553.6994
 Red. masses --      1.1356                 1.0809                 1.0778
 Frc consts  --      1.5742                 1.5126                 1.5329
 IR Inten    --     22.6792                 9.2187                 5.5908

                     67                     68                     69
                      A                      A                      A
 Frequencies --   1556.0683              1688.4413              1765.8906
 Red. masses --      1.0762                 1.0869                 7.5080
 Frc consts  --      1.5354                 1.8257                13.7945
 IR Inten    --      1.9627                27.7922               336.2380

                     70                     71                     72
                      A                      A                      A
 Frequencies --   3004.3484              3025.9205              3031.9709
 Red. masses --      1.0560                 1.0454                 1.1024
 Frc consts  --      5.6160                 5.6395                 5.9707
 IR Inten    --     54.6288                56.9189                43.8231

                     73                     74                     75
                      A                      A                      A
 Frequencies --   3047.0405              3058.4896              3066.8420
 Red. masses --      1.0617                 1.0653                 1.0705
 Frc consts  --      5.8080                 5.8714                 5.9320
 IR Inten    --     20.3359                43.0970                11.1385

                     76                     77                     78
                      A                      A                      A
 Frequencies --   3070.9505              3085.9311              3087.4266
 Red. masses --      1.0866                 1.0851                 1.0762
 Frc consts  --      6.0375                 6.0884                 6.0442
 IR Inten    --      8.8088                21.0197                64.9590

                     79                     80                     81
                      A                      A                      A
 Frequencies --   3101.8596              3106.8276              3136.6828
 Red. masses --      1.0899                 1.1020                 1.0969
 Frc consts  --      6.1784                 6.2668                 6.3587
 IR Inten    --     44.9635                10.6763                27.3007

                     82                     83                     84
                      A                      A                      A
 Frequencies --   3140.3384              3143.8075              3475.0883
 Red. masses --      1.1059                 1.0985                 1.0493
 Frc consts  --      6.4258                 6.3968                 7.4661
 IR Inten    --     22.1199                13.8428                 1.5687

                     85                     86                     87
                      A                      A                      A
 Frequencies --   3561.8516              3593.2792              3759.6370
 Red. masses --      1.0926                 1.0758                 1.0665
 Frc consts  --      8.1673                 8.1843                 8.8817
 IR Inten    --      0.1878                21.8079                17.3418

 - Thermochemistry -
 -------------------
 Temperature   298.150 Kelvin.  Pressure   1.00000 Atm.
 Atom     1 has atomic number  6 and mass  12.00000

 Molecular mass:   190.13174 amu.
 Principal axes and moments of inertia in atomic units:
                           1         2         3
     Eigenvalues --  1349.979874134.952694654.83217
           X            0.99998   0.00182  -0.00543
           Y           -0.00140   0.99707   0.07647
           Z            0.00555  -0.07646   0.99706
 This molecule is an asymmetric top.
 Rotational symmetry number  1.
 Warning -- assumption of classical behavior for rotation
           may cause significant error
 Rotational temperatures (Kelvin)      0.06416     0.02095     0.01861
 Rotational constants (GHZ):           1.33687     0.43646     0.38771
 Zero-point vibrational energy     722558.2 (Joules/Mol)
                                  172.69557 (Kcal/Mol)
 Warning -- explicit consideration of  23 degrees of freedom as
           vibrations may cause significant error
 Vibrational temperatures:     52.37    85.72    87.91   119.69   122.23
          (Kelvin)            199.32   223.51   236.93   244.91   301.65
                              309.31   343.59   401.07   433.46   456.99
                              484.47   537.15   593.76   657.43   734.34
                              748.72   806.54   878.95   940.15  1031.82
                             1117.99  1158.83  1232.37  1250.75  1272.49
                             1303.07  1414.97  1448.43  1458.10  1488.54
                             1535.37  1584.67  1588.26  1605.14  1649.78
                             1663.50  1712.58  1752.11  1771.25  1781.11
                             1809.66  1813.10  1849.10  1874.47  1916.55
                             1931.41  1950.54  2015.38  2040.95  2047.91
                             2070.66  2105.47  2121.39  2143.04  2166.52
                             2171.00  2175.82  2187.53  2206.93  2217.33
                             2235.43  2238.84  2429.29  2540.72  4322.59
                             4353.62  4362.33  4384.01  4400.48  4412.50
                             4418.41  4439.97  4442.12  4462.88  4470.03
                             4512.99  4518.25  4523.24  4999.88  5124.71
                             5169.93  5409.28

 Zero-point correction=                           0.275208 (Hartree/Particle)
 Thermal correction to Energy=                    0.290609
 Thermal correction to Enthalpy=                  0.291554
 Thermal correction to Gibbs Free Energy=         0.232253
 Sum of electronic and zero-point Energies=           -650.610559
 Sum of electronic and thermal Energies=              -650.595157
 Sum of electronic and thermal Enthalpies=            -650.594213
 Sum of electronic and thermal Free Energies=         -650.653514

                     E (Thermal)             CV                S
                      KCal/Mol        Cal/Mol-Kelvin    Cal/Mol-Kelvin
 Total                  182.360             55.606            124.808
 Electronic               0.000              0.000              0.000
 Translational            0.889              2.981             41.633
 Rotational               0.889              2.981             31.630
 Vibrational            180.583             49.644             51.545
 Vibration     1          0.594              1.982              5.446
 Vibration     2          0.597              1.974              4.471
 Vibration     3          0.597              1.973              4.421
 Vibration     4          0.600              1.961              3.814
 Vibration     5          0.601              1.960              3.773
 Vibration     6          0.614              1.915              2.824
 Vibration     7          0.620              1.897              2.606
 Vibration     8          0.623              1.886              2.495
 Vibration     9          0.625              1.879              2.433
 Vibration    10          0.642              1.826              2.047
 Vibration    11          0.645              1.818              2.001
 Vibration    12          0.657              1.781              1.812
 Vibration    13          0.679              1.713              1.541
 Vibration    14          0.693              1.671              1.410
 Vibration    15          0.704              1.640              1.322
 Vibration    16          0.717              1.602              1.228
 Vibration    17          0.745              1.527              1.066
 Vibration    18          0.776              1.443              0.917
 Vibration    19          0.815              1.346              0.775
 Vibration    20          0.866              1.227              0.633
 Vibration    21          0.875              1.205              0.609
 Vibration    22          0.916              1.117              0.523
 Vibration    23          0.970              1.009              0.431

                           ! Non-Optimized Parameters !
 Normal termination of Gaussian 16 at Mon Dec 14 16:57:24 2020.

 ----------------------------------------------------------------------
 # B3LYP/6-311++G(d,p) empiricaldispersion=gd3bj scf=xqc pop=npa geom=c
 heck
 ----------------------------------------------------------------------

 ---------------------------------------
 CID_103154303_JID_3546_Energie_neutraal
 ---------------------------------------
 Structure from the checkpoint file:  "JID_3546.chk"
 Charge =  0 Multiplicity = 1

 SCF Done:  E(RB3LYP) =  -651.101695205     A.U. after   14 cycles
 Normal termination of Gaussian 16 at Mon Dec 14 17:01:13 2020.

 ----------------------------------------------------------------------
 # B3LYP/6-311++G(d,p) empiricaldispersion=gd3bj scf=xqc pop=npa geom=c
 heck
 ----------------------------------------------------------------------

 -------------------------------------
 CID_103154303_JID_3546_Energie_kation
 -------------------------------------
 Structure from the checkpoint file:  "JID_3546.chk"
 Charge =  1 Multiplicity = 2

 SCF Done:  E(UB3LYP) =  -650.787019713     A.U. after   33 cycles
 SCF Done:  E(UB3LYP) =  -650.787019713     a.u. after    1 cycles
 Normal termination of Gaussian 16 at Mon Dec 14 17:13:47 2020.
 Gaussian 16:  ES64L-G16RevA.03 25-Dec-2016

 ----------------------------------------------------------------------
 # B3LYP/6-311++G(d,p) empiricaldispersion=gd3bj scf=xqc pop=npa geom=c
 heck
 ----------------------------------------------------------------------

 ------------------------------------
 CID_103154303_JID_3546_Energie_anion
 ------------------------------------
 Structure from the checkpoint file:  "JID_3546.chk"
 Charge = -1 Multiplicity = 2

                         Standard orientation:
 ---------------------------------------------------------------------
 Center     Atomic      Atomic             Coordinates (Angstroms)
 Number     Number       Type             X           Y           Z
 ---------------------------------------------------------------------
      1          6           0       -0.887050    1.636326    0.745584
      2          8           0       -1.210788    1.264707   -0.587144
      3          6           0       -1.880208    0.006743   -0.780104
      4          6           0       -0.877097   -1.156967   -0.906350
      5          6           0       -0.064945   -1.451056    0.347320
      6          8           0       -0.611957   -1.735594    1.411977
      7          7           0        1.297412   -1.417688    0.248070
      8          6           0        2.133314   -0.961971   -0.859079
      9          6           0        2.216953    0.565562   -0.985045
     10          6           0        2.764124    1.223687    0.273396
     11          8           0        4.032806    0.638066    0.562807
     12          6           0       -3.015633   -0.227920    0.213927
     13          7           0       -4.048474    0.793565    0.001616
     14          1           0       -0.344160    0.857336    1.289453
     15          1           0       -1.781660    1.899679    1.327116
     16          1           0       -0.254467    2.524128    0.661998
     17          1           0       -2.346500    0.123689   -1.764571
     18          1           0       -1.446079   -2.068308   -1.127318
     19          1           0       -0.241809   -0.954114   -1.770121
     20          1           0        1.759971   -1.600048    1.130467
     21          1           0        3.133460   -1.363378   -0.682928
     22          1           0        1.774657   -1.400003   -1.795034
     23          1           0        2.871370    0.808049   -1.831740
     24          1           0        1.224265    0.979909   -1.196243
     25          1           0        2.852337    2.309220    0.113417
     26          1           0        2.063374    1.066968    1.107242
     27          1           0        4.377557    1.052431    1.367531
     28          1           0       -3.449771   -1.212246    0.002676
     29          1           0       -2.614308   -0.284610    1.234230
     30          1           0       -4.721888    0.770710    0.764663
     31          1           0       -3.616151    1.715598    0.022336
 ---------------------------------------------------------------------

 SCF Done:  E(UB3LYP) =  -651.090788279     A.U. after   32 cycles

 The electronic state is 2-A.
 Alpha  occ. eigenvalues --  -19.03282 -19.01463 -18.99055 -14.24124 -14.20136
 Alpha  occ. eigenvalues --  -10.17982 -10.13551 -10.11288 -10.11263 -10.10941
 Alpha  occ. eigenvalues --  -10.09626 -10.08843 -10.06951  -0.94526  -0.93792
 Alpha  occ. eigenvalues --   -0.91486  -0.82751  -0.79032  -0.69383  -0.67775
 Alpha  occ. eigenvalues --   -0.61373  -0.58906  -0.58467  -0.51341  -0.49234
 Alpha  occ. eigenvalues --   -0.46429  -0.42542  -0.41943  -0.40915  -0.39321
 Alpha  occ. eigenvalues --   -0.38519  -0.37334  -0.37035  -0.35522  -0.33608
 Alpha  occ. eigenvalues --   -0.32781  -0.32648  -0.31212  -0.30621  -0.29610
 Alpha  occ. eigenvalues --   -0.28318  -0.28222  -0.27434  -0.26531  -0.25713
 Alpha  occ. eigenvalues --   -0.23138  -0.21394  -0.17442  -0.17041  -0.16596
 Alpha  occ. eigenvalues --   -0.15983  -0.15059   0.04324
 Alpha virt. eigenvalues --    0.06053   0.06459   0.07883   0.08396   0.08964
 Alpha virt. eigenvalues --    0.09595   0.09823   0.10522   0.11054   0.11570
 Alpha virt. eigenvalues --    0.11855   0.12467   0.12925   0.13725   0.14450

  Beta  occ. eigenvalues --  -19.03279 -19.01405 -18.99050 -14.24110 -14.20113
  Beta  occ. eigenvalues --  -10.17982 -10.13547 -10.11260 -10.11247 -10.10904
  Beta  occ. eigenvalues --  -10.09617 -10.08827 -10.06944  -0.94517  -0.93783
  Beta  occ. eigenvalues --   -0.91363  -0.82729  -0.78996  -0.69357  -0.67723
  Beta  occ. eigenvalues --   -0.61333  -0.58836  -0.58417  -0.51296  -0.49181
  Beta  occ. eigenvalues --   -0.46390  -0.42435  -0.41918  -0.40880  -0.39249
  Beta  occ. eigenvalues --   -0.38494  -0.37302  -0.37000  -0.35491  -0.33581
  Beta  occ. eigenvalues --   -0.32748  -0.32620  -0.31191  -0.30592  -0.29584
  Beta  occ. eigenvalues --   -0.28292  -0.28186  -0.27407  -0.26510  -0.25685
  Beta  occ. eigenvalues --   -0.23069  -0.21378  -0.17402  -0.17009  -0.16578
  Beta  occ. eigenvalues --   -0.15961  -0.15039
  Beta virt. eigenvalues --    0.06374   0.06922   0.07585   0.08330   0.08834
  Beta virt. eigenvalues --    0.09422   0.09783   0.10187   0.10981   0.11265
  Beta virt. eigenvalues --    0.11882   0.12076   0.12709   0.13314   0.13891

 Mulliken charges and spin densities:
               1          2
     1  C    0.302146  -0.663458
     2  O   -0.118279   0.022853
     3  C   -0.243858   0.273949
     4  C    0.302991  -0.479068
     5  C   -0.325515   0.073780
     6  O   -0.300914   0.016779
     7  N   -0.216090   0.075749
     8  C    0.634960  -1.032959
     9  C   -1.045400   0.996572
    10  C    1.537156  -2.039587
    11  O   -0.337311   0.066692
    12  C    0.173296  -0.825925
    13  N   -0.385264   0.049080
    14  H    0.104251   0.086789
    15  H   -0.171839   0.314116
    16  H   -0.141778   0.321741
    17  H   -0.065917   0.268270
    18  H   -0.091226   0.268438
    19  H    0.071876   0.080695
    20  H    0.137160   0.181370
    21  H    0.099963   0.105030
    22  H   -0.185342   0.340892
    23  H   -0.030340   0.214085
    24  H    0.205668  -0.045175
    25  H   -0.365810   0.526550
    26  H   -0.473481   0.641088
    27  H   -0.380959   0.654449
    28  H    0.116572   0.052873
    29  H    0.076836   0.118411
    30  H   -0.012515   0.236541
    31  H    0.128962   0.099379
 Sum of Mulliken charges =  -1.00000   1.00000

 Dipole moment (field-independent basis, Debye):
    X=             -4.1385    Y=             -2.9488    Z=             -3.5036  Tot=              6.1723
 Quadrupole moment (field-independent basis, Debye-Ang):
   XX=           -164.8609   YY=           -119.6280   ZZ=           -116.1989
   XY=             -8.3901   XZ=            -12.2136   YZ=             -2.0195

 Summary of Natural Population Analysis:

                                       Natural Population
                Natural  -----------------------------------------------
    Atom  No    Charge         Core      Valence    Rydberg      Total
 -----------------------------------------------------------------------
      C    1   -0.10756      0.99959     2.09660    0.01138     3.10756
      O    2   -0.30871      0.99989     3.29907    0.00975     4.30871
      C    3    0.07046      0.99953     1.91491    0.01510     2.92954
      C    4   -0.24403      0.99955     2.23525    0.00923     3.24403
      C    5    0.34193      0.99966     1.63586    0.02255     2.65807
      O    6   -0.33247      0.99988     3.32676    0.00583     4.33247
      N    7   -0.31582      0.99966     2.80558    0.01058     3.81582
      C    8   -0.08987      0.99960     2.08016    0.01011     3.08987
      C    9   -0.21050      0.99961     2.20177    0.00912     3.21050
      C   10   -0.01042      0.99960     1.99810    0.01272     3.01042
      O   11   -0.37842      0.99989     3.37148    0.00704     4.37842
      C   12   -0.10866      0.99959     2.09930    0.00977     3.10866
      N   13   -0.42521      0.99977     2.91517    0.01027     3.92521
      H   14    0.08776      0.00000     0.41037    0.00188     0.41224
      H   15    0.07823      0.00000     0.42020    0.00157     0.42177
      H   16    0.09310      0.00000     0.40565    0.00124     0.40690
      H   17    0.09504      0.00000     0.40333    0.00163     0.40496
      H   18    0.11384      0.00000     0.38493    0.00123     0.38616
      H   19    0.10566      0.00000     0.39290    0.00144     0.39434
      H   20    0.19792      0.00000     0.29988    0.00220     0.30208
      H   21    0.10846      0.00000     0.39010    0.00144     0.39154
      H   22    0.09398      0.00000     0.40478    0.00125     0.40602
      H   23    0.09862      0.00000     0.40019    0.00119     0.40138
      H   24    0.10777      0.00000     0.39011    0.00211     0.39223
      H   25    0.08087      0.00000     0.41700    0.00213     0.41913
      H   26    0.07772      0.00000     0.41947    0.00281     0.42228
      H   27    0.23908      0.00000     0.24143    0.01949     0.26092
      H   28    0.09406      0.00000     0.40459    0.00135     0.40594
      H   29    0.09708      0.00000     0.40110    0.00182     0.40292
      H   30    0.17431      0.00000     0.32420    0.00149     0.32569
      H   31    0.17579      0.00000     0.32199    0.00222     0.32421
 =======================================================================
   * Total *   -0.00000     12.99583    38.81222    0.19195    52.00000

 Normal termination of Gaussian 16 at Mon Dec 14 17:25:54 2020.
