 Gaussian 16, Revision A.03,

 -----------------------------------------------------------
 # opt freq B3LYP/6-31G(d) empiricaldispersion=gd3bj scf=xqc
 -----------------------------------------------------------

 -------------------------------
 CID_117793806_JID_6572_neutraal
 -------------------------------
 Symbolic Z-matrix:
 Charge =  0 Multiplicity = 1

 SCF Done:  E(RB3LYP) =  -736.751140914     A.U. after   14 cycles
 SCF Done:  E(RB3LYP) =  -736.754182174     A.U. after   13 cycles
 SCF Done:  E(RB3LYP) =  -736.753237980     A.U. after   12 cycles
 SCF Done:  E(RB3LYP) =  -736.755703446     A.U. after   13 cycles
 SCF Done:  E(RB3LYP) =  -736.755358707     A.U. after   13 cycles
 SCF Done:  E(RB3LYP) =  -736.755988915     A.U. after   13 cycles
 SCF Done:  E(RB3LYP) =  -736.756218410     A.U. after   12 cycles
 SCF Done:  E(RB3LYP) =  -736.756273052     A.U. after   12 cycles
 SCF Done:  E(RB3LYP) =  -736.756298318     A.U. after   10 cycles
 SCF Done:  E(RB3LYP) =  -736.756321737     A.U. after   12 cycles
 SCF Done:  E(RB3LYP) =  -736.759677089     A.U. after   13 cycles
 SCF Done:  E(RB3LYP) =  -736.759768559     A.U. after   12 cycles
 SCF Done:  E(RB3LYP) =  -736.759778582     A.U. after    9 cycles
 SCF Done:  E(RB3LYP) =  -736.759779269     A.U. after    8 cycles
 SCF Done:  E(RB3LYP) =  -736.759779533     A.U. after    7 cycles
 Optimization completed.
    -- Stationary point found.
 Normal termination of Gaussian 16 at Fri Dec 11 00:11:16 2020.

 --------------------------------------------------------------------
 #N Geom=AllCheck Guess=TCheck SCRF=Check GenChk RB3LYP/6-31G(d) Freq
 --------------------------------------------------------------------

 Structure from the checkpoint file:  "JID_6572.chk"
 -------------------------------
 CID_117793806_JID_6572_neutraal
 -------------------------------
 Charge =  0 Multiplicity = 1

 SCF Done:  E(RB3LYP) =  -736.759779532     A.U. after    1 cycles

  Exact polarizability: 163.709  -5.119 140.743   3.902   1.011 130.846
 Approx polarizability: 209.683 -11.302 191.662   6.851   0.195 196.568

                      1                      2                      3
                      A                      A                      A
 Frequencies --     26.6107                32.8162                45.7622
 Red. masses --      4.3860                 3.7276                 3.4121
 Frc consts  --      0.0018                 0.0024                 0.0042
 IR Inten    --      0.7813                 1.1880                 1.9157

                      4                      5                      6
                      A                      A                      A
 Frequencies --     51.6026                75.4240                91.4667
 Red. masses --      4.0025                 2.0214                 2.7342
 Frc consts  --      0.0063                 0.0068                 0.0135
 IR Inten    --      1.2477                 4.6332                 2.8924

                      7                      8                      9
                      A                      A                      A
 Frequencies --    104.4595               133.6154               154.8636
 Red. masses --      6.1585                 2.8114                 2.6379
 Frc consts  --      0.0396                 0.0296                 0.0373
 IR Inten    --      2.3259                 0.1239                 1.2358

                     10                     11                     12
                      A                      A                      A
 Frequencies --    181.0310               207.1171               214.1393
 Red. masses --      1.6539                 1.5547                 1.9782
 Frc consts  --      0.0319                 0.0393                 0.0534
 IR Inten    --      0.0874                 0.2335                 7.7868

                     13                     14                     15
                      A                      A                      A
 Frequencies --    239.2572               250.1918               262.9231
 Red. masses --      1.5944                 1.4059                 2.0283
 Frc consts  --      0.0538                 0.0518                 0.0826
 IR Inten    --      3.5009                 0.4389                 0.3851

                     16                     17                     18
                      A                      A                      A
 Frequencies --    265.5771               280.7534               295.5893
 Red. masses --      1.7449                 1.7151                 1.1097
 Frc consts  --      0.0725                 0.0796                 0.0571
 IR Inten    --      1.4059                 0.7379                 0.6305

                     19                     20                     21
                      A                      A                      A
 Frequencies --    310.5503               329.4807               356.7141
 Red. masses --      1.3544                 2.4270                 2.7103
 Frc consts  --      0.0770                 0.1552                 0.2032
 IR Inten    --      0.7881                 0.7725                 2.7256

                     22                     23                     24
                      A                      A                      A
 Frequencies --    362.9369               388.7733               389.7443
 Red. masses --      2.4634                 2.2549                 2.1616
 Frc consts  --      0.1912                 0.2008                 0.1935
 IR Inten    --      8.7044                 1.9735                 2.6796

                     25                     26                     27
                      A                      A                      A
 Frequencies --    416.6372               419.6882               428.5567
 Red. masses --      2.3461                 2.9676                 2.1451
 Frc consts  --      0.2399                 0.3080                 0.2321
 IR Inten    --      2.5505                 3.2519                 1.6792

                     28                     29                     30
                      A                      A                      A
 Frequencies --    480.5973               512.8531               519.7316
 Red. masses --      3.0528                 2.5860                 3.1773
 Frc consts  --      0.4154                 0.4007                 0.5057
 IR Inten    --      0.9689                 4.3933                 6.0706

                     31                     32                     33
                      A                      A                      A
 Frequencies --    538.9346               586.1947               702.7764
 Red. masses --      2.5738                 3.1323                 2.6663
 Frc consts  --      0.4404                 0.6342                 0.7759
 IR Inten    --      1.1732                 4.6135                 4.1012

                     34                     35                     36
                      A                      A                      A
 Frequencies --    741.7752               768.4041               791.3471
 Red. masses --      3.3087                 1.5562                 1.4998
 Frc consts  --      1.0726                 0.5414                 0.5534
 IR Inten    --      6.6466                 3.2803                 5.3661

                     37                     38                     39
                      A                      A                      A
 Frequencies --    837.5888               863.5323               888.1595
 Red. masses --      1.9346                 2.0510                 2.4061
 Frc consts  --      0.7997                 0.9011                 1.1183
 IR Inten    --     12.0483                 5.7376                16.1269

                     40                     41                     42
                      A                      A                      A
 Frequencies --    899.5618               937.0832               944.0692
 Red. masses --      2.1573                 1.5443                 1.5655
 Frc consts  --      1.0285                 0.7990                 0.8221
 IR Inten    --     13.9986                 1.0761                 1.0219

                     43                     44                     45
                      A                      A                      A
 Frequencies --    955.2302               956.7987               975.0210
 Red. masses --      1.7366                 1.7027                 1.8239
 Frc consts  --      0.9336                 0.9184                 1.0216
 IR Inten    --      0.5721                 0.5996                 3.4926

                     46                     47                     48
                      A                      A                      A
 Frequencies --   1010.6095              1025.8633              1063.4943
 Red. masses --      1.4354                 1.3627                 1.8832
 Frc consts  --      0.8638                 0.8449                 1.2550
 IR Inten    --      3.8301                 1.7889                 5.3558

                     49                     50                     51
                      A                      A                      A
 Frequencies --   1067.4194              1075.6014              1085.8489
 Red. masses --      1.9154                 2.3663                 1.8397
 Frc consts  --      1.2858                 1.6129                 1.2780
 IR Inten    --      0.7674                54.6279                 5.0739

                     52                     53                     54
                      A                      A                      A
 Frequencies --   1100.7075              1111.0009              1133.9903
 Red. masses --      2.8132                 2.9863                 5.6638
 Frc consts  --      2.0081                 2.1718                 4.2912
 IR Inten    --     37.2797                67.3760               118.8105

                     55                     56                     57
                      A                      A                      A
 Frequencies --   1178.1819              1190.2348              1197.6096
 Red. masses --      1.5767                 1.3074                 1.9858
 Frc consts  --      1.2895                 1.0913                 1.6781
 IR Inten    --     30.7576                 0.2617                 1.5735

                     58                     59                     60
                      A                      A                      A
 Frequencies --   1208.5823              1214.1177              1229.6396
 Red. masses --      2.1654                 1.8708                 1.7291
 Frc consts  --      1.8636                 1.6248                 1.5403
 IR Inten    --     24.0223                19.9211                47.8751

                     61                     62                     63
                      A                      A                      A
 Frequencies --   1237.0583              1252.8923              1276.0084
 Red. masses --      1.7483                 1.7729                 1.7589
 Frc consts  --      1.5763                 1.6397                 1.6874
 IR Inten    --     19.5612                66.8053                37.9715

                     64                     65                     66
                      A                      A                      A
 Frequencies --   1295.6272              1320.4984              1335.4591
 Red. masses --      2.1908                 1.7723                 1.3727
 Frc consts  --      2.1667                 1.8208                 1.4424
 IR Inten    --      1.0751                 1.4814                 9.2567

                     67                     68                     69
                      A                      A                      A
 Frequencies --   1353.5861              1356.7634              1375.5978
 Red. masses --      1.4248                 1.3592                 1.2118
 Frc consts  --      1.5381                 1.4741                 1.3511
 IR Inten    --      8.3588                 1.7713                 8.7592

                     70                     71                     72
                      A                      A                      A
 Frequencies --   1406.4393              1412.1321              1425.5783
 Red. masses --      1.3769                 1.4072                 1.2746
 Frc consts  --      1.6047                 1.6533                 1.5262
 IR Inten    --      3.2141                 1.4704                12.9961

                     73                     74                     75
                      A                      A                      A
 Frequencies --   1428.9272              1442.3765              1443.7547
 Red. masses --      1.3158                 1.2078                 1.2337
 Frc consts  --      1.5829                 1.4805                 1.5151
 IR Inten    --     10.8651                 4.3567                 9.6783

                     76                     77                     78
                      A                      A                      A
 Frequencies --   1448.0264              1456.4890              1494.5701
 Red. masses --      1.2412                 1.2947                 1.0976
 Frc consts  --      1.5333                 1.6182                 1.4446
 IR Inten    --     14.5392                 3.1064                12.8225

                     79                     80                     81
                      A                      A                      A
 Frequencies --   1500.2052              1504.0606              1507.2496
 Red. masses --      1.1262                 1.0724                 1.0718
 Frc consts  --      1.4933                 1.4294                 1.4347
 IR Inten    --      1.1931                 0.4087                 0.7570

                     82                     83                     84
                      A                      A                      A
 Frequencies --   1512.8308              1516.1234              1516.5249
 Red. masses --      1.0620                 1.0627                 1.0533
 Frc consts  --      1.4320                 1.4393                 1.4272
 IR Inten    --      2.0471                 2.8700                 0.9437

                     85                     86                     87
                      A                      A                      A
 Frequencies --   1518.9462              1526.2163              1526.3448
 Red. masses --      1.0773                 1.0629                 1.0547
 Frc consts  --      1.4645                 1.4587                 1.4478
 IR Inten    --      7.4394                 4.3945                 1.0303

                     88                     89                     90
                      A                      A                      A
 Frequencies --   1531.8874              1535.6807              1543.8105
 Red. masses --      1.0610                 1.0589                 1.0504
 Frc consts  --      1.4670                 1.4713                 1.4750
 IR Inten    --      2.3083                 6.0635                 1.3816

                     91                     92                     93
                      A                      A                      A
 Frequencies --   1547.7113              1549.3855              1557.1215
 Red. masses --      1.0645                 1.0595                 1.0751
 Frc consts  --      1.5023                 1.4985                 1.5358
 IR Inten    --     14.8599                 2.9872                 9.2327

                     94                     95                     96
                      A                      A                      A
 Frequencies --   1828.3913              2871.6345              3013.3237
 Red. masses --      9.7860                 1.0823                 1.0353
 Frc consts  --     19.2750                 5.2583                 5.5387
 IR Inten    --    165.5059               126.8114                58.4203

                     97                     98                     99
                      A                      A                      A
 Frequencies --   3017.6140              3030.5099              3042.6612
 Red. masses --      1.0708                 1.0688                 1.0622
 Frc consts  --      5.7450                 5.7832                 5.7937
 IR Inten    --     18.1474                36.7469                26.2089

                    100                    101                    102
                      A                      A                      A
 Frequencies --   3051.9310              3055.3763              3058.3088
 Red. masses --      1.0421                 1.0370                 1.0436
 Frc consts  --      5.7187                 5.7039                 5.7508
 IR Inten    --      1.9132                16.0747                12.9595

                    103                    104                    105
                      A                      A                      A
 Frequencies --   3062.5603              3065.0607              3066.2980
 Red. masses --      1.0394                 1.0928                 1.0582
 Frc consts  --      5.7439                 6.0488                 5.8622
 IR Inten    --     13.2190                56.2080                33.2338

                    106                    107                    108
                      A                      A                      A
 Frequencies --   3072.1592              3089.4657              3097.9088
 Red. masses --      1.0974                 1.0598                 1.0917
 Frc consts  --      6.1023                 5.9601                 6.1731
 IR Inten    --     26.4718                10.6035                44.7841

                    109                    110                    111
                      A                      A                      A
 Frequencies --   3109.5186              3118.0828              3122.7288
 Red. masses --      1.0987                 1.1020                 1.1018
 Frc consts  --      6.2590                 6.3126                 6.3300
 IR Inten    --     12.1264                 0.7174                27.2407

                    112                    113                    114
                      A                      A                      A
 Frequencies --   3123.3941              3128.1294              3130.5948
 Red. masses --      1.1004                 1.0999                 1.1033
 Frc consts  --      6.3248                 6.3412                 6.3707
 IR Inten    --     59.4914                16.3794                20.3047

                    115                    116                    117
                      A                      A                      A
 Frequencies --   3132.4895              3136.0134              3138.5861
 Red. masses --      1.1022                 1.1032                 1.1026
 Frc consts  --      6.3725                 6.3923                 6.3991
 IR Inten    --     51.3632                17.1252                34.3853

                    118                    119                    120
                      A                      A                      A
 Frequencies --   3140.8374              3142.3755              3163.5732
 Red. masses --      1.1016                 1.1055                 1.0911
 Frc consts  --      6.4029                 6.4314                 6.4337
 IR Inten    --     29.4261                22.0998                 3.0813

 - Thermochemistry -
 -------------------
 Temperature   298.150 Kelvin.  Pressure   1.00000 Atm.
 Atom     1 has atomic number  6 and mass  12.00000

 Molecular mass:   230.18819 amu.
 Principal axes and moments of inertia in atomic units:
                           1         2         3
     Eigenvalues --  2629.465195667.838326920.69105
           X            0.99986  -0.01612   0.00429
           Y            0.01612   0.99987   0.00072
           Z           -0.00430  -0.00065   0.99999
 This molecule is an asymmetric top.
 Rotational symmetry number  1.
 Warning -- assumption of classical behavior for rotation
           may cause significant error
 Rotational temperatures (Kelvin)      0.03294     0.01528     0.01252
 Rotational constants (GHZ):           0.68635     0.31842     0.26077
 Zero-point vibrational energy     997531.6 (Joules/Mol)
                                  238.41576 (Kcal/Mol)
 Warning -- explicit consideration of  32 degrees of freedom as
           vibrations may cause significant error
 Vibrational temperatures:     38.29    47.22    65.84    74.24   108.52
          (Kelvin)            131.60   150.29   192.24   222.81   260.46
                              298.00   308.10   344.24   359.97   378.29
                              382.11   403.94   425.29   446.81   474.05
                              513.23   522.19   559.36   560.76   599.45
                              603.84   616.60   691.47   737.88   747.78
                              775.41   843.40  1011.14  1067.25  1105.56
                             1138.57  1205.10  1242.43  1277.86  1294.27
                             1348.25  1358.30  1374.36  1376.62  1402.84
                             1454.04  1475.99  1530.13  1535.78  1547.55
                             1562.29  1583.67  1598.48  1631.56  1695.14
                             1712.48  1723.09  1738.88  1746.84  1769.18
                             1779.85  1802.63  1835.89  1864.12  1899.90
                             1921.43  1947.51  1952.08  1979.18  2023.55
                             2031.74  2051.09  2055.91  2075.26  2077.24
                             2083.39  2095.56  2150.35  2158.46  2164.01
                             2168.60  2176.63  2181.36  2181.94  2185.42
                             2195.88  2196.07  2204.04  2209.50  2221.20
                             2226.81  2229.22  2240.35  2630.65  4131.64
                             4335.50  4341.67  4360.23  4377.71  4391.05
                             4396.00  4400.22  4406.34  4409.94  4411.72
                             4420.15  4445.05  4457.20  4473.90  4486.23
                             4492.91  4493.87  4500.68  4504.23  4506.95
                             4512.02  4515.73  4518.96  4521.18  4551.68

 Zero-point correction=                           0.379940 (Hartree/Particle)
 Thermal correction to Energy=                    0.399681
 Thermal correction to Enthalpy=                  0.400625
 Thermal correction to Gibbs Free Energy=         0.331501
 Sum of electronic and zero-point Energies=           -736.379840
 Sum of electronic and thermal Energies=              -736.360099
 Sum of electronic and thermal Enthalpies=            -736.359154
 Sum of electronic and thermal Free Energies=         -736.428279

                     E (Thermal)             CV                S
                      KCal/Mol        Cal/Mol-Kelvin    Cal/Mol-Kelvin
 Total                  250.804             73.471            145.484
 Electronic               0.000              0.000              0.000
 Translational            0.889              2.981             42.203
 Rotational               0.889              2.981             33.000
 Vibrational            249.026             67.509             70.281
 Vibration     1          0.593              1.984              6.067
 Vibration     2          0.594              1.983              5.651
 Vibration     3          0.595              1.979              4.993
 Vibration     4          0.596              1.977              4.755
 Vibration     5          0.599              1.965              4.007
 Vibration     6          0.602              1.955              3.628
 Vibration     7          0.605              1.946              3.369
 Vibration     8          0.613              1.920              2.893
 Vibration     9          0.620              1.897              2.612
 Vibration    10          0.630              1.866              2.318
 Vibration    11          0.641              1.830              2.069
 Vibration    12          0.644              1.819              2.008
 Vibration    13          0.657              1.780              1.808
 Vibration    14          0.663              1.762              1.729
 Vibration    15          0.670              1.741              1.642
 Vibration    16          0.671              1.736              1.625
 Vibration    17          0.680              1.709              1.529
 Vibration    18          0.690              1.682              1.442
 Vibration    19          0.699              1.654              1.359
 Vibration    20          0.712              1.617              1.263
 Vibration    21          0.732              1.561              1.136
 Vibration    22          0.737              1.549              1.109
 Vibration    23          0.757              1.494              1.005
 Vibration    24          0.758              1.492              1.001
 Vibration    25          0.780              1.434              0.903
 Vibration    26          0.782              1.427              0.893
 Vibration    27          0.790              1.408              0.863
 Vibration    28          0.837              1.293              0.708
 Vibration    29          0.868              1.222              0.627
 Vibration    30          0.875              1.206              0.611
 Vibration    31          0.894              1.164              0.568
 Vibration    32          0.943              1.061              0.474

                           ! Non-Optimized Parameters !
 Normal termination of Gaussian 16 at Fri Dec 11 00:29:03 2020.

 ----------------------------------------------------------------------
 # B3LYP/6-311++G(d,p) empiricaldispersion=gd3bj scf=xqc pop=npa geom=c
 heck
 ----------------------------------------------------------------------

 ---------------------------------------
 CID_117793806_JID_6572_Energie_neutraal
 ---------------------------------------
 Structure from the checkpoint file:  "JID_6572.chk"
 Charge =  0 Multiplicity = 1

 SCF Done:  E(RB3LYP) =  -736.975108318     A.U. after   14 cycles
 Normal termination of Gaussian 16 at Fri Dec 11 00:38:17 2020.

 ----------------------------------------------------------------------
 # B3LYP/6-311++G(d,p) empiricaldispersion=gd3bj scf=xqc pop=npa geom=c
 heck
 ----------------------------------------------------------------------

 -------------------------------------
 CID_117793806_JID_6572_Energie_kation
 -------------------------------------
 Structure from the checkpoint file:  "JID_6572.chk"
 Charge =  1 Multiplicity = 2

 SCF Done:  E(UB3LYP) =  -736.669308657     A.U. after   26 cycles
 Normal termination of Gaussian 16 at Fri Dec 11 01:02:26 2020.
 Gaussian 16:  ES64L-G16RevA.03 25-Dec-2016

 ----------------------------------------------------------------------
 # B3LYP/6-311++G(d,p) empiricaldispersion=gd3bj scf=xqc pop=npa geom=c
 heck
 ----------------------------------------------------------------------

 ------------------------------------
 CID_117793806_JID_6572_Energie_anion
 ------------------------------------
 Structure from the checkpoint file:  "JID_6572.chk"
 Charge = -1 Multiplicity = 2

                         Standard orientation:
 ---------------------------------------------------------------------
 Center     Atomic      Atomic             Coordinates (Angstroms)
 Number     Number       Type             X           Y           Z
 ---------------------------------------------------------------------
      1          6           0        2.706642   -2.321789   -0.637435
      2          6           0        1.681873   -1.456738    0.100318
      3          6           0        0.741946   -2.358406    0.918065
      4          6           0        2.374396   -0.450331    1.053133
      5          6           0        3.446090    0.472118    0.450666
      6          6           0        2.917012    1.553386   -0.510842
      7          6           0        2.087664    2.586732    0.211540
      8          8           0        0.987353    2.974791   -0.119162
      9          8           0        0.974438   -0.790219   -0.961455
     10          6           0       -0.166356   -0.005870   -0.607930
     11          6           0       -1.468736   -0.691881   -1.017368
     12          6           0       -2.714202   -0.029854   -0.404690
     13          6           0       -2.782644    1.465069   -0.752310
     14          6           0       -3.976121   -0.756306   -0.887831
     15          8           0       -2.538919   -0.240521    1.014338
     16          6           0       -3.438937    0.411574    1.884783
     17          1           0        3.370490   -2.832285    0.068786
     18          1           0        3.313448   -1.714884   -1.314935
     19          1           0        2.189218   -3.075429   -1.238495
     20          1           0        1.306620   -2.901864    1.683640
     21          1           0       -0.043545   -1.784830    1.419805
     22          1           0        0.262287   -3.092348    0.262843
     23          1           0        1.604184    0.157676    1.545920
     24          1           0        2.842395   -1.036544    1.854218
     25          1           0        3.972859    0.968341    1.278117
     26          1           0        4.204394   -0.121400   -0.070309
     27          1           0        3.778427    2.091324   -0.937442
     28          1           0        2.340473    1.116886   -1.327182
     29          1           0        2.575885    3.007394    1.123126
     30          1           0       -0.192732    0.204289    0.464128
     31          1           0       -0.055310    0.955299   -1.115457
     32          1           0       -1.556718   -0.700995   -2.110317
     33          1           0       -1.447217   -1.734729   -0.686380
     34          1           0       -2.727263    1.596173   -1.838272
     35          1           0       -3.722587    1.914538   -0.415336
     36          1           0       -1.953600    2.019202   -0.302092
     37          1           0       -3.930672   -1.815066   -0.613098
     38          1           0       -4.883562   -0.324376   -0.452587
     39          1           0       -4.066661   -0.682880   -1.976950
     40          1           0       -3.329244    1.504664    1.860761
     41          1           0       -4.489037    0.161943    1.675048
     42          1           0       -3.197271    0.061261    2.892099
 ---------------------------------------------------------------------

 SCF Done:  E(UB3LYP) =  -736.963790145     A.U. after   33 cycles
 SCF Done:  E(UB3LYP) =  -736.963790145     a.u. after    1 cycles

 The electronic state is 2-A.
 Alpha  occ. eigenvalues --  -19.02684 -19.01242 -18.99856 -10.13757 -10.13165
 Alpha  occ. eigenvalues --  -10.12906 -10.11650 -10.09966 -10.06884 -10.06832
 Alpha  occ. eigenvalues --  -10.06668 -10.06414 -10.06401 -10.06300 -10.05907
 Alpha  occ. eigenvalues --  -10.05802  -0.93830  -0.92953  -0.92355  -0.71925
 Alpha  occ. eigenvalues --   -0.70668  -0.67592  -0.62982  -0.60389  -0.60018
 Alpha  occ. eigenvalues --   -0.59519  -0.58905  -0.52844  -0.51624  -0.46381
 Alpha  occ. eigenvalues --   -0.45807  -0.44011  -0.39884  -0.39446  -0.37483
 Alpha  occ. eigenvalues --   -0.37311  -0.36838  -0.36342  -0.35082  -0.34664
 Alpha  occ. eigenvalues --   -0.32969  -0.32677  -0.32470  -0.31215  -0.30904
 Alpha  occ. eigenvalues --   -0.30268  -0.29340  -0.29163  -0.28553  -0.27983
 Alpha  occ. eigenvalues --   -0.27784  -0.26842  -0.26031  -0.25857  -0.25400
 Alpha  occ. eigenvalues --   -0.24808  -0.23955  -0.23279  -0.22393  -0.21233
 Alpha  occ. eigenvalues --   -0.19578  -0.16671  -0.14839  -0.13961   0.04285
 Alpha virt. eigenvalues --    0.05578   0.06945   0.07221   0.07688   0.08269
 Alpha virt. eigenvalues --    0.08496   0.08637   0.09712   0.09751   0.10568
 Alpha virt. eigenvalues --    0.10871   0.11339   0.11389   0.11506   0.12554

  Beta  occ. eigenvalues --  -19.02681 -19.01240 -18.99663 -10.13755 -10.12972
  Beta  occ. eigenvalues --  -10.12904 -10.11625 -10.09965 -10.06863 -10.06791
  Beta  occ. eigenvalues --  -10.06658 -10.06410 -10.06380 -10.06316 -10.05897
  Beta  occ. eigenvalues --  -10.05780  -0.93823  -0.92598  -0.92333  -0.71907
  Beta  occ. eigenvalues --   -0.70634  -0.67514  -0.62962  -0.60359  -0.59917
  Beta  occ. eigenvalues --   -0.59477  -0.58867  -0.52813  -0.51451  -0.46116
  Beta  occ. eigenvalues --   -0.45776  -0.43943  -0.39861  -0.39410  -0.37445
  Beta  occ. eigenvalues --   -0.37275  -0.36774  -0.36304  -0.34933  -0.34530
  Beta  occ. eigenvalues --   -0.32906  -0.32628  -0.32365  -0.31171  -0.30870
  Beta  occ. eigenvalues --   -0.30222  -0.29311  -0.29078  -0.28421  -0.27901
  Beta  occ. eigenvalues --   -0.27596  -0.26655  -0.25981  -0.25750  -0.25278
  Beta  occ. eigenvalues --   -0.24774  -0.23908  -0.22980  -0.22340  -0.21217
  Beta  occ. eigenvalues --   -0.19561  -0.16660  -0.14820  -0.13812
  Beta virt. eigenvalues --    0.06165   0.06880   0.07485   0.07896   0.08507
  Beta virt. eigenvalues --    0.08721   0.08924   0.09048   0.09867   0.09943
  Beta virt. eigenvalues --    0.10899   0.11084   0.11462   0.11567   0.11674

 Mulliken charges and spin densities:
               1          2
     1  C    0.336936  -0.848805
     2  C   -0.858899   0.688232
     3  C   -0.131250  -0.314320
     4  C   -0.016634   0.039923
     5  C    1.076760  -1.737788
     6  C   -0.581185   0.555277
     7  C    0.145850  -0.233330
     8  O   -0.249937   0.057118
     9  O    0.066326   0.008431
    10  C   -1.222835   0.836422
    11  C    1.026597  -1.633050
    12  C   -1.283844   1.580970
    13  C   -0.421154  -0.339007
    14  C    0.766803  -1.231369
    15  O   -0.049323   0.017594
    16  C    0.416452  -0.674569
    17  H   -0.143314   0.292127
    18  H    0.056153   0.094054
    19  H    0.115855   0.032406
    20  H   -0.081608   0.233499
    21  H    0.219825  -0.035515
    22  H    0.006519   0.132854
    23  H   -0.014154   0.183496
    24  H   -0.273582   0.452758
    25  H   -0.143497   0.313689
    26  H   -0.322288   0.481449
    27  H   -0.205657   0.410843
    28  H    0.034217   0.176369
    29  H   -0.064463   0.121873
    30  H    0.255466  -0.034342
    31  H    0.302740  -0.113642
    32  H    0.105545   0.059043
    33  H    0.394758  -0.193159
    34  H    0.036730   0.124927
    35  H   -0.017383   0.163482
    36  H    0.217628  -0.020820
    37  H   -0.126240   0.286884
    38  H   -0.089753   0.224328
    39  H    0.037054   0.104039
    40  H    0.000441   0.149424
    41  H   -0.263902   0.389220
    42  H   -0.057752   0.198985
 Sum of Mulliken charges =  -1.00000   1.00000

 Dipole moment (field-independent basis, Debye):
    X=             -2.1449    Y=             -0.8074    Z=             -1.4330  Tot=              2.7029
 Quadrupole moment (field-independent basis, Debye-Ang):
   XX=           -192.5036   YY=           -144.8394   ZZ=           -133.5779
   XY=              0.8417   XZ=              1.9315   YZ=              1.9559

 Summary of Natural Population Analysis:

                                       Natural Population
                Natural  -----------------------------------------------
    Atom  No    Charge         Core      Valence    Rydberg      Total
 -----------------------------------------------------------------------
      C    1   -0.28996      0.99960     2.28283    0.00753     3.28996
      C    2    0.13991      0.99952     1.84509    0.01547     2.86009
      C    3   -0.30262      0.99961     2.29640    0.00660     3.30262
      C    4   -0.20408      0.99956     2.19401    0.01051     3.20408
      C    5   -0.18926      0.99962     2.17865    0.01099     3.18926
      C    6   -0.24747      0.99960     2.23867    0.00920     3.24747
      C    7    0.25143      0.99973     1.72948    0.01936     2.74857
      O    8   -0.26880      0.99988     3.26213    0.00679     4.26880
      O    9   -0.31734      0.99987     3.30777    0.00971     4.31734
      C   10   -0.02127      0.99954     2.01070    0.01102     3.02127
      C   11   -0.20364      0.99956     2.19396    0.01012     3.20364
      C   12    0.13918      0.99953     1.84720    0.01409     2.86082
      C   13   -0.30760      0.99961     2.30167    0.00631     3.30760
      C   14   -0.29795      0.99961     2.29157    0.00678     3.29795
      O   15   -0.31285      0.99987     3.30221    0.01076     4.31285
      C   16   -0.09923      0.99960     2.08995    0.00968     3.09923
      H   17    0.09959      0.00000     0.39953    0.00088     0.40041
      H   18    0.10437      0.00000     0.39458    0.00106     0.39563
      H   19    0.10056      0.00000     0.39851    0.00093     0.39944
      H   20    0.10129      0.00000     0.39790    0.00081     0.39871
      H   21    0.10778      0.00000     0.39103    0.00119     0.39222
      H   22    0.09971      0.00000     0.39940    0.00089     0.40029
      H   23    0.10020      0.00000     0.39830    0.00149     0.39980
      H   24    0.10270      0.00000     0.39614    0.00116     0.39730
      H   25    0.09735      0.00000     0.40130    0.00136     0.40265
      H   26    0.10211      0.00000     0.39596    0.00193     0.39789
      H   27    0.10844      0.00000     0.39000    0.00155     0.39156
      H   28    0.11385      0.00000     0.38477    0.00138     0.38615
      H   29    0.03602      0.00000     0.46167    0.00232     0.46398
      H   30    0.09034      0.00000     0.40732    0.00234     0.40966
      H   31    0.09710      0.00000     0.40089    0.00201     0.40290
      H   32    0.09753      0.00000     0.40152    0.00095     0.40247
      H   33    0.10349      0.00000     0.39498    0.00153     0.39651
      H   34    0.10320      0.00000     0.39609    0.00072     0.39680
      H   35    0.09946      0.00000     0.39972    0.00081     0.40054
      H   36    0.11322      0.00000     0.38586    0.00092     0.38678
      H   37    0.10324      0.00000     0.39576    0.00099     0.39676
      H   38    0.10028      0.00000     0.39864    0.00108     0.39972
      H   39    0.10068      0.00000     0.39846    0.00086     0.39932
      H   40    0.07966      0.00000     0.41920    0.00114     0.42034
      H   41    0.07864      0.00000     0.41985    0.00151     0.42136
      H   42    0.09073      0.00000     0.40842    0.00085     0.40927
 =======================================================================
   * Total *   -0.00000     15.99431    47.80809    0.19759    64.00000

 Normal termination of Gaussian 16 at Fri Dec 11 01:33:10 2020.
