 Gaussian 16, Revision A.03,

 -----------------------------------------------------------
 # opt freq B3LYP/6-31G(d) empiricaldispersion=gd3bj scf=xqc
 -----------------------------------------------------------

 -------------------------------
 CID_152514546_JID_8132_neutraal
 -------------------------------
 Symbolic Z-matrix:
 Charge =  0 Multiplicity = 1

 SCF Done:  E(RB3LYP) =  -817.887542559     A.U. after   16 cycles
 SCF Done:  E(RB3LYP) =  -817.896825914     A.U. after   15 cycles
 SCF Done:  E(RB3LYP) =  -817.898449741     A.U. after   14 cycles
 SCF Done:  E(RB3LYP) =  -817.899809150     A.U. after   12 cycles
 SCF Done:  E(RB3LYP) =  -817.900468705     A.U. after   13 cycles
 SCF Done:  E(RB3LYP) =  -817.899689589     A.U. after   14 cycles
 SCF Done:  E(RB3LYP) =  -817.901289558     A.U. after   14 cycles
 SCF Done:  E(RB3LYP) =  -817.902477093     A.U. after   15 cycles
 SCF Done:  E(RB3LYP) =  -817.903616751     A.U. after   16 cycles
 SCF Done:  E(RB3LYP) =  -817.904025455     A.U. after   12 cycles
 SCF Done:  E(RB3LYP) =  -817.904465984     A.U. after   11 cycles
 SCF Done:  E(RB3LYP) =  -817.904471383     A.U. after   10 cycles
 SCF Done:  E(RB3LYP) =  -817.904472796     A.U. after    9 cycles
 SCF Done:  E(RB3LYP) =  -817.904473119     A.U. after    8 cycles
 SCF Done:  E(RB3LYP) =  -817.904473137     A.U. after    7 cycles
 Optimization completed.
    -- Stationary point found.
 Normal termination of Gaussian 16 at Fri Dec 11 18:53:48 2020.

 --------------------------------------------------------------------
 #N Geom=AllCheck Guess=TCheck SCRF=Check GenChk RB3LYP/6-31G(d) Freq
 --------------------------------------------------------------------

 Structure from the checkpoint file:  "JID_8132.chk"
 -------------------------------
 CID_152514546_JID_8132_neutraal
 -------------------------------
 Charge =  0 Multiplicity = 1

 SCF Done:  E(RB3LYP) =  -817.904473137     A.U. after    1 cycles

  Exact polarizability: 238.399  45.052 201.255 -12.957  18.181  78.277
 Approx polarizability: 365.164 102.706 369.085 -24.521  48.076 131.944

                      1                      2                      3
                      A                      A                      A
 Frequencies --     32.6115                43.5968                58.0614
 Red. masses --      4.2284                 6.4491                 4.1107
 Frc consts  --      0.0026                 0.0072                 0.0082
 IR Inten    --      0.3676                 0.0447                 0.0656

                      4                      5                      6
                      A                      A                      A
 Frequencies --     71.9355                96.3051               124.7662
 Red. masses --      2.7420                 4.4371                 8.1280
 Frc consts  --      0.0084                 0.0242                 0.0745
 IR Inten    --      0.8345                 0.6750                 0.4028

                      7                      8                      9
                      A                      A                      A
 Frequencies --    136.6956               142.4872               162.2587
 Red. masses --      2.9576                 6.0780                 4.0166
 Frc consts  --      0.0326                 0.0727                 0.0623
 IR Inten    --      2.9739                 1.9267                 0.0843

                     10                     11                     12
                      A                      A                      A
 Frequencies --    226.2321               246.5722               279.5526
 Red. masses --      4.2340                 1.1875                 8.0804
 Frc consts  --      0.1277                 0.0425                 0.3721
 IR Inten    --      1.8300                 0.0509                 2.2228

                     13                     14                     15
                      A                      A                      A
 Frequencies --    300.3614               335.8265               385.7112
 Red. masses --      4.7448                 4.2752                 3.5423
 Frc consts  --      0.2522                 0.2841                 0.3105
 IR Inten    --      6.7061                 4.9698                 0.3955

                     16                     17                     18
                      A                      A                      A
 Frequencies --    409.4200               439.6341               464.8463
 Red. masses --      7.8220                 3.3504                 2.3708
 Frc consts  --      0.7725                 0.3815                 0.3018
 IR Inten    --      0.8551                 1.9697                10.3590

                     19                     20                     21
                      A                      A                      A
 Frequencies --    490.3611               520.8292               530.9995
 Red. masses --      5.1673                 5.6596                 5.7689
 Frc consts  --      0.7321                 0.9045                 0.9584
 IR Inten    --      1.7367                 4.4059                 0.6706

                     22                     23                     24
                      A                      A                      A
 Frequencies --    536.7883               561.6247               580.5577
 Red. masses --      6.1043                 4.6604                 7.2345
 Frc consts  --      1.0363                 0.8661                 1.4366
 IR Inten    --      4.5336                 4.1901                 2.2213

                     25                     26                     27
                      A                      A                      A
 Frequencies --    617.2490               658.1427               705.5798
 Red. masses --      4.3818                 7.5038                 4.1437
 Frc consts  --      0.9836                 1.9150                 1.2154
 IR Inten    --      2.6188                19.5196                 3.8691

                     28                     29                     30
                      A                      A                      A
 Frequencies --    733.9422               763.5103               773.4511
 Red. masses --      5.8100                 1.3750                 7.6035
 Frc consts  --      1.8440                 0.4723                 2.6800
 IR Inten    --      4.6447                14.4358                15.2822

                     31                     32                     33
                      A                      A                      A
 Frequencies --    792.5053               813.5784               827.0245
 Red. masses --      3.5313                 1.1406                 1.5286
 Frc consts  --      1.3068                 0.4448                 0.6160
 IR Inten    --      9.8179                 5.0413                52.4892

                     34                     35                     36
                      A                      A                      A
 Frequencies --    861.8018               875.2299               884.3501
 Red. masses --      2.5756                 4.8815                 1.5385
 Frc consts  --      1.1271                 2.2032                 0.7089
 IR Inten    --      7.5438                 7.9731                 1.4412

                     37                     38                     39
                      A                      A                      A
 Frequencies --    941.6165               947.4102               963.8562
 Red. masses --      6.7716                 1.2794                 1.3395
 Frc consts  --      3.5375                 0.6766                 0.7332
 IR Inten    --     25.5529                 0.1898                 2.9315

                     40                     41                     42
                      A                      A                      A
 Frequencies --    976.6391               993.5525              1018.9400
 Red. masses --      7.2578                 1.2715                 2.8502
 Frc consts  --      4.0787                 0.7395                 1.7435
 IR Inten    --    308.8450                 3.1815                11.9394

                     43                     44                     45
                      A                      A                      A
 Frequencies --   1057.6712              1083.9997              1115.2914
 Red. masses --      2.2458                 3.5077                 2.1747
 Frc consts  --      1.4802                 2.4285                 1.5938
 IR Inten    --      2.7685               167.5263                10.6965

                     46                     47                     48
                      A                      A                      A
 Frequencies --   1133.7955              1184.6452              1187.3248
 Red. masses --      2.2885                 1.3622                 1.3329
 Frc consts  --      1.7333                 1.1264                 1.1071
 IR Inten    --     45.9108                 5.5096                29.4008

                     49                     50                     51
                      A                      A                      A
 Frequencies --   1189.8614              1208.6098              1227.0583
 Red. masses --      2.2731                 1.8010                 1.9734
 Frc consts  --      1.8961                 1.5500                 1.7506
 IR Inten    --    132.5446                 6.5204                19.7881

                     52                     53                     54
                      A                      A                      A
 Frequencies --   1247.8751              1256.6374              1294.7482
 Red. masses --      2.3932                 1.9801                 1.7908
 Frc consts  --      2.1957                 1.8423                 1.7688
 IR Inten    --     44.0327                15.7407                21.7233

                     55                     56                     57
                      A                      A                      A
 Frequencies --   1327.1735              1360.2815              1375.6852
 Red. masses --      1.1542                 1.1371                 5.5591
 Frc consts  --      1.1978                 1.2397                 6.1986
 IR Inten    --      8.9226                 1.1511                83.1229

                     58                     59                     60
                      A                      A                      A
 Frequencies --   1387.0550              1406.5205              1421.8235
 Red. masses --      3.1997                 1.3348                 5.0689
 Frc consts  --      3.6270                 1.5558                 6.0375
 IR Inten    --     64.4220                26.9124                 8.1781

                     61                     62                     63
                      A                      A                      A
 Frequencies --   1428.4072              1441.6111              1464.9377
 Red. masses --      2.7865                 1.2998                 1.4360
 Frc consts  --      3.3498                 1.5916                 1.8157
 IR Inten    --    118.1155                 5.4958                 5.0848

                     64                     65                     66
                      A                      A                      A
 Frequencies --   1481.0946              1517.4241              1521.2270
 Red. masses --      2.1507                 1.2011                 1.8975
 Frc consts  --      2.7797                 1.6295                 2.5871
 IR Inten    --      1.8416                 9.3755                31.3009

                     67                     68                     69
                      A                      A                      A
 Frequencies --   1524.0481              1534.1270              1545.7821
 Red. masses --      1.0615                 1.1168                 1.0917
 Frc consts  --      1.4527                 1.5486                 1.5370
 IR Inten    --      2.4025                 3.5469                 2.3689

                     70                     71                     72
                      A                      A                      A
 Frequencies --   1561.3065              1628.3777              1660.0337
 Red. masses --      3.2980                 7.8606                 5.7154
 Frc consts  --      4.7367                12.2806                 9.2796
 IR Inten    --     16.5996                13.5539                37.8217

                     73                     74                     75
                      A                      A                      A
 Frequencies --   1683.3123              2262.8088              3050.9697
 Red. masses --      6.3637                13.9822                 1.0408
 Frc consts  --     10.6241                42.1815                 5.7084
 IR Inten    --     17.1653               982.7893                 7.1624

                     76                     77                     78
                      A                      A                      A
 Frequencies --   3058.0367              3078.6497              3111.2494
 Red. masses --      1.0501                 1.0609                 1.1034
 Frc consts  --      5.7857                 5.9244                 6.2927
 IR Inten    --     72.2977                 9.0564                10.7651

                     79                     80                     81
                      A                      A                      A
 Frequencies --   3122.4267              3124.8253              3139.5007
 Red. masses --      1.1094                 1.1037                 1.1066
 Frc consts  --      6.3725                 6.3495                 6.4263
 IR Inten    --     41.2576                15.5765                46.9331

                     82                     83                     84
                      A                      A                      A
 Frequencies --   3182.8417              3189.1415              3193.9676
 Red. masses --      1.0865                 1.0866                 1.0893
 Frc consts  --      6.4851                 6.5112                 6.5475
 IR Inten    --      1.2984                 2.2510                14.7090

                     85                     86                     87
                      A                      A                      A
 Frequencies --   3205.7701              3209.4938              3226.1726
 Red. masses --      1.0953                 1.0948                 1.0934
 Frc consts  --      6.6318                 6.6447                 6.7053
 IR Inten    --     12.4229                31.9182                12.0742

 - Thermochemistry -
 -------------------
 Temperature   298.150 Kelvin.  Pressure   1.00000 Atm.
 Atom     1 has atomic number  6 and mass  12.00000

 Molecular mass:   243.10078 amu.
 Principal axes and moments of inertia in atomic units:
                           1         2         3
     Eigenvalues --  2892.886765777.802878270.35303
           X            0.99901  -0.04449  -0.00028
           Y            0.04449   0.99898   0.00710
           Z           -0.00003  -0.00711   0.99997
 This molecule is an asymmetric top.
 Rotational symmetry number  1.
 Warning -- assumption of classical behavior for rotation
           may cause significant error
 Rotational temperatures (Kelvin)      0.02994     0.01499     0.01047
 Rotational constants (GHZ):           0.62385     0.31236     0.21822
 Zero-point vibrational energy     645624.7 (Joules/Mol)
                                  154.30800 (Kcal/Mol)
 Warning -- explicit consideration of  25 degrees of freedom as
           vibrations may cause significant error
 Vibrational temperatures:     46.92    62.73    83.54   103.50   138.56
          (Kelvin)            179.51   196.67   205.01   233.45   325.50
                              354.76   402.21   432.15   483.18   554.95
                              589.06   632.54   668.81   705.52   749.36
                              763.99   772.32   808.05   835.29   888.08
                              946.92  1015.17  1055.98  1098.52  1112.82
                             1140.24  1170.56  1189.90  1239.94  1259.26
                             1272.38  1354.78  1363.11  1386.77  1405.17
                             1429.50  1466.03  1521.75  1559.63  1604.66
                             1631.28  1704.44  1708.30  1711.95  1738.92
                             1765.46  1795.41  1808.02  1862.85  1909.51
                             1957.14  1979.30  1995.66  2023.67  2045.69
                             2055.16  2074.16  2107.72  2130.96  2183.23
                             2188.71  2192.77  2207.27  2224.04  2246.37
                             2342.87  2388.42  2421.91  3255.68  4389.66
                             4399.83  4429.49  4476.39  4492.48  4495.93
                             4517.04  4579.40  4588.46  4595.41  4612.39
                             4617.75  4641.74

 Zero-point correction=                           0.245905 (Hartree/Particle)
 Thermal correction to Energy=                    0.261688
 Thermal correction to Enthalpy=                  0.262632
 Thermal correction to Gibbs Free Energy=         0.201402
 Sum of electronic and zero-point Energies=           -817.658568
 Sum of electronic and thermal Energies=              -817.642785
 Sum of electronic and thermal Enthalpies=            -817.641841
 Sum of electronic and thermal Free Energies=         -817.703071

                     E (Thermal)             CV                S
                      KCal/Mol        Cal/Mol-Kelvin    Cal/Mol-Kelvin
 Total                  164.212             59.778            128.870
 Electronic               0.000              0.000              0.000
 Translational            0.889              2.981             42.366
 Rotational               0.889              2.981             33.291
 Vibrational            162.434             53.816             53.213
 Vibration     1          0.594              1.983              5.664
 Vibration     2          0.595              1.980              5.089
 Vibration     3          0.596              1.974              4.522
 Vibration     4          0.598              1.967              4.100
 Vibration     5          0.603              1.952              3.528
 Vibration     6          0.610              1.928              3.025
 Vibration     7          0.614              1.917              2.850
 Vibration     8          0.616              1.911              2.770
 Vibration     9          0.622              1.889              2.523
 Vibration    10          0.650              1.801              1.909
 Vibration    11          0.661              1.768              1.755
 Vibration    12          0.680              1.711              1.536
 Vibration    13          0.693              1.673              1.415
 Vibration    14          0.717              1.604              1.232
 Vibration    15          0.754              1.501              1.017
 Vibration    16          0.774              1.450              0.929
 Vibration    17          0.800              1.384              0.828
 Vibration    18          0.822              1.328              0.752
 Vibration    19          0.846              1.271              0.683
 Vibration    20          0.876              1.204              0.608
 Vibration    21          0.886              1.181              0.585
 Vibration    22          0.892              1.169              0.572
 Vibration    23          0.917              1.114              0.521
 Vibration    24          0.937              1.073              0.484
 Vibration    25          0.977              0.995              0.421

 Optimization completed.
    -- Stationary point found.
 Normal termination of Gaussian 16 at Fri Dec 11 19:05:02 2020.

 ----------------------------------------------------------------------
 # B3LYP/6-311++G(d,p) empiricaldispersion=gd3bj scf=xqc pop=npa geom=c
 heck
 ----------------------------------------------------------------------

 ---------------------------------------
 CID_152514546_JID_8132_Energie_neutraal
 ---------------------------------------
 Structure from the checkpoint file:  "JID_8132.chk"
 Charge =  0 Multiplicity = 1

 SCF Done:  E(RB3LYP) =  -818.120932324     A.U. after   16 cycles
 Normal termination of Gaussian 16 at Fri Dec 11 19:09:40 2020.

 ----------------------------------------------------------------------
 # B3LYP/6-311++G(d,p) empiricaldispersion=gd3bj scf=xqc pop=npa geom=c
 heck
 ----------------------------------------------------------------------

 -------------------------------------
 CID_152514546_JID_8132_Energie_kation
 -------------------------------------
 Structure from the checkpoint file:  "JID_8132.chk"
 Charge =  1 Multiplicity = 2

 SCF Done:  E(UB3LYP) =  -817.843753756     A.U. after   24 cycles
 Normal termination of Gaussian 16 at Fri Dec 11 19:19:11 2020.
 Gaussian 16:  ES64L-G16RevA.03 25-Dec-2016

 ----------------------------------------------------------------------
 # B3LYP/6-311++G(d,p) empiricaldispersion=gd3bj scf=xqc pop=npa geom=c
 heck
 ----------------------------------------------------------------------

 ------------------------------------
 CID_152514546_JID_8132_Energie_anion
 ------------------------------------
 Structure from the checkpoint file:  "JID_8132.chk"
 Charge = -1 Multiplicity = 2

                         Standard orientation:
 ---------------------------------------------------------------------
 Center     Atomic      Atomic             Coordinates (Angstroms)
 Number     Number       Type             X           Y           Z
 ---------------------------------------------------------------------
      1          6           0        4.238944   -2.339742    0.350396
      2          6           0        3.352466   -1.105633    0.241866
      3          8           0        2.085675   -1.308706    0.888544
      4          6           0        1.126995   -1.911312    0.091188
      5          8           0        0.593654   -1.043357   -0.921302
      6          6           0       -0.233253   -0.048823   -0.452188
      7          6           0        0.260059    1.227541   -0.230099
      8          6           0       -0.604446    2.249761    0.243999
      9          6           0       -1.927438    1.986081    0.491763
     10          6           0       -2.470496    0.696230    0.256497
     11          6           0       -3.837868    0.398663    0.485645
     12          6           0       -4.340472   -0.857038    0.230152
     13          6           0       -3.493468   -1.869968   -0.278929
     14          6           0       -2.160031   -1.617458   -0.509528
     15          6           0       -1.610602   -0.336862   -0.236816
     16          7           0        1.628602    1.453543   -0.510877
     17          7           0        2.091872    2.574694   -0.279323
     18          7           0        2.649429    3.558590   -0.116678
     19          1           0        4.390064   -2.612408    1.399715
     20          1           0        5.217584   -2.145689   -0.103618
     21          1           0        3.797866   -3.199989   -0.165847
     22          1           0        3.806105   -0.255460    0.758114
     23          1           0        3.189925   -0.807931   -0.799171
     24          1           0        1.520925   -2.760263   -0.479523
     25          1           0        0.325287   -2.232469    0.762431
     26          1           0       -0.203283    3.243970    0.417805
     27          1           0       -2.578185    2.772311    0.864047
     28          1           0       -4.484636    1.186079    0.864165
     29          1           0       -5.389914   -1.071701    0.409234
     30          1           0       -3.902646   -2.852489   -0.496103
     31          1           0       -1.515383   -2.383885   -0.924714
 ---------------------------------------------------------------------

 SCF Done:  E(UB3LYP) =  -818.125810866     A.U. after   33 cycles
 SCF Done:  E(UB3LYP) =  -818.125810866     a.u. after    1 cycles

 The electronic state is 2-A.
 Alpha  occ. eigenvalues --  -19.02506 -19.01356 -14.35057 -14.25419 -14.24250
 Alpha  occ. eigenvalues --  -10.15404 -10.11705 -10.07624 -10.07574 -10.07155
 Alpha  occ. eigenvalues --  -10.04319 -10.04270 -10.04158 -10.03272 -10.02849
 Alpha  occ. eigenvalues --  -10.02828 -10.02355 -10.02029  -1.01758  -0.96276
 Alpha  occ. eigenvalues --   -0.90685  -0.86172  -0.73288  -0.68731  -0.66820
 Alpha  occ. eigenvalues --   -0.63558  -0.61462  -0.59577  -0.57220  -0.52557
 Alpha  occ. eigenvalues --   -0.50652  -0.48738  -0.45316  -0.43323  -0.41255
 Alpha  occ. eigenvalues --   -0.40612  -0.39613  -0.39073  -0.38399  -0.36096
 Alpha  occ. eigenvalues --   -0.35412  -0.33528  -0.33338  -0.32399  -0.32143
 Alpha  occ. eigenvalues --   -0.30770  -0.29890  -0.29082  -0.28455  -0.27723
 Alpha  occ. eigenvalues --   -0.26195  -0.25788  -0.24962  -0.21928  -0.21846
 Alpha  occ. eigenvalues --   -0.20885  -0.19821  -0.18356  -0.17910  -0.16689
 Alpha  occ. eigenvalues --   -0.16609  -0.13944  -0.10341  -0.07725   0.04739
 Alpha virt. eigenvalues --    0.06476   0.08271   0.08715   0.09146   0.09646
 Alpha virt. eigenvalues --    0.09895   0.09983   0.10261   0.11373   0.12006
 Alpha virt. eigenvalues --    0.12605   0.12943   0.13641   0.13919   0.14215

  Beta  occ. eigenvalues --  -19.02501 -19.01356 -14.34853 -14.25246 -14.24346
  Beta  occ. eigenvalues --  -10.15368 -10.11702 -10.07616 -10.07452 -10.06806
  Beta  occ. eigenvalues --  -10.04382 -10.04338 -10.04170 -10.03257 -10.02738
  Beta  occ. eigenvalues --  -10.02584 -10.02116 -10.01742  -1.01450  -0.96224
  Beta  occ. eigenvalues --   -0.90597  -0.86083  -0.73031  -0.68378  -0.66791
  Beta  occ. eigenvalues --   -0.63151  -0.61193  -0.59267  -0.57088  -0.52293
  Beta  occ. eigenvalues --   -0.50499  -0.48424  -0.45077  -0.43070  -0.41161
  Beta  occ. eigenvalues --   -0.40528  -0.39476  -0.38457  -0.38164  -0.35865
  Beta  occ. eigenvalues --   -0.35164  -0.33417  -0.32984  -0.32264  -0.32066
  Beta  occ. eigenvalues --   -0.30650  -0.29818  -0.28943  -0.28278  -0.27575
  Beta  occ. eigenvalues --   -0.26053  -0.25505  -0.24570  -0.21717  -0.21344
  Beta  occ. eigenvalues --   -0.20621  -0.19669  -0.18284  -0.17846  -0.16574
  Beta  occ. eigenvalues --   -0.15914  -0.12823  -0.09754  -0.06067
  Beta virt. eigenvalues --    0.06473   0.08540   0.08652   0.09147   0.09662
  Beta virt. eigenvalues --    0.09888   0.10033   0.10183   0.10363   0.11303
  Beta virt. eigenvalues --    0.11973   0.12565   0.12866   0.13636   0.14142

 Mulliken charges and spin densities:
               1          2
     1  C   -0.309160  -0.220700
     2  C   -0.271456   0.084570
     3  O   -0.078582   0.002373
     4  C   -0.157844  -0.075767
     5  O   -0.131317  -0.000357
     6  C   -0.290219   0.218316
     7  C   -0.403713   0.104780
     8  C   -0.266511  -0.015111
     9  C   -0.348082   0.220198
    10  C    0.584530  -0.068402
    11  C   -0.154368   0.184853
    12  C   -0.381545   0.092363
    13  C   -0.411228   0.020824
    14  C   -0.287545   0.194732
    15  C    0.507841  -0.101118
    16  N   -0.155849  -0.008910
    17  N    0.251204   0.018290
    18  N   -0.054603   0.100485
    19  H    0.126641   0.019881
    20  H    0.050087   0.069361
    21  H    0.026039   0.099223
    22  H    0.158283   0.006542
    23  H    0.168505   0.009842
    24  H    0.067014   0.054662
    25  H    0.165846  -0.000997
    26  H    0.137627  -0.000085
    27  H    0.091881  -0.012781
    28  H    0.079545  -0.014117
    29  H    0.099409  -0.007534
    30  H    0.111319   0.002066
    31  H    0.076251   0.022520
 Sum of Mulliken charges =  -1.00000   1.00000

 Dipole moment (field-independent basis, Debye):
    X=              2.8594    Y=             -2.2155    Z=              0.5683  Tot=              3.6617
 Quadrupole moment (field-independent basis, Debye-Ang):
   XX=           -147.7237   YY=           -132.8251   ZZ=           -120.1782
   XY=            -11.3963   XZ=             -0.9297   YZ=              1.0683

 Summary of Natural Population Analysis:

                                       Natural Population
                Natural  -----------------------------------------------
    Atom  No    Charge         Core      Valence    Rydberg      Total
 -----------------------------------------------------------------------
      C    1   -0.30014      0.99967     2.29585    0.00462     3.30014
      C    2   -0.01718      0.99959     2.00611    0.01148     3.01718
      O    3   -0.29629      0.99988     3.28740    0.00902     4.29629
      C    4    0.14829      0.99960     1.83569    0.01641     2.85171
      O    5   -0.29655      0.99986     3.28762    0.00907     4.29655
      C    6    0.20639      0.99929     1.78001    0.01431     2.79361
      C    7    0.05473      0.99938     1.93229    0.01360     2.94527
      C    8   -0.12326      0.99955     2.11647    0.00725     3.12326
      C    9   -0.05379      0.99955     2.04568    0.00856     3.05379
      C   10   -0.03881      0.99950     2.03148    0.00783     3.03881
      C   11   -0.05643      0.99954     2.04802    0.00887     3.05643
      C   12   -0.09408      0.99957     2.08460    0.00990     3.09408
      C   13   -0.10674      0.99957     2.09785    0.00932     3.10674
      C   14   -0.05127      0.99954     2.04302    0.00871     3.05127
      C   15   -0.05108      0.99946     2.04268    0.00894     3.05108
      N   16   -0.17851      0.99964     2.66458    0.01429     3.67851
      N   17    0.13754      0.99971     2.34684    0.01592     3.36246
      N   18   -0.04920      0.99982     2.53622    0.01316     3.54920
      H   19    0.09723      0.00000     0.40136    0.00141     0.40277
      H   20    0.09635      0.00000     0.40246    0.00119     0.40365
      H   21    0.09572      0.00000     0.40273    0.00154     0.40428
      H   22    0.08891      0.00000     0.40963    0.00146     0.41109
      H   23    0.09311      0.00000     0.40502    0.00187     0.40689
      H   24    0.06751      0.00000     0.43060    0.00189     0.43249
      H   25    0.08340      0.00000     0.41528    0.00132     0.41660
      H   26    0.09524      0.00000     0.40329    0.00146     0.40476
      H   27    0.09179      0.00000     0.40745    0.00076     0.40821
      H   28    0.08663      0.00000     0.41180    0.00158     0.41337
      H   29    0.08806      0.00000     0.41090    0.00104     0.41194
      H   30    0.08913      0.00000     0.40987    0.00099     0.41087
      H   31    0.09332      0.00000     0.40473    0.00195     0.40668
 =======================================================================
   * Total *    0.00001     17.99272    45.79755    0.20972    63.99999

 Normal termination of Gaussian 16 at Fri Dec 11 19:32:23 2020.
