 Gaussian 16, Revision A.03,

 -----------------------------------------------------------
 # opt freq B3LYP/6-31G(d) empiricaldispersion=gd3bj scf=xqc
 -----------------------------------------------------------

 -------------------------------
 CID_143090017_JID_6370_neutraal
 -------------------------------
 Symbolic Z-matrix:
 Charge =  0 Multiplicity = 1

 SCF Done:  E(RB3LYP) =  -744.222071944     A.U. after   17 cycles
 SCF Done:  E(RB3LYP) =  -744.246877859     A.U. after   14 cycles
 SCF Done:  E(RB3LYP) =  -744.253649654     A.U. after   14 cycles
 SCF Done:  E(RB3LYP) =  -744.256134826     A.U. after   14 cycles
 SCF Done:  E(RB3LYP) =  -744.258119904     A.U. after   14 cycles
 SCF Done:  E(RB3LYP) =  -744.260234108     A.U. after   13 cycles
 SCF Done:  E(RB3LYP) =  -744.261585546     A.U. after   14 cycles
 SCF Done:  E(RB3LYP) =  -744.262822056     A.U. after   14 cycles
 SCF Done:  E(RB3LYP) =  -744.263159074     A.U. after   13 cycles
 SCF Done:  E(RB3LYP) =  -744.263291024     A.U. after   13 cycles
 SCF Done:  E(RB3LYP) =  -744.310670591     A.U. after   10 cycles
 SCF Done:  E(RB3LYP) =  -744.310677352     A.U. after   10 cycles
 SCF Done:  E(RB3LYP) =  -744.310680343     A.U. after   10 cycles
 SCF Done:  E(RB3LYP) =  -744.310681190     A.U. after    8 cycles
 SCF Done:  E(RB3LYP) =  -744.310681466     A.U. after    8 cycles
 SCF Done:  E(RB3LYP) =  -744.310681534     A.U. after    8 cycles
 Optimization completed.
    -- Stationary point found.
 Normal termination of Gaussian 16 at Thu Dec 10 22:38:51 2020.

 --------------------------------------------------------------------
 #N Geom=AllCheck Guess=TCheck SCRF=Check GenChk RB3LYP/6-31G(d) Freq
 --------------------------------------------------------------------

 Structure from the checkpoint file:  "JID_6370.chk"
 -------------------------------
 CID_143090017_JID_6370_neutraal
 -------------------------------
 Charge =  0 Multiplicity = 1

 SCF Done:  E(RB3LYP) =  -744.310681534     A.U. after    1 cycles

  Exact polarizability: 160.497   7.180 121.542   4.628  -7.932  98.874
 Approx polarizability: 223.468  22.827 223.361  10.112  -3.180 162.044

                      1                      2                      3
                      A                      A                      A
 Frequencies --     35.5620                46.2846                54.9018
 Red. masses --      5.8925                 3.8704                 6.2604
 Frc consts  --      0.0044                 0.0049                 0.0111
 IR Inten    --      0.3923                 2.5389                 0.7233

                      4                      5                      6
                      A                      A                      A
 Frequencies --     80.6570               117.1677               145.7220
 Red. masses --      7.0090                 6.2869                 4.8415
 Frc consts  --      0.0269                 0.0509                 0.0606
 IR Inten    --      3.4701                 5.7961                 0.4997

                      7                      8                      9
                      A                      A                      A
 Frequencies --    175.8359               229.1245               295.8103
 Red. masses --      1.0489                 3.9493                 4.4062
 Frc consts  --      0.0191                 0.1222                 0.2272
 IR Inten    --      0.1886                 0.8929                 2.2587

                     10                     11                     12
                      A                      A                      A
 Frequencies --    313.4166               323.8717               362.3916
 Red. masses --      8.5448                 2.6378                 5.3870
 Frc consts  --      0.4945                 0.1630                 0.4168
 IR Inten    --      9.2182                 7.2889                10.6934

                     13                     14                     15
                      A                      A                      A
 Frequencies --    381.0473               451.9325               460.6121
 Red. masses --      4.1367                 2.6094                 6.7040
 Frc consts  --      0.3539                 0.3140                 0.8380
 IR Inten    --      0.7700                 2.9478                 2.2957

                     16                     17                     18
                      A                      A                      A
 Frequencies --    494.7045               510.1918               529.5613
 Red. masses --      5.1169                 3.8708                 3.4621
 Frc consts  --      0.7378                 0.5936                 0.5720
 IR Inten    --      3.2413                 5.8360                19.7351

                     19                     20                     21
                      A                      A                      A
 Frequencies --    553.9295               563.2435               583.7302
 Red. masses --      4.8491                 5.0126                 7.3938
 Frc consts  --      0.8766                 0.9369                 1.4844
 IR Inten    --      3.2680                25.7216                 1.2053

                     22                     23                     24
                      A                      A                      A
 Frequencies --    706.9104               744.8732               749.1920
 Red. masses --      3.7581                 2.3092                 5.0860
 Frc consts  --      1.1065                 0.7549                 1.6819
 IR Inten    --      7.5027                 3.4906                 4.4943

                     25                     26                     27
                      A                      A                      A
 Frequencies --    755.2957               775.2713               786.3402
 Red. masses --      7.1200                 2.3959                 2.4325
 Frc consts  --      2.3931                 0.8484                 0.8862
 IR Inten    --     16.9434                12.4916                 7.9313

                     28                     29                     30
                      A                      A                      A
 Frequencies --    812.0430               825.7873               873.0816
 Red. masses --      3.1083                 2.4010                 2.0210
 Frc consts  --      1.2076                 0.9647                 0.9077
 IR Inten    --      7.4032                30.3347                38.2999

                     31                     32                     33
                      A                      A                      A
 Frequencies --    896.3591               932.7257               955.8843
 Red. masses --      3.1259                 1.6401                 3.1495
 Frc consts  --      1.4798                 0.8407                 1.6955
 IR Inten    --      3.6018                13.5869                 7.2672

                     34                     35                     36
                      A                      A                      A
 Frequencies --    981.9089              1001.9671              1014.9115
 Red. masses --      1.4000                 2.6214                 1.8196
 Frc consts  --      0.7953                 1.5506                 1.1043
 IR Inten    --      0.4077                10.0833                 3.2386

                     37                     38                     39
                      A                      A                      A
 Frequencies --   1033.1422              1041.4529              1062.7119
 Red. masses --      2.2846                 1.9344                 2.1260
 Frc consts  --      1.4368                 1.2362                 1.4146
 IR Inten    --      6.7901                54.5942                13.2570

                     40                     41                     42
                      A                      A                      A
 Frequencies --   1076.3684              1112.1667              1124.4863
 Red. masses --      1.9641                 2.2067                 1.3269
 Frc consts  --      1.3407                 1.6082                 0.9886
 IR Inten    --      4.7256                 9.4611                 2.1077

                     43                     44                     45
                      A                      A                      A
 Frequencies --   1164.0041              1185.6603              1209.7377
 Red. masses --      2.5393                 2.3819                 1.4755
 Frc consts  --      2.0271                 1.9729                 1.2722
 IR Inten    --     36.9194                64.0230                 9.2077

                     46                     47                     48
                      A                      A                      A
 Frequencies --   1243.4365              1261.5150              1324.6353
 Red. masses --      3.1286                 1.4117                 1.6708
 Frc consts  --      2.8500                 1.3237                 1.7273
 IR Inten    --    113.1906                15.1870               148.8513

                     49                     50                     51
                      A                      A                      A
 Frequencies --   1327.2930              1350.2958              1367.2652
 Red. masses --      1.3593                 2.3706                 1.3829
 Frc consts  --      1.4109                 2.5466                 1.5232
 IR Inten    --      3.5800               112.8620                 7.4478

                     52                     53                     54
                      A                      A                      A
 Frequencies --   1391.8539              1408.2019              1409.7440
 Red. masses --      1.8225                 1.3866                 2.0388
 Frc consts  --      2.0802                 1.6201                 2.3873
 IR Inten    --     60.1061                30.0156                 8.9418

                     55                     56                     57
                      A                      A                      A
 Frequencies --   1426.2996              1451.0274              1475.9873
 Red. masses --      1.8384                 2.2003                 1.0876
 Frc consts  --      2.2035                 2.7295                 1.3960
 IR Inten    --      8.8433                 2.6203                21.2373

                     58                     59                     60
                      A                      A                      A
 Frequencies --   1493.3770              1507.1255              1642.1827
 Red. masses --      1.0554                 1.0508                 7.7895
 Frc consts  --      1.3867                 1.4063                12.3766
 IR Inten    --      9.5565                15.6770                14.5070

                     61                     62                     63
                      A                      A                      A
 Frequencies --   1708.2148              1782.4449              1816.4284
 Red. masses --      5.7605                12.8003                12.0965
 Frc consts  --      9.9037                23.9610                23.5151
 IR Inten    --      3.3201               452.4440               114.1849

                     64                     65                     66
                      A                      A                      A
 Frequencies --   1829.3686              3058.1127              3099.3970
 Red. masses --     10.9766                 1.0369                 1.0577
 Frc consts  --     21.6432                 5.7135                 5.9864
 IR Inten    --    226.2281                 3.2799                17.2666

                     67                     68                     69
                      A                      A                      A
 Frequencies --   3120.8589              3146.7870              3152.8325
 Red. masses --      1.0995                 1.0891                 1.1057
 Frc consts  --      6.3097                 6.3538                 6.4755
 IR Inten    --      5.9530                16.2381                 4.2170

                     70                     71                     72
                      A                      A                      A
 Frequencies --   3164.6500              3171.8060              3177.8576
 Red. masses --      1.0866                 1.1025                 1.0881
 Frc consts  --      6.4118                 6.5350                 6.4743
 IR Inten    --      4.7480                12.7069                 8.9749

                     73                     74                     75
                      A                      A                      A
 Frequencies --   3184.6366              3196.2916              3217.7052
 Red. masses --      1.0890                 1.0876                 1.0979
 Frc consts  --      6.5071                 6.5467                 6.6974
 IR Inten    --      2.5354                 8.0665                21.9939

 - Thermochemistry -
 -------------------
 Temperature   298.150 Kelvin.  Pressure   1.00000 Atm.
 Atom     1 has atomic number  6 and mass  12.00000

 Molecular mass:   217.07389 amu.
 Principal axes and moments of inertia in atomic units:
                           1         2         3
     Eigenvalues --  1535.853394699.594955256.28535
           X            0.99995  -0.00338   0.00963
           Y            0.00407   0.99737  -0.07242
           Z           -0.00936   0.07246   0.99733
 This molecule is an asymmetric top.
 Rotational symmetry number  1.
 Warning -- assumption of classical behavior for rotation
           may cause significant error
 Rotational temperatures (Kelvin)      0.05639     0.01843     0.01648
 Rotational constants (GHZ):           1.17507     0.38402     0.34335
 Zero-point vibrational energy     552911.7 (Joules/Mol)
                                  132.14906 (Kcal/Mol)
 Warning -- explicit consideration of  21 degrees of freedom as
           vibrations may cause significant error
 Vibrational temperatures:     51.17    66.59    78.99   116.05   168.58
          (Kelvin)            209.66   252.99   329.66   425.61   450.94
                              465.98   521.40   548.24   650.23   662.72
                              711.77   734.05   761.92   796.98   810.38
                              839.86  1017.09  1071.71  1077.92  1086.70
                             1115.44  1131.37  1168.35  1188.12  1256.17
                             1289.66  1341.98  1375.30  1412.75  1441.61
                             1460.23  1486.46  1498.42  1529.01  1548.65
                             1600.16  1617.88  1674.74  1705.90  1740.54
                             1789.03  1815.04  1905.85  1909.68  1942.77
                             1967.19  2002.57  2026.09  2028.31  2052.13
                             2087.70  2123.62  2148.64  2168.42  2362.73
                             2457.74  2564.54  2613.44  2632.05  4399.94
                             4459.34  4490.22  4527.52  4536.22  4553.23
                             4563.52  4572.23  4581.98  4598.75  4629.56

 Zero-point correction=                           0.210593 (Hartree/Particle)
 Thermal correction to Energy=                    0.224166
 Thermal correction to Enthalpy=                  0.225110
 Thermal correction to Gibbs Free Energy=         0.169098
 Sum of electronic and zero-point Energies=           -744.100089
 Sum of electronic and thermal Energies=              -744.086516
 Sum of electronic and thermal Enthalpies=            -744.085572
 Sum of electronic and thermal Free Energies=         -744.141583

                     E (Thermal)             CV                S
                      KCal/Mol        Cal/Mol-Kelvin    Cal/Mol-Kelvin
 Total                  140.666             51.971            117.886
 Electronic               0.000              0.000              0.000
 Translational            0.889              2.981             42.028
 Rotational               0.889              2.981             32.006
 Vibrational            138.889             46.009             43.851
 Vibration     1          0.594              1.982              5.492
 Vibration     2          0.595              1.979              4.970
 Vibration     3          0.596              1.976              4.633
 Vibration     4          0.600              1.962              3.875
 Vibration     5          0.608              1.935              3.147
 Vibration     6          0.617              1.907              2.727
 Vibration     7          0.628              1.872              2.372
 Vibration     8          0.652              1.797              1.886
 Vibration     9          0.690              1.682              1.440
 Vibration    10          0.701              1.648              1.344
 Vibration    11          0.708              1.628              1.290
 Vibration    12          0.736              1.550              1.112
 Vibration    13          0.751              1.511              1.035
 Vibration    14          0.811              1.357              0.790
 Vibration    15          0.818              1.337              0.764
 Vibration    16          0.850              1.262              0.671
 Vibration    17          0.865              1.227              0.633
 Vibration    18          0.885              1.185              0.588
 Vibration    19          0.909              1.131              0.536
 Vibration    20          0.919              1.111              0.517
 Vibration    21          0.941              1.067              0.478

 Optimization completed.
    -- Stationary point found.
 Normal termination of Gaussian 16 at Thu Dec 10 22:48:38 2020.

 ----------------------------------------------------------------------
 # B3LYP/6-311++G(d,p) empiricaldispersion=gd3bj scf=xqc pop=npa geom=c
 heck
 ----------------------------------------------------------------------

 ---------------------------------------
 CID_143090017_JID_6370_Energie_neutraal
 ---------------------------------------
 Structure from the checkpoint file:  "JID_6370.chk"
 Charge =  0 Multiplicity = 1

 SCF Done:  E(RB3LYP) =  -744.518008830     A.U. after   16 cycles
 Normal termination of Gaussian 16 at Thu Dec 10 22:52:07 2020.

 ----------------------------------------------------------------------
 # B3LYP/6-311++G(d,p) empiricaldispersion=gd3bj scf=xqc pop=npa geom=c
 heck
 ----------------------------------------------------------------------

 -------------------------------------
 CID_143090017_JID_6370_Energie_kation
 -------------------------------------
 Structure from the checkpoint file:  "JID_6370.chk"
 Charge =  1 Multiplicity = 2

 SCF Done:  E(UB3LYP) =  -744.209364539     A.U. after   24 cycles
 Normal termination of Gaussian 16 at Thu Dec 10 23:01:51 2020.
 Gaussian 16:  ES64L-G16RevA.03 25-Dec-2016

 ----------------------------------------------------------------------
 # B3LYP/6-311++G(d,p) empiricaldispersion=gd3bj scf=xqc pop=npa geom=c
 heck
 ----------------------------------------------------------------------

 ------------------------------------
 CID_143090017_JID_6370_Energie_anion
 ------------------------------------
 Structure from the checkpoint file:  "JID_6370.chk"
 Charge = -1 Multiplicity = 2

                         Standard orientation:
 ---------------------------------------------------------------------
 Center     Atomic      Atomic             Coordinates (Angstroms)
 Number     Number       Type             X           Y           Z
 ---------------------------------------------------------------------
      1          6           0        3.004950   -0.438588    1.382446
      2          6           0        3.194618   -0.014496   -0.057840
      3          8           0        4.266691    0.333141   -0.506600
      4          6           0        1.985495   -0.076460   -0.996178
      5          7           0        0.689744   -0.095288   -0.323217
      6          6           0       -0.129387   -1.251144   -0.443616
      7          8           0        0.170285   -2.154939   -1.199143
      8          6           0       -1.222878   -1.379527    0.583659
      9          6           0       -2.712563   -0.948777    0.656905
     10          6           0       -3.603599   -0.266676   -0.318108
     11          6           0       -3.342825    0.981888   -0.745832
     12          6           0       -2.044148    1.569757   -0.442208
     13          6           0       -1.227073    1.036250    0.489694
     14          6           0       -1.630989   -0.140229    1.321789
     15          6           0        0.236691    1.129081    0.220426
     16          8           0        0.966406    2.098014    0.285119
     17          1           0        3.981050   -0.525978    1.862421
     18          1           0        2.464687   -1.390196    1.446963
     19          1           0        2.409062    0.315611    1.909020
     20          1           0        2.049010    0.773369   -1.679233
     21          1           0        2.047713   -0.999451   -1.578943
     22          1           0       -1.071099   -2.296754    1.147285
     23          1           0       -3.248068   -1.643239    1.299092
     24          1           0       -4.528182   -0.769928   -0.586414
     25          1           0       -4.027441    1.507615   -1.403963
     26          1           0       -1.658567    2.346849   -1.098425
     27          1           0       -1.523178   -0.067083    2.402884
 ---------------------------------------------------------------------

 SCF Done:  E(UB3LYP) =  -744.543806178     A.U. after   27 cycles

 The electronic state is 2-A.
 Alpha  occ. eigenvalues --  -19.01300 -18.98143 -18.97074 -14.23128 -10.16356
 Alpha  occ. eigenvalues --  -10.15984 -10.14083 -10.09903 -10.07588 -10.06490
 Alpha  occ. eigenvalues --  -10.06416 -10.05326 -10.02087 -10.01716 -10.01659
 Alpha  occ. eigenvalues --  -10.01451  -0.94839  -0.93730  -0.91811  -0.81499
 Alpha  occ. eigenvalues --   -0.75931  -0.66239  -0.65728  -0.62807  -0.59726
 Alpha  occ. eigenvalues --   -0.54803  -0.49956  -0.48814  -0.47819  -0.43463
 Alpha  occ. eigenvalues --   -0.40555  -0.39541  -0.38030  -0.37054  -0.35028
 Alpha  occ. eigenvalues --   -0.34550  -0.33561  -0.33234  -0.32260  -0.31586
 Alpha  occ. eigenvalues --   -0.29842  -0.29393  -0.28750  -0.28252  -0.27190
 Alpha  occ. eigenvalues --   -0.25685  -0.24987  -0.23003  -0.21346  -0.20521
 Alpha  occ. eigenvalues --   -0.19260  -0.17265  -0.16429  -0.14725  -0.13697
 Alpha  occ. eigenvalues --   -0.13164  -0.07763   0.03567
 Alpha virt. eigenvalues --    0.07550   0.07865   0.08620   0.09608   0.10004
 Alpha virt. eigenvalues --    0.10897   0.10997   0.11600   0.12454   0.12843
 Alpha virt. eigenvalues --    0.13970   0.14418   0.14685   0.14806   0.14962

  Beta  occ. eigenvalues --  -19.01291 -18.98021 -18.96916 -14.23154 -10.16351
  Beta  occ. eigenvalues --  -10.15891 -10.13950 -10.09898 -10.07588 -10.06519
  Beta  occ. eigenvalues --  -10.06326 -10.05288 -10.01903 -10.01642 -10.01320
  Beta  occ. eigenvalues --  -10.01048  -0.94815  -0.93524  -0.91536  -0.81384
  Beta  occ. eigenvalues --   -0.75678  -0.66113  -0.65212  -0.62493  -0.59312
  Beta  occ. eigenvalues --   -0.54416  -0.49755  -0.48268  -0.47563  -0.43377
  Beta  occ. eigenvalues --   -0.40337  -0.39299  -0.37854  -0.36992  -0.34937
  Beta  occ. eigenvalues --   -0.34292  -0.33319  -0.33095  -0.32004  -0.31436
  Beta  occ. eigenvalues --   -0.29724  -0.29331  -0.28497  -0.28023  -0.26752
  Beta  occ. eigenvalues --   -0.25157  -0.24918  -0.22657  -0.21120  -0.19786
  Beta  occ. eigenvalues --   -0.18874  -0.16938  -0.15338  -0.14535  -0.13300
  Beta  occ. eigenvalues --   -0.12931  -0.06086
  Beta virt. eigenvalues --    0.07609   0.07907   0.08760   0.09232   0.09750
  Beta virt. eigenvalues --    0.10691   0.10868   0.11161   0.11689   0.12654
  Beta virt. eigenvalues --    0.12817   0.13928   0.14381   0.14661   0.14791

 Mulliken charges and spin densities:
               1          2
     1  C   -0.433689  -0.000843
     2  C    0.120570  -0.000198
     3  O   -0.279600   0.002556
     4  C   -0.255620   0.006621
     5  N    0.176876   0.008474
     6  C   -0.574414   0.043123
     7  O   -0.312633   0.040755
     8  C    0.315061  -0.047201
     9  C   -0.186917   0.031134
    10  C   -0.243006   0.273605
    11  C   -0.469752   0.067813
    12  C    0.265097   0.250803
    13  C    0.391956   0.143161
    14  C   -0.294929   0.045409
    15  C   -0.783590   0.063242
    16  O   -0.286393   0.043705
    17  H    0.174261   0.000017
    18  H    0.156199   0.002874
    19  H    0.207205   0.000044
    20  H    0.222116   0.004429
    21  H    0.205259  -0.000684
    22  H    0.176580   0.017616
    23  H    0.147867   0.035112
    24  H    0.094737  -0.022637
    25  H    0.098314  -0.003187
    26  H    0.164458  -0.008099
    27  H    0.203987   0.002353
 Sum of Mulliken charges =  -1.00000   1.00000

 Dipole moment (field-independent basis, Debye):
    X=              1.1097    Y=             -2.6578    Z=              2.4604  Tot=              3.7880
 Quadrupole moment (field-independent basis, Debye-Ang):
   XX=           -142.3730   YY=           -119.0027   ZZ=           -100.4807
   XY=             -3.1349   XZ=              3.2706   YZ=             -8.8127

 Summary of Natural Population Analysis:

                                       Natural Population
                Natural  -----------------------------------------------
    Atom  No    Charge         Core      Valence    Rydberg      Total
 -----------------------------------------------------------------------
      C    1   -0.33999      0.99962     2.33610    0.00427     3.33999
      C    2    0.29910      0.99970     1.68088    0.02032     2.70090
      O    3   -0.29298      0.99987     3.28484    0.00827     4.29298
      C    4   -0.13817      0.99956     2.12711    0.01149     3.13817
      N    5   -0.28339      0.99962     2.77368    0.01009     3.78339
      C    6    0.37347      0.99962     1.60607    0.02084     2.62653
      O    7   -0.29994      0.99987     3.29426    0.00581     4.29994
      C    8   -0.14355      0.99951     2.13155    0.01250     3.14355
      C    9   -0.10568      0.99958     2.09281    0.01330     3.10568
      C   10   -0.01153      0.99953     2.00277    0.00922     3.01153
      C   11   -0.11065      0.99953     2.10131    0.00981     3.11065
      C   12   -0.05264      0.99947     2.04471    0.00845     3.05264
      C   13   -0.01217      0.99937     1.99938    0.01342     3.01217
      C   14   -0.10387      0.99954     2.09337    0.01096     3.10387
      C   15    0.37262      0.99959     1.60478    0.02301     2.62738
      O   16   -0.29782      0.99987     3.29198    0.00598     4.29782
      H   17    0.10432      0.00000     0.39439    0.00129     0.39568
      H   18    0.10984      0.00000     0.38931    0.00085     0.39016
      H   19    0.12163      0.00000     0.37748    0.00089     0.37837
      H   20    0.11302      0.00000     0.38572    0.00125     0.38698
      H   21    0.12530      0.00000     0.37342    0.00128     0.37470
      H   22    0.10654      0.00000     0.39189    0.00157     0.39346
      H   23    0.10138      0.00000     0.39721    0.00142     0.39862
      H   24    0.08422      0.00000     0.41478    0.00101     0.41578
      H   25    0.08966      0.00000     0.40922    0.00112     0.41034
      H   26    0.09343      0.00000     0.40545    0.00112     0.40657
      H   27    0.09785      0.00000     0.40100    0.00115     0.40215
 =======================================================================
   * Total *   -0.00000     15.99386    40.80545    0.20069    57.00000

 Normal termination of Gaussian 16 at Thu Dec 10 23:10:29 2020.
