 Gaussian 16, Revision A.03,

 -----------------------------------------------------------
 # opt freq B3LYP/6-31G(d) empiricaldispersion=gd3bj scf=xqc
 -----------------------------------------------------------

 -------------------------------
 CID_103176293_JID_9403_neutraal
 -------------------------------
 Symbolic Z-matrix:
 Charge =  0 Multiplicity = 1

 SCF Done:  E(RB3LYP) =  -822.595104734     A.U. after   14 cycles
 SCF Done:  E(RB3LYP) =  -822.601655107     A.U. after   13 cycles
 SCF Done:  E(RB3LYP) =  -822.602917797     A.U. after   12 cycles
 SCF Done:  E(RB3LYP) =  -822.604730758     A.U. after   12 cycles
 SCF Done:  E(RB3LYP) =  -822.605685078     A.U. after   12 cycles
 SCF Done:  E(RB3LYP) =  -822.606057075     A.U. after   12 cycles
 SCF Done:  E(RB3LYP) =  -822.606202366     A.U. after   11 cycles
 SCF Done:  E(RB3LYP) =  -822.606326609     A.U. after   11 cycles
 SCF Done:  E(RB3LYP) =  -822.606353446     A.U. after   10 cycles
 SCF Done:  E(RB3LYP) =  -822.606376255     A.U. after   10 cycles
 SCF Done:  E(RB3LYP) =  -822.606647204     A.U. after    9 cycles
 SCF Done:  E(RB3LYP) =  -822.606650763     A.U. after   10 cycles
 SCF Done:  E(RB3LYP) =  -822.606651041     A.U. after    9 cycles
 SCF Done:  E(RB3LYP) =  -822.606652592     A.U. after    8 cycles
 SCF Done:  E(RB3LYP) =  -822.606652656     A.U. after    6 cycles
 Optimization completed.
    -- Stationary point found.
 Normal termination of Gaussian 16 at Sat Dec 12 10:00:20 2020.

 --------------------------------------------------------------------
 #N Geom=AllCheck Guess=TCheck SCRF=Check GenChk RB3LYP/6-31G(d) Freq
 --------------------------------------------------------------------

 Structure from the checkpoint file:  "JID_9403.chk"
 -------------------------------
 CID_103176293_JID_9403_neutraal
 -------------------------------
 Charge =  0 Multiplicity = 1

 SCF Done:  E(RB3LYP) =  -822.606652656     A.U. after    1 cycles

  Exact polarizability: 266.944  10.607 143.327   7.432  -0.477 141.646
 Approx polarizability: 352.714  14.255 226.220  14.540  -0.850 229.483

                      1                      2                      3
                      A                      A                      A
 Frequencies --     14.5023                28.6726                43.2508
 Red. masses --      4.3732                 3.7669                 2.5330
 Frc consts  --      0.0005                 0.0018                 0.0028
 IR Inten    --      0.5284                 0.2083                 0.1462

                      4                      5                      6
                      A                      A                      A
 Frequencies --     47.3693                55.6382                72.1506
 Red. masses --      1.9236                 1.4053                 2.4247
 Frc consts  --      0.0025                 0.0026                 0.0074
 IR Inten    --      0.3263                 0.1531                 0.3943

                      7                      8                      9
                      A                      A                      A
 Frequencies --    101.2856               104.7465               133.3526
 Red. masses --      3.2471                 2.8917                 3.6469
 Frc consts  --      0.0196                 0.0187                 0.0382
 IR Inten    --      5.0817                 1.6989                 1.4312

                     10                     11                     12
                      A                      A                      A
 Frequencies --    161.1648               190.6734               215.5385
 Red. masses --      3.7995                 4.1739                 1.9925
 Frc consts  --      0.0581                 0.0894                 0.0545
 IR Inten    --      0.5293                 2.6167                 2.3413

                     13                     14                     15
                      A                      A                      A
 Frequencies --    224.4634               257.3442               274.6130
 Red. masses --      1.7237                 2.1703                 1.5451
 Frc consts  --      0.0512                 0.0847                 0.0687
 IR Inten    --      1.6252                 5.4930                 0.9679

                     16                     17                     18
                      A                      A                      A
 Frequencies --    293.7118               316.6680               339.8063
 Red. masses --      2.6782                 2.5133                 4.1620
 Frc consts  --      0.1361                 0.1485                 0.2831
 IR Inten    --      3.9190                 2.6145                 0.6509

                     19                     20                     21
                      A                      A                      A
 Frequencies --    354.8545               370.5605               413.9321
 Red. masses --      4.0587                 4.0239                 1.6351
 Frc consts  --      0.3011                 0.3255                 0.1651
 IR Inten    --      8.5093                 0.4824                87.2469

                     22                     23                     24
                      A                      A                      A
 Frequencies --    459.5015               470.5450               481.1981
 Red. masses --      3.8644                 2.9291                 3.0317
 Frc consts  --      0.4807                 0.3821                 0.4136
 IR Inten    --      0.1436                30.6654                36.3256

                     25                     26                     27
                      A                      A                      A
 Frequencies --    504.1223               561.1309               578.3385
 Red. masses --      3.3793                 5.3489                 5.7140
 Frc consts  --      0.5060                 0.9923                 1.1260
 IR Inten    --      0.9399                 1.7066                 2.3605

                     28                     29                     30
                      A                      A                      A
 Frequencies --    614.0544               641.7641               642.5701
 Red. masses --      5.1061                 4.3337                 4.6410
 Frc consts  --      1.1344                 1.0516                 1.1290
 IR Inten    --      0.0375                 2.3721                 1.4020

                     31                     32                     33
                      A                      A                      A
 Frequencies --    681.4959               720.0276               739.2632
 Red. masses --      4.5677                 5.2228                 1.7117
 Frc consts  --      1.2499                 1.5953                 0.5512
 IR Inten    --      0.5558                 2.9021                 7.2330

                     34                     35                     36
                      A                      A                      A
 Frequencies --    762.4392               780.1891               787.6251
 Red. masses --      4.4876                 2.5329                 2.2371
 Frc consts  --      1.5370                 0.9084                 0.8176
 IR Inten    --     11.4734                44.4459                14.2348

                     37                     38                     39
                      A                      A                      A
 Frequencies --    805.1437               815.7961               831.6326
 Red. masses --      1.8423                 1.1789                 1.9279
 Frc consts  --      0.7036                 0.4623                 0.7856
 IR Inten    --      4.1574                 0.2776                 4.5866

                     40                     41                     42
                      A                      A                      A
 Frequencies --    834.8117               858.5025               928.4844
 Red. masses --      1.7077                 1.7469                 2.6192
 Frc consts  --      0.7012                 0.7586                 1.3304
 IR Inten    --      4.7738                17.0920                 1.1026

                     43                     44                     45
                      A                      A                      A
 Frequencies --    940.6794               970.5232               976.5328
 Red. masses --      2.1838                 1.3247                 1.2653
 Frc consts  --      1.1385                 0.7352                 0.7109
 IR Inten    --      1.4856                 0.9526                 0.2510

                     46                     47                     48
                      A                      A                      A
 Frequencies --    997.3018               999.6208              1028.7720
 Red. masses --      2.5609                 4.5842                 1.9575
 Frc consts  --      1.5007                 2.6989                 1.2207
 IR Inten    --      0.8659                 2.0432                 4.2524

                     49                     50                     51
                      A                      A                      A
 Frequencies --   1041.2425              1073.2560              1088.3702
 Red. masses --      2.8474                 1.5604                 1.8463
 Frc consts  --      1.8189                 1.0590                 1.2886
 IR Inten    --     30.6365                 4.8663                10.1463

                     52                     53                     54
                      A                      A                      A
 Frequencies --   1100.2312              1104.0751              1119.2503
 Red. masses --      1.9644                 2.2610                 1.6160
 Frc consts  --      1.4010                 1.6238                 1.1928
 IR Inten    --      8.3832                24.4628                 2.0470

                     55                     56                     57
                      A                      A                      A
 Frequencies --   1157.6180              1164.7923              1179.6536
 Red. masses --      1.4731                 1.7723                 1.6587
 Frc consts  --      1.1631                 1.4167                 1.3600
 IR Inten    --     28.3828                14.5842                15.9497

                     58                     59                     60
                      A                      A                      A
 Frequencies --   1191.1382              1200.8344              1260.3307
 Red. masses --      1.6002                 1.7196                 2.2571
 Frc consts  --      1.3377                 1.4610                 2.1124
 IR Inten    --     79.5734                 6.2106               205.1449

                     61                     62                     63
                      A                      A                      A
 Frequencies --   1275.4901              1283.7466              1299.2377
 Red. masses --      2.1491                 2.1576                 1.2258
 Frc consts  --      2.0599                 2.0950                 1.2191
 IR Inten    --    261.2180                47.5767                 8.5714

                     64                     65                     66
                      A                      A                      A
 Frequencies --   1309.4337              1320.2578              1329.5497
 Red. masses --      3.4412                 2.1567                 2.1343
 Frc consts  --      3.4764                 2.2149                 2.2228
 IR Inten    --     83.5348                49.5735                 5.9355

                     67                     68                     69
                      A                      A                      A
 Frequencies --   1378.8311              1382.6310              1400.2121
 Red. masses --      1.6015                 3.9541                 1.4889
 Frc consts  --      1.7939                 4.4536                 1.7199
 IR Inten    --     11.6798                76.5068                45.7038

                     70                     71                     72
                      A                      A                      A
 Frequencies --   1425.0889              1436.5885              1443.2463
 Red. masses --      1.4729                 1.3455                 1.2993
 Frc consts  --      1.7624                 1.6360                 1.5945
 IR Inten    --     11.1245                 0.0568                24.8802

                     73                     74                     75
                      A                      A                      A
 Frequencies --   1449.4494              1470.9642              1505.3520
 Red. masses --      2.4145                 2.2273                 2.7738
 Frc consts  --      2.9887                 2.8395                 3.7035
 IR Inten    --      4.3395               159.2300               208.6236

                     76                     77                     78
                      A                      A                      A
 Frequencies --   1507.0450              1516.0228              1520.1792
 Red. masses --      1.0974                 1.1320                 1.5630
 Frc consts  --      1.4684                 1.5329                 2.1281
 IR Inten    --     18.3115                 1.9023                13.4273

                     79                     80                     81
                      A                      A                      A
 Frequencies --   1521.4770              1525.0963              1528.1908
 Red. masses --      1.1508                 1.3634                 1.0455
 Frc consts  --      1.5696                 1.8684                 1.4386
 IR Inten    --      8.4470                34.5057                 2.3847

                     82                     83                     84
                      A                      A                      A
 Frequencies --   1529.9577              1542.4084              1547.8697
 Red. masses --      1.1125                 1.0805                 2.2998
 Frc consts  --      1.5344                 1.5145                 3.2465
 IR Inten    --     45.5907                 6.5554               369.4644

                     85                     86                     87
                      A                      A                      A
 Frequencies --   1553.6285              1634.0860              1636.4478
 Red. masses --      1.1106                 4.9127                 5.7310
 Frc consts  --      1.5794                 7.7289                 9.0424
 IR Inten    --      3.5037               114.8047                26.7221

                     88                     89                     90
                      A                      A                      A
 Frequencies --   1646.1733              1668.2512              3007.1369
 Red. masses --      6.4241                 6.7442                 1.0749
 Frc consts  --     10.2569                11.0586                 5.7269
 IR Inten    --     36.5983               407.4322                51.9504

                     91                     92                     93
                      A                      A                      A
 Frequencies --   3045.2494              3055.7322              3056.2912
 Red. masses --      1.0402                 1.0344                 1.0358
 Frc consts  --      5.6833                 5.6909                 5.7005
 IR Inten    --     32.7202                31.9428                23.3698

                     94                     95                     96
                      A                      A                      A
 Frequencies --   3068.1487              3104.1691              3115.6968
 Red. masses --      1.0639                 1.0930                 1.1009
 Frc consts  --      5.9010                 6.2054                 6.2965
 IR Inten    --     16.3160                10.7266                13.0634

                     97                     98                     99
                      A                      A                      A
 Frequencies --   3117.7491              3125.9811              3127.3573
 Red. masses --      1.1007                 1.1015                 1.0928
 Frc consts  --      6.3037                 6.3419                 6.2972
 IR Inten    --      0.6142                29.5773                32.9598

                    100                    101                    102
                      A                      A                      A
 Frequencies --   3134.1810              3136.8368              3140.2352
 Red. masses --      1.1029                 1.1031                 1.1037
 Frc consts  --      6.3834                 6.3952                 6.4124
 IR Inten    --     28.7259                18.1955                31.9641

                    103                    104                    105
                      A                      A                      A
 Frequencies --   3189.6664              3199.6340              3206.4069
 Red. masses --      1.0871                 1.0887                 1.0952
 Frc consts  --      6.5165                 6.5667                 6.6342
 IR Inten    --      8.8780                15.7654                21.7685

                    106                    107                    108
                      A                      A                      A
 Frequencies --   3217.6229              3248.7680              3608.4442
 Red. masses --      1.0955                 1.0925                 1.0762
 Frc consts  --      6.6825                 6.7935                 8.2559
 IR Inten    --      8.9997                 2.4025                24.9456

 - Thermochemistry -
 -------------------
 Temperature   298.150 Kelvin.  Pressure   1.00000 Atm.
 Atom     1 has atomic number  6 and mass  12.00000

 Molecular mass:   257.15281 amu.
 Principal axes and moments of inertia in atomic units:
                           1         2         3
     Eigenvalues --  2068.76321********************
           X            0.99994  -0.00043   0.01077
           Y            0.00050   0.99998  -0.00699
           Z           -0.01077   0.00699   0.99992
 This molecule is an asymmetric top.
 Rotational symmetry number  1.
 Warning -- assumption of classical behavior for rotation
           may cause significant error
 Rotational temperatures (Kelvin)      0.04187     0.00822     0.00817
 Rotational constants (GHZ):           0.87238     0.17119     0.17019
 Zero-point vibrational energy     840971.0 (Joules/Mol)
                                  200.99690 (Kcal/Mol)
 Warning -- explicit consideration of  28 degrees of freedom as
           vibrations may cause significant error
 Vibrational temperatures:     20.87    41.25    62.23    68.15    80.05
          (Kelvin)            103.81   145.73   150.71   191.86   231.88
                              274.34   310.11   322.95   370.26   395.11
                              422.59   455.61   488.91   510.56   533.15
                              595.56   661.12   677.01   692.34   725.32
                              807.34   832.10   883.49   923.36   924.52
                              980.52  1035.96  1063.63  1096.98  1122.52
                             1133.22  1158.42  1173.75  1196.53  1201.11
                             1235.19  1335.88  1353.43  1396.37  1405.01
                             1434.89  1438.23  1480.17  1498.12  1544.18
                             1565.92  1582.99  1588.52  1610.35  1665.55
                             1675.88  1697.26  1713.78  1727.73  1813.33
                             1835.15  1847.03  1869.31  1883.98  1899.56
                             1912.93  1983.83  1989.30  2014.59  2050.39
                             2066.93  2076.51  2085.43  2116.39  2165.87
                             2168.30  2181.22  2187.20  2189.07  2194.27
                             2198.73  2201.27  2219.18  2227.04  2235.32
                             2351.09  2354.48  2368.48  2400.24  4326.60
                             4381.43  4396.52  4397.32  4414.38  4466.21
                             4482.79  4485.75  4497.59  4499.57  4509.39
                             4513.21  4518.10  4589.22  4603.56  4613.30
                             4629.44  4674.25  5191.75

 Zero-point correction=                           0.320309 (Hartree/Particle)
 Thermal correction to Energy=                    0.339150
 Thermal correction to Enthalpy=                  0.340094
 Thermal correction to Gibbs Free Energy=         0.270558
 Sum of electronic and zero-point Energies=           -822.286344
 Sum of electronic and thermal Energies=              -822.267503
 Sum of electronic and thermal Enthalpies=            -822.266559
 Sum of electronic and thermal Free Energies=         -822.336095

                     E (Thermal)             CV                S
                      KCal/Mol        Cal/Mol-Kelvin    Cal/Mol-Kelvin
 Total                  212.820             70.157            146.351
 Electronic               0.000              0.000              0.000
 Translational            0.889              2.981             42.533
 Rotational               0.889              2.981             33.802
 Vibrational            211.042             64.195             70.016
 Vibration     1          0.593              1.986              7.273
 Vibration     2          0.593              1.984              5.919
 Vibration     3          0.595              1.980              5.104
 Vibration     4          0.595              1.979              4.924
 Vibration     5          0.596              1.975              4.606
 Vibration     6          0.598              1.967              4.094
 Vibration     7          0.604              1.948              3.429
 Vibration     8          0.605              1.945              3.364
 Vibration     9          0.613              1.920              2.897
 Vibration    10          0.622              1.890              2.536
 Vibration    11          0.634              1.853              2.221
 Vibration    12          0.645              1.817              1.996
 Vibration    13          0.649              1.804              1.923
 Vibration    14          0.667              1.750              1.680
 Vibration    15          0.677              1.720              1.567
 Vibration    16          0.689              1.685              1.452
 Vibration    17          0.704              1.642              1.327
 Vibration    18          0.720              1.596              1.213
 Vibration    19          0.731              1.565              1.145
 Vibration    20          0.743              1.533              1.077
 Vibration    21          0.778              1.440              0.913
 Vibration    22          0.817              1.340              0.768
 Vibration    23          0.828              1.315              0.736
 Vibration    24          0.837              1.292              0.707
 Vibration    25          0.859              1.241              0.648
 Vibration    26          0.917              1.115              0.522
 Vibration    27          0.935              1.078              0.488
 Vibration    28          0.973              1.002              0.426

                           ! Non-Optimized Parameters !
 Normal termination of Gaussian 16 at Sat Dec 12 10:17:56 2020.

 ----------------------------------------------------------------------
 # B3LYP/6-311++G(d,p) empiricaldispersion=gd3bj scf=xqc pop=npa geom=c
 heck
 ----------------------------------------------------------------------

 ---------------------------------------
 CID_103176293_JID_9403_Energie_neutraal
 ---------------------------------------
 Structure from the checkpoint file:  "JID_9403.chk"
 Charge =  0 Multiplicity = 1

 SCF Done:  E(RB3LYP) =  -822.825969360     A.U. after   15 cycles
 Normal termination of Gaussian 16 at Sat Dec 12 10:25:15 2020.

 ----------------------------------------------------------------------
 # B3LYP/6-311++G(d,p) empiricaldispersion=gd3bj scf=xqc pop=npa geom=c
 heck
 ----------------------------------------------------------------------

 -------------------------------------
 CID_103176293_JID_9403_Energie_kation
 -------------------------------------
 Structure from the checkpoint file:  "JID_9403.chk"
 Charge =  1 Multiplicity = 2

 SCF Done:  E(UB3LYP) =  -822.553611816     A.U. after   25 cycles
 Normal termination of Gaussian 16 at Sat Dec 12 10:42:33 2020.
 Gaussian 16:  ES64L-G16RevA.03 25-Dec-2016

 ----------------------------------------------------------------------
 # B3LYP/6-311++G(d,p) empiricaldispersion=gd3bj scf=xqc pop=npa geom=c
 heck
 ----------------------------------------------------------------------

 ------------------------------------
 CID_103176293_JID_9403_Energie_anion
 ------------------------------------
 Structure from the checkpoint file:  "JID_9403.chk"
 Charge = -1 Multiplicity = 2

                         Standard orientation:
 ---------------------------------------------------------------------
 Center     Atomic      Atomic             Coordinates (Angstroms)
 Number     Number       Type             X           Y           Z
 ---------------------------------------------------------------------
      1          6           0        1.328049   -2.782345    0.360476
      2          6           0        1.462609   -1.928020   -0.910404
      3          6           0        2.192317   -0.634179   -0.644878
      4          6           0        1.529466    0.601491   -0.589837
      5          6           0        2.251571    1.761561   -0.339251
      6          6           0        3.624560    1.659681   -0.134940
      7          6           0        4.223005    0.396187   -0.190086
      8          7           0        3.514497   -0.714975   -0.443004
      9          6           0        5.703730    0.210217    0.022329
     10          8           0        0.172469    0.685840   -0.853899
     11          6           0       -0.712787    0.449150    0.171481
     12          6           0       -0.314619    0.340003    1.505106
     13          6           0       -1.329192    0.106171    2.439858
     14          6           0       -2.647742   -0.005328    2.034624
     15          6           0       -2.926833    0.129542    0.655371
     16          7           0       -1.966760    0.357967   -0.253199
     17          7           0       -4.210026   -0.005402    0.184123
     18          6           0       -4.573271    0.352158   -1.180514
     19          6           0       -6.006213   -0.078090   -1.474498
     20          1           0        0.852409   -3.742276    0.132103
     21          1           0        0.719650   -2.270796    1.113173
     22          1           0        2.316482   -2.977746    0.788568
     23          1           0        0.476584   -1.719022   -1.334265
     24          1           0        2.038150   -2.484787   -1.658429
     25          1           0        1.734434    2.715598   -0.309823
     26          1           0        4.223009    2.543843    0.061891
     27          1           0        5.885886   -0.488955    0.845775
     28          1           0        6.166746   -0.221233   -0.872175
     29          1           0        6.201985    1.157102    0.250078
     30          1           0        0.721396    0.437272    1.799859
     31          1           0       -1.076497    0.012622    3.492552
     32          1           0       -3.446498   -0.196258    2.744618
     33          1           0       -4.941166    0.084374    0.876337
     34          1           0       -4.451615    1.433008   -1.352980
     35          1           0       -3.871262   -0.146917   -1.852804
     36          1           0       -6.719580    0.422270   -0.806726
     37          1           0       -6.278832    0.182623   -2.501959
     38          1           0       -6.122920   -1.159766   -1.349076
 ---------------------------------------------------------------------

 SCF Done:  E(UB3LYP) =  -822.818891430     A.U. after   33 cycles
 SCF Done:  E(UB3LYP) =  -822.818891430     a.u. after    1 cycles

 The electronic state is 2-A.
 Alpha  occ. eigenvalues --  -19.05238 -14.22185 -14.18985 -14.18019 -10.15868
 Alpha  occ. eigenvalues --  -10.14039 -10.11734 -10.09992 -10.09971 -10.09276
 Alpha  occ. eigenvalues --  -10.08063 -10.07209 -10.06741 -10.06535 -10.06378
 Alpha  occ. eigenvalues --  -10.06348 -10.06323 -10.06208 -10.05767  -0.97819
 Alpha  occ. eigenvalues --   -0.86542  -0.82935  -0.80079  -0.70005  -0.69530
 Alpha  occ. eigenvalues --   -0.68754  -0.66751  -0.64612  -0.62345  -0.59472
 Alpha  occ. eigenvalues --   -0.55123  -0.54032  -0.53134  -0.50284  -0.49699
 Alpha  occ. eigenvalues --   -0.48187  -0.45296  -0.40406  -0.40055  -0.39444
 Alpha  occ. eigenvalues --   -0.38704  -0.37019  -0.36669  -0.34721  -0.33818
 Alpha  occ. eigenvalues --   -0.33483  -0.33160  -0.32417  -0.31833  -0.30823
 Alpha  occ. eigenvalues --   -0.30236  -0.29216  -0.28543  -0.28142  -0.27935
 Alpha  occ. eigenvalues --   -0.27475  -0.27172  -0.26574  -0.25043  -0.24947
 Alpha  occ. eigenvalues --   -0.24201  -0.23227  -0.19575  -0.17506  -0.16640
 Alpha  occ. eigenvalues --   -0.16432  -0.14021  -0.13571  -0.10328   0.04295
 Alpha virt. eigenvalues --    0.05604   0.06787   0.07250   0.08061   0.08382
 Alpha virt. eigenvalues --    0.08477   0.09035   0.09273   0.09389   0.10036
 Alpha virt. eigenvalues --    0.10407   0.10566   0.10810   0.11190   0.11646

  Beta  occ. eigenvalues --  -19.05239 -14.22159 -14.18933 -14.17744 -10.15858
  Beta  occ. eigenvalues --  -10.14028 -10.11754 -10.09987 -10.09956 -10.09187
  Beta  occ. eigenvalues --  -10.07974 -10.07213 -10.06699 -10.06499 -10.06332
  Beta  occ. eigenvalues --  -10.06328 -10.06224 -10.06147 -10.05756  -0.97808
  Beta  occ. eigenvalues --   -0.86478  -0.82574  -0.80009  -0.69874  -0.69348
  Beta  occ. eigenvalues --   -0.68521  -0.66665  -0.64527  -0.62288  -0.59391
  Beta  occ. eigenvalues --   -0.55025  -0.53929  -0.52983  -0.50155  -0.49471
  Beta  occ. eigenvalues --   -0.48106  -0.45222  -0.40363  -0.39939  -0.39380
  Beta  occ. eigenvalues --   -0.38661  -0.36949  -0.36579  -0.34660  -0.33741
  Beta  occ. eigenvalues --   -0.33402  -0.32986  -0.32322  -0.31749  -0.30722
  Beta  occ. eigenvalues --   -0.30162  -0.29164  -0.28425  -0.28044  -0.27882
  Beta  occ. eigenvalues --   -0.27383  -0.27101  -0.26513  -0.24877  -0.24688
  Beta  occ. eigenvalues --   -0.24065  -0.23121  -0.19335  -0.16732  -0.16218
  Beta  occ. eigenvalues --   -0.16045  -0.13728  -0.13093  -0.10237
  Beta virt. eigenvalues --    0.06660   0.06805   0.07565   0.07735   0.08260
  Beta virt. eigenvalues --    0.08572   0.09025   0.09306   0.09580   0.09646
  Beta virt. eigenvalues --    0.10288   0.10473   0.10515   0.10894   0.11376

 Mulliken charges and spin densities:
               1          2
     1  C   -0.650674  -0.002521
     2  C   -0.295682   0.046402
     3  C   -0.122403  -0.013778
     4  C    0.278264  -0.046194
     5  C   -0.497155   0.170342
     6  C   -0.266292   0.034578
     7  C    0.242621   0.001289
     8  N    0.041549   0.140455
     9  C   -0.375414  -0.010412
    10  O    0.016321  -0.003692
    11  C   -0.443808  -0.178590
    12  C    0.180430  -0.013881
    13  C   -0.103893  -0.031020
    14  C   -0.153100   0.167976
    15  C    0.315250  -0.526935
    16  N   -0.181174   0.018336
    17  N   -0.163039   0.156521
    18  C   -0.602574   0.461792
    19  C    1.078050  -1.633024
    20  H    0.123589   0.002072
    21  H    0.144578  -0.003525
    22  H    0.145085  -0.001457
    23  H    0.184112  -0.001062
    24  H    0.129632   0.038002
    25  H    0.153737  -0.014852
    26  H    0.130206  -0.003247
    27  H    0.140711   0.003998
    28  H    0.135608   0.011883
    29  H    0.130270  -0.000646
    30  H    0.196923   0.005363
    31  H    0.128481   0.028264
    32  H   -0.467991   0.609420
    33  H   -0.009256   0.272515
    34  H    0.025814   0.146395
    35  H    0.190862  -0.027714
    36  H   -0.561900   0.705561
    37  H   -0.062783   0.194122
    38  H   -0.154954   0.297265
 Sum of Mulliken charges =  -1.00000   1.00000

 Dipole moment (field-independent basis, Debye):
    X=              7.8374    Y=              0.0063    Z=              0.5904  Tot=              7.8596
 Quadrupole moment (field-independent basis, Debye-Ang):
   XX=           -231.1553   YY=           -134.4997   ZZ=           -137.1471
   XY=              8.8773   XZ=              6.6452   YZ=              0.8879

 Summary of Natural Population Analysis:

                                       Natural Population
                Natural  -----------------------------------------------
    Atom  No    Charge         Core      Valence    Rydberg      Total
 -----------------------------------------------------------------------
      C    1   -0.28050      0.99966     2.27693    0.00391     3.28050
      C    2   -0.20521      0.99962     2.19842    0.00718     3.20521
      C    3    0.11439      0.99942     1.87213    0.01406     2.88561
      C    4    0.12031      0.99925     1.86677    0.01367     2.87969
      C    5   -0.05202      0.99943     2.04402    0.00856     3.05202
      C    6   -0.12523      0.99953     2.11808    0.00762     3.12523
      C    7    0.10257      0.99956     1.88621    0.01166     2.89743
      N    8   -0.21860      0.99964     2.70491    0.01405     3.71860
      C    9   -0.29428      0.99964     2.28987    0.00477     3.29428
      O   10   -0.26895      0.99983     3.25870    0.01041     4.26895
      C   11    0.27526      0.99941     1.70728    0.01805     2.72474
      C   12   -0.19043      0.99951     2.18184    0.00908     3.19043
      C   13   -0.05747      0.99958     2.04810    0.00979     3.05747
      C   14   -0.15580      0.99952     2.14676    0.00951     3.15580
      C   15    0.21244      0.99955     1.77277    0.01524     2.78756
      N   16   -0.27030      0.99962     2.76119    0.00949     3.77030
      N   17   -0.30866      0.99966     2.79807    0.01093     3.80866
      C   18   -0.08843      0.99964     2.07719    0.01160     3.08843
      C   19   -0.28910      0.99967     2.28441    0.00502     3.28910
      H   20    0.09185      0.00000     0.40726    0.00089     0.40815
      H   21    0.10155      0.00000     0.39768    0.00076     0.39845
      H   22    0.09906      0.00000     0.40008    0.00086     0.40094
      H   23    0.10522      0.00000     0.39385    0.00093     0.39478
      H   24    0.10024      0.00000     0.39792    0.00184     0.39976
      H   25    0.09996      0.00000     0.39835    0.00170     0.40004
      H   26    0.09510      0.00000     0.40384    0.00106     0.40490
      H   27    0.10323      0.00000     0.39579    0.00098     0.39677
      H   28    0.10299      0.00000     0.39598    0.00103     0.39701
      H   29    0.09359      0.00000     0.40563    0.00077     0.40641
      H   30    0.11229      0.00000     0.38606    0.00164     0.38771
      H   31    0.09679      0.00000     0.40248    0.00073     0.40321
      H   32    0.10257      0.00000     0.39633    0.00109     0.39743
      H   33    0.18874      0.00000     0.30726    0.00400     0.31126
      H   34    0.08712      0.00000     0.41132    0.00156     0.41288
      H   35    0.10251      0.00000     0.39569    0.00180     0.39749
      H   36    0.09862      0.00000     0.39893    0.00244     0.40138
      H   37    0.09958      0.00000     0.39964    0.00078     0.40042
      H   38    0.09905      0.00000     0.39979    0.00116     0.40095
 =======================================================================
   * Total *    0.00006     18.99176    49.78755    0.22064    68.99994

 Normal termination of Gaussian 16 at Sat Dec 12 11:05:39 2020.
