 Gaussian 16, Revision A.03,

 -----------------------------------------------------------
 # opt freq B3LYP/6-31G(d) empiricaldispersion=gd3bj scf=xqc
 -----------------------------------------------------------

 -------------------------------
 CID_142240682_JID_5087_neutraal
 -------------------------------
 Symbolic Z-matrix:
 Charge =  0 Multiplicity = 1

 SCF Done:  E(RB3LYP) =  -604.561338447     A.U. after   13 cycles
 SCF Done:  E(RB3LYP) =  -604.564015134     A.U. after   11 cycles
 SCF Done:  E(RB3LYP) =  -604.563431312     A.U. after   11 cycles
 SCF Done:  E(RB3LYP) =  -604.564697170     A.U. after   10 cycles
 SCF Done:  E(RB3LYP) =  -604.565076013     A.U. after   10 cycles
 SCF Done:  E(RB3LYP) =  -604.565631238     A.U. after   10 cycles
 SCF Done:  E(RB3LYP) =  -604.566202164     A.U. after   13 cycles
 SCF Done:  E(RB3LYP) =  -604.567586091     A.U. after   10 cycles
 SCF Done:  E(RB3LYP) =  -604.569289853     A.U. after   11 cycles
 SCF Done:  E(RB3LYP) =  -604.570964251     A.U. after   12 cycles
 SCF Done:  E(RB3LYP) =  -604.572406047     A.U. after   10 cycles
 SCF Done:  E(RB3LYP) =  -604.572439085     A.U. after    9 cycles
 SCF Done:  E(RB3LYP) =  -604.572442165     A.U. after    9 cycles
 SCF Done:  E(RB3LYP) =  -604.572445315     A.U. after    7 cycles
 SCF Done:  E(RB3LYP) =  -604.572446443     A.U. after    7 cycles
 SCF Done:  E(RB3LYP) =  -604.572446472     A.U. after    6 cycles
 Optimization completed.
    -- Stationary point found.
 Normal termination of Gaussian 16 at Thu Dec 10 14:59:20 2020.

 --------------------------------------------------------------------
 #N Geom=AllCheck Guess=TCheck SCRF=Check GenChk RB3LYP/6-31G(d) Freq
 --------------------------------------------------------------------

 Structure from the checkpoint file:  "JID_5087.chk"
 -------------------------------
 CID_142240682_JID_5087_neutraal
 -------------------------------
 Charge =  0 Multiplicity = 1

 SCF Done:  E(RB3LYP) =  -604.572446472     A.U. after    1 cycles

  Exact polarizability: 174.681   1.393 154.062  -3.777  -0.395 126.742
 Approx polarizability: 240.963  -1.267 204.271  -9.610   1.039 196.768

                      1                      2                      3
                      A                      A                      A
 Frequencies --     60.6982                68.8601                88.5927
 Red. masses --      3.5533                 3.6430                 2.7635
 Frc consts  --      0.0077                 0.0102                 0.0128
 IR Inten    --      0.1883                 0.8672                 0.6444

                      4                      5                      6
                      A                      A                      A
 Frequencies --    111.3148               125.3053               131.0710
 Red. masses --      1.7812                 2.3023                 2.1372
 Frc consts  --      0.0130                 0.0213                 0.0216
 IR Inten    --      0.1226                 0.1017                 0.3399

                      7                      8                      9
                      A                      A                      A
 Frequencies --    164.4742               172.4302               210.6076
 Red. masses --      2.4130                 2.5609                 1.7333
 Frc consts  --      0.0385                 0.0449                 0.0453
 IR Inten    --      0.3703                 3.5155                 1.7388

                     10                     11                     12
                      A                      A                      A
 Frequencies --    230.5099               238.9217               257.3940
 Red. masses --      1.0676                 1.3332                 1.3522
 Frc consts  --      0.0334                 0.0448                 0.0528
 IR Inten    --      0.3461                 1.4339                 0.0877

                     13                     14                     15
                      A                      A                      A
 Frequencies --    261.0833               279.5772               294.6306
 Red. masses --      1.6988                 1.4741                 1.4607
 Frc consts  --      0.0682                 0.0679                 0.0747
 IR Inten    --     14.2953                 9.1332                34.1302

                     16                     17                     18
                      A                      A                      A
 Frequencies --    314.2684               327.6569               337.6891
 Red. masses --      2.2847                 2.0666                 2.4104
 Frc consts  --      0.1329                 0.1307                 0.1620
 IR Inten    --      0.2295                 3.1188                 0.0886

                     19                     20                     21
                      A                      A                      A
 Frequencies --    347.2030               370.7270               389.5850
 Red. masses --      2.2378                 2.6081                 2.6775
 Frc consts  --      0.1589                 0.2112                 0.2394
 IR Inten    --      0.1764                 1.0032                 3.4329

                     22                     23                     24
                      A                      A                      A
 Frequencies --    400.1060               448.6193               470.0852
 Red. masses --      2.7150                 1.8010                 2.3207
 Frc consts  --      0.2561                 0.2136                 0.3022
 IR Inten    --      0.1838                 1.0609                 1.8553

                     25                     26                     27
                      A                      A                      A
 Frequencies --    482.5135               501.8558               558.9226
 Red. masses --      2.2569                 2.4928                 2.6660
 Frc consts  --      0.3096                 0.3699                 0.4907
 IR Inten    --      4.1624                 0.9202                 4.2962

                     28                     29                     30
                      A                      A                      A
 Frequencies --    568.4333               624.9220               750.1992
 Red. masses --      2.7072                 3.2259                 2.6914
 Frc consts  --      0.5154                 0.7423                 0.8924
 IR Inten    --      2.8778                 2.2899                 1.7923

                     31                     32                     33
                      A                      A                      A
 Frequencies --    768.7209               789.3007               810.0244
 Red. masses --      1.6065                 1.8781                 1.2721
 Frc consts  --      0.5593                 0.6894                 0.4918
 IR Inten    --      3.4394                 2.9517                 2.7933

                     34                     35                     36
                      A                      A                      A
 Frequencies --    841.8550               869.2468               890.3797
 Red. masses --      2.4499                 1.4316                 1.5364
 Frc consts  --      1.0230                 0.6373                 0.7177
 IR Inten    --      7.9686                94.9050                39.4993

                     37                     38                     39
                      A                      A                      A
 Frequencies --    903.2229               910.5794               919.0117
 Red. masses --      2.1081                 1.8766                 1.8232
 Frc consts  --      1.0133                 0.9168                 0.9073
 IR Inten    --      1.0194                 4.8316                 7.4331

                     40                     41                     42
                      A                      A                      A
 Frequencies --    938.8828               953.4545               967.0338
 Red. masses --      1.8450                 1.6724                 1.5762
 Frc consts  --      0.9582                 0.8958                 0.8685
 IR Inten    --      0.9844                 4.2665                 1.2447

                     43                     44                     45
                      A                      A                      A
 Frequencies --    972.5673               990.7914              1023.9319
 Red. masses --      1.6374                 1.6971                 1.7740
 Frc consts  --      0.9125                 0.9816                 1.0958
 IR Inten    --      1.5284                 1.2818                 1.0573

                     46                     47                     48
                      A                      A                      A
 Frequencies --   1028.7948              1034.6194              1050.9549
 Red. masses --      1.7586                 3.3543                 1.3912
 Frc consts  --      1.0967                 2.1155                 0.9053
 IR Inten    --      2.1827                10.8470                 0.1273

                     49                     50                     51
                      A                      A                      A
 Frequencies --   1060.2130              1064.0244              1097.6295
 Red. masses --      2.8513                 1.7579                 1.8661
 Frc consts  --      1.8883                 1.1726                 1.3246
 IR Inten    --      0.7719                 2.2129                 1.1085

                     52                     53                     54
                      A                      A                      A
 Frequencies --   1123.7402              1132.7580              1156.0896
 Red. masses --      2.2240                 1.6510                 1.6518
 Frc consts  --      1.6547                 1.2481                 1.3007
 IR Inten    --      1.9585                 1.3248                 5.0361

                     55                     56                     57
                      A                      A                      A
 Frequencies --   1177.5165              1184.0227              1202.2641
 Red. masses --      1.5592                 1.3761                 1.5898
 Frc consts  --      1.2738                 1.1367                 1.3539
 IR Inten    --      1.3658                 1.8617                 4.0018

                     58                     59                     60
                      A                      A                      A
 Frequencies --   1216.9996              1236.5099              1254.4201
 Red. masses --      2.3840                 2.2440                 2.0487
 Frc consts  --      2.0804                 2.0215                 1.8994
 IR Inten    --      4.4681                 7.0080                 6.5582

                     61                     62                     63
                      A                      A                      A
 Frequencies --   1280.3981              1303.5091              1314.1999
 Red. masses --      1.8062                 1.5160                 1.2686
 Frc consts  --      1.7446                 1.5177                 1.2909
 IR Inten    --      6.0039                 1.9017                 2.0492

                     64                     65                     66
                      A                      A                      A
 Frequencies --   1329.7755              1332.3909              1341.6390
 Red. masses --      1.2394                 1.3320                 1.4328
 Frc consts  --      1.2912                 1.3932                 1.5195
 IR Inten    --      3.2900                 1.4682                 2.3848

                     67                     68                     69
                      A                      A                      A
 Frequencies --   1362.6676              1371.8757              1388.1871
 Red. masses --      1.4676                 1.3744                 1.4464
 Frc consts  --      1.6056                 1.5240                 1.6422
 IR Inten    --      0.1022                 2.6579                 2.5516

                     70                     71                     72
                      A                      A                      A
 Frequencies --   1400.5021              1404.2163              1413.2023
 Red. masses --      1.3779                 1.5128                 1.4547
 Frc consts  --      1.5923                 1.7575                 1.7117
 IR Inten    --      4.7397                 3.9013                 0.5577

                     73                     74                     75
                      A                      A                      A
 Frequencies --   1428.7774              1441.9349              1442.5088
 Red. masses --      1.2414                 1.2863                 1.2374
 Frc consts  --      1.4931                 1.5757                 1.5170
 IR Inten    --      3.0386                11.5843                 4.2598

                     76                     77                     78
                      A                      A                      A
 Frequencies --   1445.0844              1451.7547              1504.3627
 Red. masses --      1.4319                 1.2315                 1.0927
 Frc consts  --      1.7617                 1.5292                 1.4570
 IR Inten    --      7.9763                 5.3599                 1.8771

                     79                     80                     81
                      A                      A                      A
 Frequencies --   1505.5661              1509.4028              1515.2984
 Red. masses --      1.0793                 1.0697                 1.0722
 Frc consts  --      1.4415                 1.4359                 1.4505
 IR Inten    --      1.1513                 2.7907                 1.7216

                     82                     83                     84
                      A                      A                      A
 Frequencies --   1522.0488              1525.3903              1530.1457
 Red. masses --      1.0628                 1.0614                 1.0718
 Frc consts  --      1.4507                 1.4551                 1.4785
 IR Inten    --      1.3541                 2.5511                13.1173

                     85                     86                     87
                      A                      A                      A
 Frequencies --   1531.2749              1532.7215              1536.8600
 Red. masses --      1.0602                 1.0566                 1.0461
 Frc consts  --      1.4646                 1.4624                 1.4557
 IR Inten    --      2.6656                 0.8104                 4.0391

                     88                     89                     90
                      A                      A                      A
 Frequencies --   1537.5476              1545.5907              1548.1836
 Red. masses --      1.0498                 1.0788                 1.0708
 Frc consts  --      1.4623                 1.5183                 1.5122
 IR Inten    --      0.8132                 4.0292                 1.9689

                     91                     92                     93
                      A                      A                      A
 Frequencies --   1551.2634              1689.4054              1755.3164
 Red. masses --      1.0560                 1.0953                 6.9392
 Frc consts  --      1.4972                 1.8419                12.5971
 IR Inten    --      8.6459                19.9517                 5.0583

                     94                     95                     96
                      A                      A                      A
 Frequencies --   2992.3461              3005.7605              3013.5795
 Red. masses --      1.0683                 1.0672                 1.0675
 Frc consts  --      5.6360                 5.6809                 5.7118
 IR Inten    --     50.9473                17.0664                 8.6185

                     97                     98                     99
                      A                      A                      A
 Frequencies --   3018.4088              3034.1813              3036.5970
 Red. masses --      1.0673                 1.0583                 1.0388
 Frc consts  --      5.7291                 5.7404                 5.6437
 IR Inten    --     53.0276                35.2251                55.8424

                    100                    101                    102
                      A                      A                      A
 Frequencies --   3046.9148              3048.9293              3052.3383
 Red. masses --      1.0916                 1.0428                 1.0423
 Frc consts  --      5.9709                 5.7114                 5.7217
 IR Inten    --     56.9933                14.2494                24.8980

                    103                    104                    105
                      A                      A                      A
 Frequencies --   3052.7197              3055.6922              3064.1934
 Red. masses --      1.0451                 1.0646                 1.0918
 Frc consts  --      5.7385                 5.8565                 6.0396
 IR Inten    --      9.9621                 8.8414                48.6274

                    106                    107                    108
                      A                      A                      A
 Frequencies --   3068.0994              3075.9619              3101.4025
 Red. masses --      1.0960                 1.0952                 1.1023
 Frc consts  --      6.0786                 6.1052                 6.2468
 IR Inten    --     38.2886                22.2705                 1.3285

                    109                    110                    111
                      A                      A                      A
 Frequencies --   3105.0661              3108.5986              3108.7749
 Red. masses --      1.1019                 1.1009                 1.1004
 Frc consts  --      6.2597                 6.2678                 6.2659
 IR Inten    --     38.6824                44.6678                55.9439

                    112                    113                    114
                      A                      A                      A
 Frequencies --   3112.7402              3115.9376              3120.5650
 Red. masses --      1.0939                 1.1012                 1.0899
 Frc consts  --      6.2449                 6.2996                 6.2534
 IR Inten    --      7.6306                46.8252                29.1449

                    115                    116                    117
                      A                      A                      A
 Frequencies --   3124.4500              3132.6423              3152.3762
 Red. masses --      1.1005                 1.0992                 1.0886
 Frc consts  --      6.3296                 6.3557                 6.3737
 IR Inten    --     54.7397                40.9741                23.0819

                    118                    119                    120
                      A                      A                      A
 Frequencies --   3154.7450              3459.4890              3550.0918
 Red. masses --      1.0936                 1.0495                 1.0923
 Frc consts  --      6.4129                 7.4004                 8.1106
 IR Inten    --     32.2890                 7.2141                 1.8178

 - Thermochemistry -
 -------------------
 Temperature   298.150 Kelvin.  Pressure   1.00000 Atm.
 Atom     1 has atomic number  6 and mass  12.00000

 Molecular mass:   209.21435 amu.
 Principal axes and moments of inertia in atomic units:
                           1         2         3
     Eigenvalues --  2824.384643402.765445005.12670
           X            0.99933   0.03652  -0.00077
           Y           -0.03651   0.99933   0.00367
           Z            0.00090  -0.00364   0.99999
 This molecule is an asymmetric top.
 Rotational symmetry number  1.
 Warning -- assumption of classical behavior for rotation
           may cause significant error
 Rotational temperatures (Kelvin)      0.03067     0.02545     0.01731
 Rotational constants (GHZ):           0.63899     0.53037     0.36058
 Zero-point vibrational energy    1030962.2 (Joules/Mol)
                                  246.40588 (Kcal/Mol)
 Warning -- explicit consideration of  28 degrees of freedom as
           vibrations may cause significant error
 Vibrational temperatures:     87.33    99.07   127.47   160.16   180.29
          (Kelvin)            188.58   236.64   248.09   303.02   331.65
                              343.76   370.33   375.64   402.25   423.91
                              452.16   471.43   485.86   499.55   533.39
                              560.53   575.66   645.46   676.35   694.23
                              722.06   804.16   817.85   899.12  1079.37
                             1106.02  1135.63  1165.44  1211.24  1250.65
                             1281.06  1299.54  1310.12  1322.25  1350.84
                             1371.81  1391.35  1399.31  1425.53  1473.21
                             1480.21  1488.59  1512.09  1525.41  1530.89
                             1579.24  1616.81  1629.79  1663.36  1694.18
                             1703.54  1729.79  1750.99  1779.06  1804.83
                             1842.21  1875.46  1890.84  1913.25  1917.01
                             1930.32  1960.57  1973.82  1997.29  2015.01
                             2020.35  2033.28  2055.69  2074.62  2075.45
                             2079.15  2088.75  2164.44  2166.17  2171.69
                             2180.18  2189.89  2194.70  2201.54  2203.16
                             2205.24  2211.20  2212.19  2223.76  2227.49
                             2231.92  2430.68  2525.51  4305.32  4324.62
                             4335.87  4342.82  4365.51  4368.99  4383.83
                             4386.73  4391.63  4392.18  4396.46  4408.69
                             4414.31  4425.62  4462.23  4467.50  4472.58
                             4472.83  4478.54  4483.14  4489.80  4495.39
                             4507.17  4535.57  4538.97  4977.43  5107.79

 Zero-point correction=                           0.392673 (Hartree/Particle)
 Thermal correction to Energy=                    0.410000
 Thermal correction to Enthalpy=                  0.410944
 Thermal correction to Gibbs Free Energy=         0.349769
 Sum of electronic and zero-point Energies=           -604.179774
 Sum of electronic and thermal Energies=              -604.162446
 Sum of electronic and thermal Enthalpies=            -604.161502
 Sum of electronic and thermal Free Energies=         -604.222678

                     E (Thermal)             CV                S
                      KCal/Mol        Cal/Mol-Kelvin    Cal/Mol-Kelvin
 Total                  257.279             68.180            128.754
 Electronic               0.000              0.000              0.000
 Translational            0.889              2.981             41.918
 Rotational               0.889              2.981             32.242
 Vibrational            255.501             62.218             54.594
 Vibration     1          0.597              1.973              4.434
 Vibration     2          0.598              1.969              4.186
 Vibration     3          0.601              1.957              3.691
 Vibration     4          0.607              1.940              3.246
 Vibration     5          0.610              1.928              3.017
 Vibration     6          0.612              1.922              2.930
 Vibration     7          0.623              1.886              2.498
 Vibration     8          0.626              1.876              2.409
 Vibration     9          0.643              1.825              2.038
 Vibration    10          0.652              1.794              1.875
 Vibration    11          0.657              1.781              1.811
 Vibration    12          0.667              1.750              1.679
 Vibration    13          0.669              1.744              1.655
 Vibration    14          0.680              1.711              1.536
 Vibration    15          0.689              1.684              1.447
 Vibration    16          0.702              1.646              1.340
 Vibration    17          0.711              1.620              1.272
 Vibration    18          0.718              1.600              1.223
 Vibration    19          0.725              1.581              1.179
 Vibration    20          0.743              1.532              1.077
 Vibration    21          0.758              1.492              1.002
 Vibration    22          0.766              1.470              0.962
 Vibration    23          0.808              1.364              0.800
 Vibration    24          0.827              1.316              0.737
 Vibration    25          0.839              1.289              0.703
 Vibration    26          0.857              1.246              0.654
 Vibration    27          0.915              1.120              0.526
 Vibration    28          0.924              1.100              0.507

 Optimization completed.
    -- Stationary point found.
 Normal termination of Gaussian 16 at Thu Dec 10 15:16:41 2020.

 ----------------------------------------------------------------------
 # B3LYP/6-311++G(d,p) empiricaldispersion=gd3bj scf=xqc pop=npa geom=c
 heck
 ----------------------------------------------------------------------

 ---------------------------------------
 CID_142240682_JID_5087_Energie_neutraal
 ---------------------------------------
 Structure from the checkpoint file:  "JID_5087.chk"
 Charge =  0 Multiplicity = 1

 SCF Done:  E(RB3LYP) =  -604.745256566     A.U. after   13 cycles
 Normal termination of Gaussian 16 at Thu Dec 10 15:25:14 2020.

 ----------------------------------------------------------------------
 # B3LYP/6-311++G(d,p) empiricaldispersion=gd3bj scf=xqc pop=npa geom=c
 heck
 ----------------------------------------------------------------------

 -------------------------------------
 CID_142240682_JID_5087_Energie_kation
 -------------------------------------
 Structure from the checkpoint file:  "JID_5087.chk"
 Charge =  1 Multiplicity = 2

 SCF Done:  E(UB3LYP) =  -604.442166101     A.U. after   22 cycles
 Normal termination of Gaussian 16 at Thu Dec 10 15:45:40 2020.
 Gaussian 16:  ES64L-G16RevA.03 25-Dec-2016

 ----------------------------------------------------------------------
 # B3LYP/6-311++G(d,p) empiricaldispersion=gd3bj scf=xqc pop=npa geom=c
 heck
 ----------------------------------------------------------------------

 ------------------------------------
 CID_142240682_JID_5087_Energie_anion
 ------------------------------------
 Structure from the checkpoint file:  "JID_5087.chk"
 Charge = -1 Multiplicity = 2

                         Standard orientation:
 ---------------------------------------------------------------------
 Center     Atomic      Atomic             Coordinates (Angstroms)
 Number     Number       Type             X           Y           Z
 ---------------------------------------------------------------------
      1          6           0       -0.755171   -2.595569    0.913539
      2          6           0        0.087915   -1.319302    1.020622
      3          6           0        0.782202   -0.845154   -0.280730
      4          6           0       -0.274015   -0.371405   -1.317818
      5          6           0       -0.929695    0.918577   -0.898412
      6          6           0       -2.224259    1.074347   -0.587833
      7          6           0       -3.297059    0.022086   -0.593985
      8          7           0       -3.735340   -0.241337    0.788207
      9          6           0        0.059392    2.049917   -0.778875
     10          6           0        1.161362    1.741827    0.268508
     11          6           0        1.753865    0.333021   -0.003303
     12          6           0        0.578824    1.892097    1.686515
     13          6           0        2.300414    2.765154    0.117429
     14          6           0        1.580882   -2.003822   -0.929050
     15          6           0        2.661897   -2.647865   -0.055639
     16          1           0       -1.551302   -2.499476    0.167063
     17          1           0       -1.234720   -2.812125    1.875190
     18          1           0       -0.154793   -3.470662    0.645772
     19          1           0       -0.557849   -0.516749    1.383609
     20          1           0        0.851078   -1.461488    1.795821
     21          1           0        0.246796   -0.204553   -2.272809
     22          1           0       -0.999671   -1.167735   -1.499165
     23          1           0       -2.557816    2.053528   -0.244582
     24          1           0       -4.171100    0.401519   -1.140567
     25          1           0       -2.958269   -0.876168   -1.133802
     26          1           0       -4.478054   -0.939707    0.784607
     27          1           0       -2.958740   -0.650444    1.305696
     28          1           0       -0.444074    2.988891   -0.519302
     29          1           0        0.545668    2.203405   -1.754747
     30          1           0        2.423820    0.072867    0.826018
     31          1           0        2.395407    0.425702   -0.891693
     32          1           0        1.267535    1.496648    2.442081
     33          1           0        0.410224    2.952326    1.910641
     34          1           0       -0.381457    1.385194    1.798975
     35          1           0        2.753920    2.711657   -0.879450
     36          1           0        1.929929    3.786539    0.265713
     37          1           0        3.090507    2.585507    0.856952
     38          1           0        0.876317   -2.778734   -1.257049
     39          1           0        2.047579   -1.619888   -1.846325
     40          1           0        2.241609   -3.096275    0.850964
     41          1           0        3.175659   -3.442881   -0.607440
     42          1           0        3.419857   -1.920988    0.254565
 ---------------------------------------------------------------------

 SCF Done:  E(UB3LYP) =  -604.730781761     A.U. after   31 cycles

 The electronic state is 2-A.
 Alpha  occ. eigenvalues --  -14.19545 -10.09736 -10.08946 -10.08418 -10.07893
 Alpha  occ. eigenvalues --  -10.07172 -10.06882 -10.06547 -10.06516 -10.06436
 Alpha  occ. eigenvalues --  -10.06428 -10.06261 -10.05924 -10.05868 -10.05780
 Alpha  occ. eigenvalues --   -0.78630  -0.76055  -0.71209  -0.69304  -0.64836
 Alpha  occ. eigenvalues --   -0.62892  -0.60881  -0.59098  -0.58439  -0.53880
 Alpha  occ. eigenvalues --   -0.53390  -0.52094  -0.45129  -0.43827  -0.41249
 Alpha  occ. eigenvalues --   -0.39466  -0.39268  -0.37289  -0.36685  -0.35737
 Alpha  occ. eigenvalues --   -0.34104  -0.33721  -0.33212  -0.32560  -0.31586
 Alpha  occ. eigenvalues --   -0.30478  -0.29744  -0.28907  -0.28668  -0.28128
 Alpha  occ. eigenvalues --   -0.27412  -0.27029  -0.26825  -0.26225  -0.25108
 Alpha  occ. eigenvalues --   -0.24538  -0.23342  -0.22943  -0.22589  -0.21623
 Alpha  occ. eigenvalues --   -0.20685  -0.19428  -0.15142  -0.14337   0.04322
 Alpha virt. eigenvalues --    0.05974   0.06769   0.07132   0.08313   0.08359
 Alpha virt. eigenvalues --    0.08672   0.09017   0.09309   0.10595   0.10761
 Alpha virt. eigenvalues --    0.11100   0.11199   0.11515   0.11847   0.12055

  Beta  occ. eigenvalues --  -14.19512 -10.09719 -10.08943 -10.08416 -10.07887
  Beta  occ. eigenvalues --  -10.07163 -10.06871 -10.06547 -10.06501 -10.06422
  Beta  occ. eigenvalues --  -10.06407 -10.06248 -10.05908 -10.05838 -10.05744
  Beta  occ. eigenvalues --   -0.78582  -0.76038  -0.71190  -0.69282  -0.64798
  Beta  occ. eigenvalues --   -0.62859  -0.60843  -0.59064  -0.58407  -0.53828
  Beta  occ. eigenvalues --   -0.53333  -0.52028  -0.45091  -0.43789  -0.41213
  Beta  occ. eigenvalues --   -0.39432  -0.39241  -0.37262  -0.36663  -0.35714
  Beta  occ. eigenvalues --   -0.34072  -0.33678  -0.33187  -0.32532  -0.31551
  Beta  occ. eigenvalues --   -0.30449  -0.29717  -0.28876  -0.28635  -0.28104
  Beta  occ. eigenvalues --   -0.27382  -0.26986  -0.26804  -0.26193  -0.25083
  Beta  occ. eigenvalues --   -0.24510  -0.23319  -0.22922  -0.22567  -0.21597
  Beta  occ. eigenvalues --   -0.20660  -0.19408  -0.15113  -0.14311
  Beta virt. eigenvalues --    0.06263   0.06838   0.07345   0.07545   0.08645
  Beta virt. eigenvalues --    0.08765   0.09051   0.09423   0.09539   0.10952
  Beta virt. eigenvalues --    0.11021   0.11266   0.11546   0.11776   0.12175

 Mulliken charges and spin densities:
               1          2
     1  C    0.753773  -1.494484
     2  C   -1.179748   0.681106
     3  C    0.991920   0.186052
     4  C   -0.437303   0.108918
     5  C    0.413211   0.750566
     6  C   -0.686865  -0.055713
     7  C    0.516005  -1.109446
     8  N   -0.428883   0.079447
     9  C   -0.336343  -0.613600
    10  C    0.322613   0.742162
    11  C   -0.653360  -0.808302
    12  C   -0.408752  -0.323486
    13  C    0.169686  -0.695562
    14  C   -0.193579   0.163369
    15  C    0.879018  -1.520531
    16  H   -0.062691   0.229107
    17  H   -0.323358   0.479659
    18  H   -0.055354   0.200279
    19  H    0.458650  -0.460221
    20  H   -0.054210   0.246038
    21  H   -0.033420   0.214463
    22  H    0.202999  -0.050789
    23  H    0.061010   0.065436
    24  H   -0.025802   0.180358
    25  H   -0.241483   0.347930
    26  H   -0.094429   0.328116
    27  H    0.176278   0.067638
    28  H    0.108765   0.062453
    29  H    0.043383   0.120108
    30  H    0.358032  -0.157135
    31  H    0.132138   0.028787
    32  H   -0.061338   0.220164
    33  H    0.020217   0.120802
    34  H   -0.057330   0.238927
    35  H   -0.184673   0.322638
    36  H   -0.002712   0.148063
    37  H   -0.139150   0.279063
    38  H   -0.146458   0.306891
    39  H   -0.079193   0.209114
    40  H   -0.115700   0.258220
    41  H   -0.251967   0.400890
    42  H   -0.353595   0.502507
 Sum of Mulliken charges =  -1.00000   1.00000

 Dipole moment (field-independent basis, Debye):
    X=             -0.1060    Y=              3.2986    Z=             -1.4569  Tot=              3.6075
 Quadrupole moment (field-independent basis, Debye-Ang):
   XX=           -172.3002   YY=           -156.2516   ZZ=           -136.2747
   XY=             -1.7154   XZ=              4.9192   YZ=              1.0280

 Summary of Natural Population Analysis:

                                       Natural Population
                Natural  -----------------------------------------------
    Atom  No    Charge         Core      Valence    Rydberg      Total
 -----------------------------------------------------------------------
      C    1   -0.28897      0.99966     2.28307    0.00624     3.28897
      C    2   -0.19515      0.99958     2.18560    0.00997     3.19515
      C    3   -0.03094      0.99955     2.01751    0.01388     3.03094
      C    4   -0.20769      0.99955     2.19744    0.01071     3.20769
      C    5    0.00745      0.99948     1.98177    0.01131     2.99255
      C    6   -0.10104      0.99943     2.09223    0.00939     3.10104
      C    7   -0.10294      0.99961     2.09213    0.01120     3.10294
      N    8   -0.41940      0.99977     2.90982    0.00980     3.91940
      C    9   -0.19855      0.99955     2.18883    0.01016     3.19855
      C   10   -0.04076      0.99957     2.03034    0.01085     3.04076
      C   11   -0.18885      0.99956     2.17732    0.01197     3.18885
      C   12   -0.28480      0.99962     2.27836    0.00682     3.28480
      C   13   -0.28067      0.99963     2.27387    0.00717     3.28067
      C   14   -0.18814      0.99960     2.17812    0.01043     3.18814
      C   15   -0.28690      0.99966     2.28199    0.00526     3.28690
      H   16    0.09630      0.00000     0.40214    0.00156     0.40370
      H   17    0.10051      0.00000     0.39846    0.00104     0.39949
      H   18    0.09842      0.00000     0.40050    0.00108     0.40158
      H   19    0.09887      0.00000     0.39869    0.00244     0.40113
      H   20    0.09885      0.00000     0.39995    0.00119     0.40115
      H   21    0.10250      0.00000     0.39613    0.00137     0.39750
      H   22    0.10546      0.00000     0.39308    0.00146     0.39454
      H   23    0.09394      0.00000     0.40490    0.00117     0.40606
      H   24    0.09125      0.00000     0.40767    0.00108     0.40875
      H   25    0.08187      0.00000     0.41627    0.00186     0.41813
      H   26    0.17473      0.00000     0.32293    0.00234     0.32527
      H   27    0.17383      0.00000     0.32365    0.00252     0.32617
      H   28    0.10077      0.00000     0.39795    0.00128     0.39923
      H   29    0.10062      0.00000     0.39816    0.00121     0.39938
      H   30    0.10362      0.00000     0.39493    0.00145     0.39638
      H   31    0.09918      0.00000     0.39926    0.00156     0.40082
      H   32    0.10025      0.00000     0.39893    0.00083     0.39975
      H   33    0.09670      0.00000     0.40246    0.00085     0.40330
      H   34    0.10333      0.00000     0.39546    0.00120     0.39667
      H   35    0.09872      0.00000     0.40032    0.00097     0.40128
      H   36    0.09752      0.00000     0.40163    0.00085     0.40248
      H   37    0.10074      0.00000     0.39832    0.00094     0.39926
      H   38    0.09853      0.00000     0.40027    0.00120     0.40147
      H   39    0.09586      0.00000     0.40290    0.00124     0.40414
      H   40    0.09761      0.00000     0.40128    0.00110     0.40239
      H   41    0.09947      0.00000     0.39966    0.00086     0.40053
      H   42    0.09789      0.00000     0.40095    0.00116     0.40211
 =======================================================================
   * Total *    0.00000     14.99381    43.82525    0.18094    59.00000

 Normal termination of Gaussian 16 at Thu Dec 10 16:12:45 2020.
