 Gaussian 16, Revision A.03,

 -----------------------------------------------------------
 # opt freq B3LYP/6-31G(d) empiricaldispersion=gd3bj scf=xqc
 -----------------------------------------------------------

 ------------------------------
 CID_58836338_JID_2598_neutraal
 ------------------------------
 Symbolic Z-matrix:
 Charge =  0 Multiplicity = 1

 SCF Done:  E(RB3LYP) =  -542.428046949     A.U. after   14 cycles
 SCF Done:  E(RB3LYP) =  -542.431266526     A.U. after   12 cycles
 SCF Done:  E(RB3LYP) =  -542.429983274     A.U. after   12 cycles
 SCF Done:  E(RB3LYP) =  -542.431825743     A.U. after   12 cycles
 SCF Done:  E(RB3LYP) =  -542.431897545     A.U. after   11 cycles
 SCF Done:  E(RB3LYP) =  -542.431997410     A.U. after   11 cycles
 SCF Done:  E(RB3LYP) =  -542.432047096     A.U. after   10 cycles
 SCF Done:  E(RB3LYP) =  -542.432050847     A.U. after    8 cycles
 SCF Done:  E(RB3LYP) =  -542.432051253     A.U. after    7 cycles
 SCF Done:  E(RB3LYP) =  -542.432051572     A.U. after    8 cycles
 SCF Done:  E(RB3LYP) =  -542.432051768     A.U. after    8 cycles
 SCF Done:  E(RB3LYP) =  -542.432051934     A.U. after    7 cycles
 SCF Done:  E(RB3LYP) =  -542.432051974     A.U. after    7 cycles
 Optimization completed.
    -- Stationary point found.
 Normal termination of Gaussian 16 at Wed Dec  9 17:43:03 2020.

 --------------------------------------------------------------------
 #N Geom=AllCheck Guess=TCheck SCRF=Check GenChk RB3LYP/6-31G(d) Freq
 --------------------------------------------------------------------

 Structure from the checkpoint file:  "JID_2598.chk"
 ------------------------------
 CID_58836338_JID_2598_neutraal
 ------------------------------
 Charge =  0 Multiplicity = 1

 SCF Done:  E(RB3LYP) =  -542.432051974     A.U. after    1 cycles

  Exact polarizability: 129.621  -3.798  96.948  -1.976   0.194  93.589
 Approx polarizability: 160.479  -8.607 149.104  -4.801   2.812 135.869

                      1                      2                      3
                      A                      A                      A
 Frequencies --     31.2342                70.9510                88.9832
 Red. masses --      3.5177                 3.2348                 2.6787
 Frc consts  --      0.0020                 0.0096                 0.0125
 IR Inten    --      0.4625                 0.1584                 0.1091

                      4                      5                      6
                      A                      A                      A
 Frequencies --    132.8015               186.3730               226.7581
 Red. masses --      2.5996                 2.4952                 1.1009
 Frc consts  --      0.0270                 0.0511                 0.0334
 IR Inten    --      1.0474                 1.6380                 0.1269

                      7                      8                      9
                      A                      A                      A
 Frequencies --    230.8681               245.4411               266.9295
 Red. masses --      1.4164                 1.6416                 1.1638
 Frc consts  --      0.0445                 0.0583                 0.0489
 IR Inten    --      0.9421                 0.5595                 0.2377

                     10                     11                     12
                      A                      A                      A
 Frequencies --    272.7315               287.0348               305.6789
 Red. masses --      2.0488                 2.5125                 2.0309
 Frc consts  --      0.0898                 0.1220                 0.1118
 IR Inten    --      2.3098                 2.6980                 0.6956

                     13                     14                     15
                      A                      A                      A
 Frequencies --    313.6958               338.0975               369.7873
 Red. masses --      1.6248                 2.6841                 2.0995
 Frc consts  --      0.0942                 0.1808                 0.1691
 IR Inten    --      1.2110                 2.3130                 0.2566

                     16                     17                     18
                      A                      A                      A
 Frequencies --    383.9003               450.1048               467.7995
 Red. masses --      2.1333                 2.4644                 2.8986
 Frc consts  --      0.1852                 0.2942                 0.3737
 IR Inten    --      0.3508                 0.8756                 3.0408

                     19                     20                     21
                      A                      A                      A
 Frequencies --    554.0044               602.2886               626.5848
 Red. masses --      3.0653                 3.5941                 3.6103
 Frc consts  --      0.5543                 0.7682                 0.8351
 IR Inten    --      5.4806                 2.9542                 4.2341

                     22                     23                     24
                      A                      A                      A
 Frequencies --    707.7548               743.7257               791.5168
 Red. masses --      4.8346                 3.9842                 1.8307
 Frc consts  --      1.4268                 1.2984                 0.6757
 IR Inten    --      5.2981                 5.7662                 3.2421

                     25                     26                     27
                      A                      A                      A
 Frequencies --    821.7859               852.4212               901.4770
 Red. masses --      2.6424                 2.0899                 2.0964
 Frc consts  --      1.0514                 0.8947                 1.0038
 IR Inten    --      2.9698                 0.1994                 3.0942

                     28                     29                     30
                      A                      A                      A
 Frequencies --    913.1531               942.6166               954.3388
 Red. masses --      1.7707                 1.7592                 1.4647
 Frc consts  --      0.8699                 0.9210                 0.7860
 IR Inten    --      4.3049                 2.3314                 0.1073

                     31                     32                     33
                      A                      A                      A
 Frequencies --    965.0306               979.6812               999.3978
 Red. masses --      2.0970                 2.5635                 1.7910
 Frc consts  --      1.1506                 1.4496                 1.0540
 IR Inten    --      9.4920                28.6691                 9.7839

                     34                     35                     36
                      A                      A                      A
 Frequencies --   1030.7388              1058.0573              1093.0639
 Red. masses --      1.3877                 1.5894                 1.7752
 Frc consts  --      0.8686                 1.0484                 1.2497
 IR Inten    --      0.6691                 6.7187                11.2657

                     37                     38                     39
                      A                      A                      A
 Frequencies --   1102.3829              1129.9835              1145.7071
 Red. masses --      2.0123                 1.5394                 3.0047
 Frc consts  --      1.4408                 1.1581                 2.3238
 IR Inten    --      0.4816                 3.9805               200.4687

                     40                     41                     42
                      A                      A                      A
 Frequencies --   1210.6397              1214.9460              1224.2966
 Red. masses --      2.2603                 2.5201                 2.4535
 Frc consts  --      1.9518                 2.1917                 2.1668
 IR Inten    --      5.0896                36.7330                54.7251

                     43                     44                     45
                      A                      A                      A
 Frequencies --   1250.5148              1293.7081              1305.3598
 Red. masses --      2.7921                 1.7321                 2.6583
 Frc consts  --      2.5725                 1.7080                 2.6688
 IR Inten    --      9.2110                30.9056                91.6494

                     46                     47                     48
                      A                      A                      A
 Frequencies --   1329.7841              1350.6686              1374.9091
 Red. masses --      1.5242                 1.3538                 1.5285
 Frc consts  --      1.5880                 1.4551                 1.7024
 IR Inten    --     13.4834                27.3653                 3.4747

                     49                     50                     51
                      A                      A                      A
 Frequencies --   1403.4106              1412.1418              1431.4018
 Red. masses --      1.3336                 1.3759                 1.3162
 Frc consts  --      1.5475                 1.6166                 1.5889
 IR Inten    --      1.2056                 2.3836                 8.0666

                     52                     53                     54
                      A                      A                      A
 Frequencies --   1438.4532              1447.9172              1454.0361
 Red. masses --      1.2280                 1.2384                 1.2525
 Frc consts  --      1.4970                 1.5297                 1.5602
 IR Inten    --     12.3983                 8.2280                 5.5739

                     55                     56                     57
                      A                      A                      A
 Frequencies --   1506.1731              1507.6185              1514.1475
 Red. masses --      1.0594                 1.0714                 1.0548
 Frc consts  --      1.4160                 1.4348                 1.4248
 IR Inten    --      0.1638                 0.3448                 0.7784

                     58                     59                     60
                      A                      A                      A
 Frequencies --   1516.7844              1521.7395              1524.8070
 Red. masses --      1.0595                 1.0569                 1.0647
 Frc consts  --      1.4362                 1.4420                 1.4585
 IR Inten    --      2.7669                 1.8338                 5.0881

                     61                     62                     63
                      A                      A                      A
 Frequencies --   1527.7660              1530.6698              1535.2368
 Red. masses --      1.0464                 1.0671                 1.0517
 Frc consts  --      1.4390                 1.4730                 1.4604
 IR Inten    --     10.8179                 4.8990                 4.9624

                     64                     65                     66
                      A                      A                      A
 Frequencies --   1539.0738              1545.5276              1860.6840
 Red. masses --      1.0620                 1.0668                12.5036
 Frc consts  --      1.4821                 1.5013                25.5052
 IR Inten    --      8.7943                 4.8713               331.0770

                     67                     68                     69
                      A                      A                      A
 Frequencies --   3020.7070              3036.3543              3050.6373
 Red. masses --      1.0626                 1.0626                 1.0457
 Frc consts  --      5.7125                 5.7719                 5.7338
 IR Inten    --     15.0452                34.8543                33.0946

                     70                     71                     72
                      A                      A                      A
 Frequencies --   3055.9904              3058.5054              3059.3186
 Red. masses --      1.0362                 1.0642                 1.0664
 Frc consts  --      5.7015                 5.8651                 5.8805
 IR Inten    --      6.6561                24.4465                 4.3771

                     73                     74                     75
                      A                      A                      A
 Frequencies --   3061.9102              3068.8642              3072.8591
 Red. masses --      1.0451                 1.0570                 1.0953
 Frc consts  --      5.7729                 5.8650                 6.0935
 IR Inten    --     19.2147                22.0347                55.5585

                     76                     77                     78
                      A                      A                      A
 Frequencies --   3107.5133              3111.4180              3124.4646
 Red. masses --      1.1018                 1.1045                 1.1018
 Frc consts  --      6.2689                 6.2996                 6.3371
 IR Inten    --     50.1355                17.4918                27.0557

                     79                     80                     81
                      A                      A                      A
 Frequencies --   3127.8408              3134.1487              3137.4671
 Red. masses --      1.1023                 1.1022                 1.1031
 Frc consts  --      6.3540                 6.3791                 6.3979
 IR Inten    --      6.8668                33.2169                27.9469

                     82                     83                     84
                      A                      A                      A
 Frequencies --   3142.5549              3149.2827              3172.6032
 Red. masses --      1.1020                 1.1014                 1.0963
 Frc consts  --      6.4122                 6.4357                 6.5016
 IR Inten    --     32.0752                11.3233                 8.6528

 - Thermochemistry -
 -------------------
 Temperature   298.150 Kelvin.  Pressure   1.00000 Atm.
 Atom     1 has atomic number  6 and mass  12.00000

 Molecular mass:   170.13068 amu.
 Principal axes and moments of inertia in atomic units:
                           1         2         3
     Eigenvalues --  1040.468073024.617433190.90219
           X            0.99999  -0.00357   0.00073
           Y            0.00362   0.99641  -0.08460
           Z           -0.00043   0.08461   0.99641
 This molecule is an asymmetric top.
 Rotational symmetry number  1.
 Warning -- assumption of classical behavior for rotation
           may cause significant error
 Rotational temperatures (Kelvin)      0.08325     0.02864     0.02714
 Rotational constants (GHZ):           1.73455     0.59668     0.56559
 Zero-point vibrational energy     706094.2 (Joules/Mol)
                                  168.76057 (Kcal/Mol)
 Warning -- explicit consideration of  20 degrees of freedom as
           vibrations may cause significant error
 Vibrational temperatures:     44.94   102.08   128.03   191.07   268.15
          (Kelvin)            326.25   332.17   353.14   384.05   392.40
                              412.98   439.80   451.34   486.45   532.04
                              552.35   647.60   673.06   797.09   866.56
                              901.52  1018.30  1070.06  1138.82  1182.37
                             1226.44  1297.02  1313.82  1356.22  1373.08
                             1388.46  1409.54  1437.91  1483.00  1522.31
                             1572.68  1586.08  1625.79  1648.42  1741.84
                             1748.04  1761.49  1799.21  1861.36  1878.12
                             1913.26  1943.31  1978.19  2019.19  2031.76
                             2059.47  2069.61  2083.23  2092.03  2167.05
                             2169.13  2178.52  2182.31  2189.44  2193.86
                             2198.11  2202.29  2208.86  2214.38  2223.67
                             2677.11  4346.12  4368.64  4389.19  4396.89
                             4400.51  4401.68  4405.41  4415.41  4421.16
                             4471.02  4476.64  4495.41  4500.27  4509.34
                             4514.12  4521.44  4531.12  4564.67

 Zero-point correction=                           0.268937 (Hartree/Particle)
 Thermal correction to Energy=                    0.282284
 Thermal correction to Enthalpy=                  0.283228
 Thermal correction to Gibbs Free Energy=         0.229667
 Sum of electronic and zero-point Energies=           -542.163115
 Sum of electronic and thermal Energies=              -542.149768
 Sum of electronic and thermal Enthalpies=            -542.148824
 Sum of electronic and thermal Free Energies=         -542.202385

                     E (Thermal)             CV                S
                      KCal/Mol        Cal/Mol-Kelvin    Cal/Mol-Kelvin
 Total                  177.136             50.898            112.729
 Electronic               0.000              0.000              0.000
 Translational            0.889              2.981             41.302
 Rotational               0.889              2.981             30.686
 Vibrational            175.358             44.936             40.741
 Vibration     1          0.594              1.983              5.749
 Vibration     2          0.598              1.968              4.127
 Vibration     3          0.602              1.957              3.682
 Vibration     4          0.613              1.921              2.905
 Vibration     5          0.632              1.859              2.264
 Vibration     6          0.650              1.800              1.904
 Vibration     7          0.653              1.794              1.872
 Vibration     8          0.660              1.770              1.763
 Vibration     9          0.672              1.734              1.616
 Vibration    10          0.676              1.724              1.579
 Vibration    11          0.684              1.698              1.491
 Vibration    12          0.696              1.663              1.386
 Vibration    13          0.702              1.648              1.343
 Vibration    14          0.718              1.599              1.221
 Vibration    15          0.742              1.534              1.081
 Vibration    16          0.753              1.505              1.024
 Vibration    17          0.809              1.361              0.795
 Vibration    18          0.825              1.321              0.744
 Vibration    19          0.909              1.131              0.536
 Vibration    20          0.961              1.027              0.446

 Optimization completed.
    -- Stationary point found.
 Normal termination of Gaussian 16 at Wed Dec  9 17:51:28 2020.

 ----------------------------------------------------------------------
 # B3LYP/6-311++G(d,p) empiricaldispersion=gd3bj scf=xqc pop=npa geom=c
 heck
 ----------------------------------------------------------------------

 --------------------------------------
 CID_58836338_JID_2598_Energie_neutraal
 --------------------------------------
 Structure from the checkpoint file:  "JID_2598.chk"
 Charge =  0 Multiplicity = 1

 SCF Done:  E(RB3LYP) =  -542.585959916     A.U. after   14 cycles
 Normal termination of Gaussian 16 at Wed Dec  9 17:55:08 2020.

 ----------------------------------------------------------------------
 # B3LYP/6-311++G(d,p) empiricaldispersion=gd3bj scf=xqc pop=npa geom=c
 heck
 ----------------------------------------------------------------------

 ------------------------------------
 CID_58836338_JID_2598_Energie_kation
 ------------------------------------
 Structure from the checkpoint file:  "JID_2598.chk"
 Charge =  1 Multiplicity = 2

 SCF Done:  E(UB3LYP) =  -542.241437706     A.U. after   23 cycles
 Normal termination of Gaussian 16 at Wed Dec  9 18:03:49 2020.
 Gaussian 16:  ES64L-G16RevA.03 25-Dec-2016

 ----------------------------------------------------------------------
 # B3LYP/6-311++G(d,p) empiricaldispersion=gd3bj scf=xqc pop=npa geom=c
 heck
 ----------------------------------------------------------------------

 -----------------------------------
 CID_58836338_JID_2598_Energie_anion
 -----------------------------------
 Structure from the checkpoint file:  "JID_2598.chk"
 Charge = -1 Multiplicity = 2

                         Standard orientation:
 ---------------------------------------------------------------------
 Center     Atomic      Atomic             Coordinates (Angstroms)
 Number     Number       Type             X           Y           Z
 ---------------------------------------------------------------------
      1          6           0       -3.523695    0.719419   -0.226908
      2          6           0       -2.981711   -0.697168   -0.429015
      3          6           0       -1.516045   -0.820268   -0.877678
      4          6           0       -0.366287   -0.526950    0.129537
      5          6           0        0.954270   -1.117505   -0.413882
      6          6           0        2.037635   -0.040046   -0.184659
      7          8           0        1.286543    1.192093    0.021037
      8          6           0       -0.033054    0.969346    0.245140
      9          8           0       -0.779358    1.876016    0.521750
     10          6           0        2.920461    0.178862   -1.408240
     11          6           0        2.877638   -0.279487    1.069564
     12          6           0       -0.706161   -1.050398    1.537021
     13          1           0       -3.010662    1.241210    0.581743
     14          1           0       -4.597073    0.686368   -0.006202
     15          1           0       -3.385198    1.322283   -1.132436
     16          1           0       -3.135910   -1.287842    0.482818
     17          1           0       -3.582066   -1.195226   -1.202567
     18          1           0       -1.365632   -1.861359   -1.194721
     19          1           0       -1.356642   -0.206452   -1.774909
     20          1           0        1.215720   -2.064188    0.068643
     21          1           0        0.858763   -1.313874   -1.487077
     22          1           0        3.630329    0.993539   -1.234435
     23          1           0        3.485554   -0.732352   -1.633547
     24          1           0        2.308081    0.432656   -2.279078
     25          1           0        2.244787   -0.408051    1.952409
     26          1           0        3.488563   -1.180949    0.950221
     27          1           0        3.542499    0.571118    1.248058
     28          1           0       -1.543459   -0.494557    1.966345
     29          1           0       -0.978286   -2.110792    1.489340
     30          1           0        0.144847   -0.951233    2.217815
 ---------------------------------------------------------------------

 SCF Done:  E(UB3LYP) =  -542.573564170     A.U. after   30 cycles

 The electronic state is 2-A.
 Alpha  occ. eigenvalues --  -19.06079 -19.00717 -10.19568 -10.14417 -10.10169
 Alpha  occ. eigenvalues --  -10.07374 -10.07321 -10.06924 -10.06761 -10.06567
 Alpha  occ. eigenvalues --  -10.06564 -10.05268  -1.00328  -0.92510  -0.73734
 Alpha  occ. eigenvalues --   -0.70310  -0.66837  -0.60498  -0.59815  -0.58557
 Alpha  occ. eigenvalues --   -0.53910  -0.50841  -0.48600  -0.42819  -0.38772
 Alpha  occ. eigenvalues --   -0.38642  -0.36807  -0.35670  -0.34617  -0.33813
 Alpha  occ. eigenvalues --   -0.32924  -0.31614  -0.31509  -0.30744  -0.29881
 Alpha  occ. eigenvalues --   -0.29112  -0.28348  -0.27302  -0.26608  -0.25709
 Alpha  occ. eigenvalues --   -0.24949  -0.24216  -0.23059  -0.22307  -0.21543
 Alpha  occ. eigenvalues --   -0.19685  -0.16931   0.04422
 Alpha virt. eigenvalues --    0.06700   0.07602   0.08142   0.09091   0.09187
 Alpha virt. eigenvalues --    0.09488   0.10106   0.10702   0.11107   0.11725
 Alpha virt. eigenvalues --    0.11858   0.12898   0.13122   0.13439   0.14423

  Beta  occ. eigenvalues --  -19.06072 -19.00715 -10.19566 -10.14414 -10.10168
  Beta  occ. eigenvalues --  -10.07352 -10.07291 -10.06891 -10.06745 -10.06530
  Beta  occ. eigenvalues --  -10.06523 -10.05260  -1.00320  -0.92503  -0.73710
  Beta  occ. eigenvalues --   -0.70283  -0.66809  -0.60436  -0.59750  -0.58515
  Beta  occ. eigenvalues --   -0.53859  -0.50795  -0.48552  -0.42779  -0.38734
  Beta  occ. eigenvalues --   -0.38605  -0.36780  -0.35626  -0.34592  -0.33787
  Beta  occ. eigenvalues --   -0.32891  -0.31579  -0.31478  -0.30709  -0.29840
  Beta  occ. eigenvalues --   -0.29075  -0.28314  -0.27264  -0.26574  -0.25682
  Beta  occ. eigenvalues --   -0.24922  -0.24189  -0.23032  -0.22277  -0.21514
  Beta  occ. eigenvalues --   -0.19669  -0.16915
  Beta virt. eigenvalues --    0.06789   0.07461   0.08346   0.08830   0.09430
  Beta virt. eigenvalues --    0.09755   0.10066   0.10195   0.11325   0.11714
  Beta virt. eigenvalues --    0.12159   0.12219   0.13234   0.13352   0.13805

 Mulliken charges and spin densities:
               1          2
     1  C   -0.205088  -0.431593
     2  C    0.395582  -0.585284
     3  C   -0.229980  -0.189863
     4  C    0.369929   0.563457
     5  C   -0.105129  -0.400033
     6  C   -1.449239   1.443773
     7  O    0.047214   0.003930
     8  C   -0.455174   0.294594
     9  O   -0.299339   0.004460
    10  C    1.317412  -1.775891
    11  C    1.149219  -1.608483
    12  C    1.173577  -1.935070
    13  H    0.106407   0.080363
    14  H    0.043770   0.074902
    15  H    0.096411   0.032873
    16  H   -0.016474   0.146786
    17  H   -0.351275   0.512796
    18  H   -0.279071   0.466335
    19  H    0.005907   0.161234
    20  H   -0.598179   0.817649
    21  H   -0.423288   0.631540
    22  H    0.037743   0.110086
    23  H   -0.447915   0.618265
    24  H   -0.129518   0.285466
    25  H   -0.197632   0.327570
    26  H   -0.340985   0.508418
    27  H   -0.032216   0.187772
    28  H    0.067989   0.090983
    29  H   -0.306641   0.496606
    30  H    0.055982   0.066357
 Sum of Mulliken charges =  -1.00000   1.00000

 Dipole moment (field-independent basis, Debye):
    X=             -2.4756    Y=              3.9073    Z=              1.0495  Tot=              4.7431
 Quadrupole moment (field-independent basis, Debye-Ang):
   XX=           -136.8912   YY=           -126.0120   ZZ=           -111.9820
   XY=              6.4876   XZ=              0.0513   YZ=             -3.4323

 Summary of Natural Population Analysis:

                                       Natural Population
                Natural  -----------------------------------------------
    Atom  No    Charge         Core      Valence    Rydberg      Total
 -----------------------------------------------------------------------
      C    1   -0.28888      0.99966     2.28475    0.00446     3.28888
      C    2   -0.19077      0.99963     2.18303    0.00811     3.19077
      C    3   -0.18135      0.99959     2.17006    0.01170     3.18135
      C    4   -0.08557      0.99952     2.07226    0.01379     3.08557
      C    5   -0.19838      0.99956     2.18507    0.01374     3.19838
      C    6    0.13131      0.99954     1.85324    0.01590     2.86869
      O    7   -0.28286      0.99985     3.27440    0.00861     4.28286
      C    8    0.41833      0.99960     1.55455    0.02752     2.58167
      O    9   -0.30294      0.99986     3.29710    0.00598     4.30294
      C   10   -0.28919      0.99960     2.28263    0.00696     3.28919
      C   11   -0.29148      0.99959     2.28497    0.00693     3.29148
      C   12   -0.28104      0.99962     2.27424    0.00717     3.28104
      H   13    0.11026      0.00000     0.38861    0.00112     0.38974
      H   14    0.09161      0.00000     0.40755    0.00084     0.40839
      H   15    0.09466      0.00000     0.40442    0.00092     0.40534
      H   16    0.09474      0.00000     0.40404    0.00122     0.40526
      H   17    0.09607      0.00000     0.40275    0.00118     0.40393
      H   18    0.10292      0.00000     0.39519    0.00189     0.39708
      H   19    0.09881      0.00000     0.39966    0.00153     0.40119
      H   20    0.11147      0.00000     0.38544    0.00309     0.38853
      H   21    0.10674      0.00000     0.39075    0.00252     0.39326
      H   22    0.10218      0.00000     0.39677    0.00105     0.39782
      H   23    0.10719      0.00000     0.39111    0.00170     0.39281
      H   24    0.10350      0.00000     0.39530    0.00120     0.39650
      H   25    0.10134      0.00000     0.39726    0.00140     0.39866
      H   26    0.10741      0.00000     0.39077    0.00181     0.39259
      H   27    0.10258      0.00000     0.39637    0.00105     0.39742
      H   28    0.10486      0.00000     0.39404    0.00110     0.39514
      H   29    0.10450      0.00000     0.39418    0.00132     0.39550
      H   30    0.10196      0.00000     0.39672    0.00132     0.39804
 =======================================================================
   * Total *   -0.00000     11.99563    34.84723    0.15714    47.00000

 Normal termination of Gaussian 16 at Wed Dec  9 18:14:43 2020.
