 Gaussian 16, Revision A.03,

 -----------------------------------------------------------
 # opt freq B3LYP/6-31G(d) empiricaldispersion=gd3bj scf=xqc
 -----------------------------------------------------------

 -------------------------------
 CID_131248057_JID_3013_neutraal
 -------------------------------
 Symbolic Z-matrix:
 Charge =  0 Multiplicity = 1

 SCF Done:  E(RB3LYP) =  -580.515564836     A.U. after   15 cycles
 SCF Done:  E(RB3LYP) =  -580.517670464     A.U. after   11 cycles
 SCF Done:  E(RB3LYP) =  -580.517785962     A.U. after   11 cycles
 SCF Done:  E(RB3LYP) =  -580.517710814     A.U. after   11 cycles
 SCF Done:  E(RB3LYP) =  -580.517861889     A.U. after   11 cycles
 SCF Done:  E(RB3LYP) =  -580.517863344     A.U. after    8 cycles
 SCF Done:  E(RB3LYP) =  -580.517863582     A.U. after    8 cycles
 SCF Done:  E(RB3LYP) =  -580.517863698     A.U. after    7 cycles
 SCF Done:  E(RB3LYP) =  -580.517863745     A.U. after    7 cycles
 Optimization completed.
    -- Stationary point found.
 Normal termination of Gaussian 16 at Wed Dec  9 22:20:00 2020.

 --------------------------------------------------------------------
 #N Geom=AllCheck Guess=TCheck SCRF=Check GenChk RB3LYP/6-31G(d) Freq
 --------------------------------------------------------------------

 Structure from the checkpoint file:  "JID_3013.chk"
 -------------------------------
 CID_131248057_JID_3013_neutraal
 -------------------------------
 Charge =  0 Multiplicity = 1

 SCF Done:  E(RB3LYP) =  -580.517863745     A.U. after    1 cycles

  Exact polarizability: 154.306   4.799 107.258   2.668   6.383 103.787
 Approx polarizability: 206.656  12.557 149.019  10.241  17.211 152.149

                      1                      2                      3
                      A                      A                      A
 Frequencies --     30.4157                57.5156                66.1264
 Red. masses --      5.0948                 3.3752                 3.5113
 Frc consts  --      0.0028                 0.0066                 0.0090
 IR Inten    --      1.8444                 0.1221                 0.1823

                      4                      5                      6
                      A                      A                      A
 Frequencies --     99.3300               130.2228               142.8328
 Red. masses --      2.6076                 3.0174                 1.2169
 Frc consts  --      0.0152                 0.0301                 0.0146
 IR Inten    --      0.5524                 0.4639                 0.0013

                      7                      8                      9
                      A                      A                      A
 Frequencies --    185.8377               206.2801               234.3484
 Red. masses --      2.8243                 2.7426                 1.1153
 Frc consts  --      0.0575                 0.0688                 0.0361
 IR Inten    --      0.5531                 3.5723                 0.2101

                     10                     11                     12
                      A                      A                      A
 Frequencies --    247.3493               284.8657               308.9699
 Red. masses --      2.5919                 3.0084                 2.6795
 Frc consts  --      0.0934                 0.1438                 0.1507
 IR Inten    --      0.0876                 6.1951                 0.7026

                     13                     14                     15
                      A                      A                      A
 Frequencies --    326.6370               346.2868               392.8758
 Red. masses --      2.1485                 3.0604                 2.2804
 Frc consts  --      0.1351                 0.2162                 0.2074
 IR Inten    --      0.4255                 8.6738                 1.0207

                     16                     17                     18
                      A                      A                      A
 Frequencies --    420.8533               481.4856               488.9798
 Red. masses --      3.3330                 2.9554                 3.3127
 Frc consts  --      0.3478                 0.4037                 0.4667
 IR Inten    --      0.4938                 1.5728                 0.8890

                     19                     20                     21
                      A                      A                      A
 Frequencies --    550.0603               635.0129               698.1309
 Red. masses --      2.0869                 2.5996                 4.5337
 Frc consts  --      0.3720                 0.6176                 1.3019
 IR Inten    --      1.3002                11.0549                 4.2440

                     22                     23                     24
                      A                      A                      A
 Frequencies --    727.2790               787.4407               829.1925
 Red. masses --      4.7635                 2.6785                 1.4989
 Frc consts  --      1.4845                 0.9785                 0.6072
 IR Inten    --     10.6762                 2.4104                 4.5611

                     25                     26                     27
                      A                      A                      A
 Frequencies --    851.3753               872.3370               889.8174
 Red. masses --      2.7865                 3.6257                 2.4911
 Frc consts  --      1.1900                 1.6256                 1.1621
 IR Inten    --      3.0056                12.3203                 3.2952

                     28                     29                     30
                      A                      A                      A
 Frequencies --    895.6947               912.7886               980.8793
 Red. masses --      1.8999                 1.5449                 2.6736
 Frc consts  --      0.8980                 0.7584                 1.5156
 IR Inten    --      4.9449                 0.4839                 0.4576

                     31                     32                     33
                      A                      A                      A
 Frequencies --    985.8785              1012.7994              1019.8168
 Red. masses --      1.5195                 1.4231                 1.5548
 Frc consts  --      0.8701                 0.8601                 0.9527
 IR Inten    --      2.1190                 2.1938                 2.1769

                     34                     35                     36
                      A                      A                      A
 Frequencies --   1033.8715              1057.4769              1085.3685
 Red. masses --      1.2747                 1.6665                 6.5270
 Frc consts  --      0.8028                 1.0980                 4.5302
 IR Inten    --     20.6228                 4.4805                71.1290

                     37                     38                     39
                      A                      A                      A
 Frequencies --   1103.6349              1117.2247              1124.9467
 Red. masses --      1.8650                 2.0799                 1.7060
 Frc consts  --      1.3384                 1.5296                 1.2720
 IR Inten    --      6.0326                 2.8120                 3.6966

                     40                     41                     42
                      A                      A                      A
 Frequencies --   1161.8817              1186.9970              1191.1889
 Red. masses --      1.4432                 1.2725                 2.0565
 Frc consts  --      1.1479                 1.0563                 1.7192
 IR Inten    --      1.8023                 0.8059                 8.2196

                     43                     44                     45
                      A                      A                      A
 Frequencies --   1219.2963              1248.4270              1253.6663
 Red. masses --      1.4740                 1.5181                 1.5272
 Frc consts  --      1.2912                 1.3940                 1.4142
 IR Inten    --     15.7718                32.3445                 4.0450

                     46                     47                     48
                      A                      A                      A
 Frequencies --   1293.5978              1301.3342              1309.3191
 Red. masses --      1.2490                 1.2850                 3.3383
 Frc consts  --      1.2315                 1.2822                 3.3719
 IR Inten    --      0.9156                18.8533               397.4035

                     49                     50                     51
                      A                      A                      A
 Frequencies --   1332.8413              1344.2068              1355.2289
 Red. masses --      1.3625                 1.3878                 1.2524
 Frc consts  --      1.4261                 1.4774                 1.3553
 IR Inten    --      4.9117                 0.3695                 1.0270

                     52                     53                     54
                      A                      A                      A
 Frequencies --   1364.1442              1382.9888              1394.6007
 Red. masses --      1.3370                 1.4011                 1.4961
 Frc consts  --      1.4659                 1.5790                 1.7144
 IR Inten    --      5.9287                 3.6927                 5.9013

                     55                     56                     57
                      A                      A                      A
 Frequencies --   1402.4039              1414.3632              1425.7278
 Red. masses --      1.4513                 1.4973                 1.4795
 Frc consts  --      1.6817                 1.7647                 1.7719
 IR Inten    --      1.3705                 4.5186                13.4241

                     58                     59                     60
                      A                      A                      A
 Frequencies --   1443.0865              1494.2256              1512.3221
 Red. masses --      1.2476                 1.2111                 1.0483
 Frc consts  --      1.5307                 1.5932                 1.4126
 IR Inten    --      2.7244                15.1385                 4.9304

                     61                     62                     63
                      A                      A                      A
 Frequencies --   1513.2585              1520.2629              1521.6352
 Red. masses --      1.0866                 1.0907                 1.0820
 Frc consts  --      1.4660                 1.4852                 1.4760
 IR Inten    --      1.7102                 2.2310                 4.8539

                     64                     65                     66
                      A                      A                      A
 Frequencies --   1526.8859              1526.9439              1528.9901
 Red. masses --      1.0479                 1.0455                 1.0589
 Frc consts  --      1.4394                 1.4363                 1.4585
 IR Inten    --      1.6180                13.7654                 3.4956

                     67                     68                     69
                      A                      A                      A
 Frequencies --   1536.5525              1717.1521              1806.3757
 Red. masses --      1.0965                 6.3875                10.3343
 Frc consts  --      1.5253                11.0968                19.8678
 IR Inten    --      3.6213                14.7224               328.6897

                     70                     71                     72
                      A                      A                      A
 Frequencies --   3003.6146              3024.0425              3027.6078
 Red. masses --      1.0825                 1.0686                 1.0715
 Frc consts  --      5.7542                 5.7575                 5.7868
 IR Inten    --     15.7867                18.1619                10.4772

                     73                     74                     75
                      A                      A                      A
 Frequencies --   3031.0461              3038.3808              3041.3982
 Red. masses --      1.0611                 1.0649                 1.0728
 Frc consts  --      5.7436                 5.7924                 5.8465
 IR Inten    --     29.4926                14.3431                55.1102

                     76                     77                     78
                      A                      A                      A
 Frequencies --   3046.0727              3069.5129              3072.4771
 Red. masses --      1.0401                 1.0980                 1.0298
 Frc consts  --      5.6861                 6.0950                 5.7278
 IR Inten    --     34.5666                56.7747                36.7084

                     79                     80                     81
                      A                      A                      A
 Frequencies --   3075.6386              3079.7747              3085.3015
 Red. masses --      1.0958                 1.0984                 1.1038
 Frc consts  --      6.1072                 6.1384                 6.1907
 IR Inten    --     51.6387                44.4607                68.0562

                     82                     83                     84
                      A                      A                      A
 Frequencies --   3110.6628              3116.4715              3145.1627
 Red. masses --      1.1022                 1.1020                 1.1073
 Frc consts  --      6.2837                 6.3061                 6.4534
 IR Inten    --     31.3866                44.6766                22.8055

                     85                     86                     87
                      A                      A                      A
 Frequencies --   3177.1377              3194.4862              3202.2891
 Red. masses --      1.1069                 1.0914                 1.0869
 Frc consts  --      6.5832                 6.5618                 6.5671
 IR Inten    --     17.5973                 0.6730                 9.4206

 - Thermochemistry -
 -------------------
 Temperature   298.150 Kelvin.  Pressure   1.00000 Atm.
 Atom     1 has atomic number  6 and mass  12.00000

 Molecular mass:   182.13068 amu.
 Principal axes and moments of inertia in atomic units:
                           1         2         3
     Eigenvalues --  1363.767394666.353914939.87158
           X            0.99994  -0.00733  -0.00815
           Y            0.00717   0.99980  -0.01883
           Z            0.00829   0.01877   0.99979
 This molecule is an asymmetric top.
 Rotational symmetry number  1.
 Warning -- assumption of classical behavior for rotation
           may cause significant error
 Rotational temperatures (Kelvin)      0.06351     0.01856     0.01753
 Rotational constants (GHZ):           1.32335     0.38676     0.36534
 Zero-point vibrational energy     726092.7 (Joules/Mol)
                                  173.54032 (Kcal/Mol)
 Warning -- explicit consideration of  19 degrees of freedom as
           vibrations may cause significant error
 Vibrational temperatures:     43.76    82.75    95.14   142.91   187.36
          (Kelvin)            205.50   267.38   296.79   337.18   355.88
                              409.86   444.54   469.96   498.23   565.26
                              605.51   692.75   703.53   791.41   913.64
                             1004.45  1046.39  1132.95  1193.02  1224.94
                             1255.10  1280.25  1288.70  1313.30  1411.27
                             1418.46  1457.19  1467.29  1487.51  1521.47
                             1561.60  1587.88  1607.44  1618.55  1671.69
                             1707.82  1713.86  1754.30  1796.21  1803.75
                             1861.20  1872.33  1883.82  1917.66  1934.01
                             1949.87  1962.70  1989.81  2006.52  2017.75
                             2034.95  2051.30  2076.28  2149.86  2175.89
                             2177.24  2187.32  2189.29  2196.85  2196.93
                             2199.88  2210.76  2470.60  2598.97  4321.53
                             4350.92  4356.05  4361.00  4371.55  4375.89
                             4382.62  4416.34  4420.61  4425.16  4431.11
                             4439.06  4475.55  4483.91  4525.19  4571.19
                             4596.15  4607.38

 Zero-point correction=                           0.276554 (Hartree/Particle)
 Thermal correction to Energy=                    0.290313
 Thermal correction to Enthalpy=                  0.291257
 Thermal correction to Gibbs Free Energy=         0.235328
 Sum of electronic and zero-point Energies=           -580.241310
 Sum of electronic and thermal Energies=              -580.227551
 Sum of electronic and thermal Enthalpies=            -580.226607
 Sum of electronic and thermal Free Energies=         -580.282535

                     E (Thermal)             CV                S
                      KCal/Mol        Cal/Mol-Kelvin    Cal/Mol-Kelvin
 Total                  182.174             51.265            117.712
 Electronic               0.000              0.000              0.000
 Translational            0.889              2.981             41.505
 Rotational               0.889              2.981             31.819
 Vibrational            180.397             45.303             44.388
 Vibration     1          0.594              1.984              5.802
 Vibration     2          0.596              1.974              4.541
 Vibration     3          0.598              1.970              4.265
 Vibration     4          0.604              1.950              3.467
 Vibration     5          0.612              1.923              2.943
 Vibration     6          0.616              1.910              2.766
 Vibration     7          0.632              1.859              2.269
 Vibration     8          0.641              1.831              2.076
 Vibration     9          0.654              1.788              1.845
 Vibration    10          0.661              1.767              1.749
 Vibration    11          0.683              1.702              1.504
 Vibration    12          0.698              1.657              1.368
 Vibration    13          0.710              1.622              1.277
 Vibration    14          0.724              1.583              1.183
 Vibration    15          0.760              1.485              0.989
 Vibration    16          0.783              1.425              0.889
 Vibration    17          0.838              1.291              0.706
 Vibration    18          0.845              1.274              0.686
 Vibration    19          0.905              1.140              0.544

 Optimization completed.
    -- Stationary point found.
 Normal termination of Gaussian 16 at Wed Dec  9 22:27:20 2020.

 ----------------------------------------------------------------------
 # B3LYP/6-311++G(d,p) empiricaldispersion=gd3bj scf=xqc pop=npa geom=c
 heck
 ----------------------------------------------------------------------

 ---------------------------------------
 CID_131248057_JID_3013_Energie_neutraal
 ---------------------------------------
 Structure from the checkpoint file:  "JID_3013.chk"
 Charge =  0 Multiplicity = 1

 SCF Done:  E(RB3LYP) =  -580.683094832     A.U. after   14 cycles
 Normal termination of Gaussian 16 at Wed Dec  9 22:30:20 2020.

 ----------------------------------------------------------------------
 # B3LYP/6-311++G(d,p) empiricaldispersion=gd3bj scf=xqc pop=npa geom=c
 heck
 ----------------------------------------------------------------------

 -------------------------------------
 CID_131248057_JID_3013_Energie_kation
 -------------------------------------
 Structure from the checkpoint file:  "JID_3013.chk"
 Charge =  1 Multiplicity = 2

 SCF Done:  E(UB3LYP) =  -580.342590901     A.U. after   33 cycles
 SCF Done:  E(UB3LYP) =  -580.342591603     a.u. after    2 cycles
 Normal termination of Gaussian 16 at Wed Dec  9 22:46:05 2020.
 Gaussian 16:  ES64L-G16RevA.03 25-Dec-2016

 ----------------------------------------------------------------------
 # B3LYP/6-311++G(d,p) empiricaldispersion=gd3bj scf=xqc pop=npa geom=c
 heck
 ----------------------------------------------------------------------

 ------------------------------------
 CID_131248057_JID_3013_Energie_anion
 ------------------------------------
 Structure from the checkpoint file:  "JID_3013.chk"
 Charge = -1 Multiplicity = 2

                         Standard orientation:
 ---------------------------------------------------------------------
 Center     Atomic      Atomic             Coordinates (Angstroms)
 Number     Number       Type             X           Y           Z
 ---------------------------------------------------------------------
      1          6           0       -1.380092    2.360367   -0.765665
      2          6           0       -2.045240    1.115959   -0.173401
      3          6           0       -2.466673    0.116513   -1.263422
      4          6           0       -3.171741   -1.112757   -0.675889
      5          6           0       -2.308743   -1.798310    0.390894
      6          6           0       -1.883250   -0.806592    1.481680
      7          6           0       -1.160075    0.438538    0.911448
      8          6           0        0.202422    0.080837    0.392404
      9          6           0        1.349134    0.573274    0.877534
     10          6           0        2.692598    0.220387    0.378106
     11          8           0        3.725977    0.675410    0.829668
     12          8           0        2.662513   -0.669911   -0.646576
     13          6           0        3.947512   -1.038573   -1.162178
     14          1           0       -0.475563    2.098134   -1.325814
     15          1           0       -2.062212    2.878397   -1.449433
     16          1           0       -1.086916    3.066526    0.020132
     17          1           0       -2.961912    1.434022    0.346893
     18          1           0       -3.124795    0.622801   -1.981111
     19          1           0       -1.582211   -0.201720   -1.833517
     20          1           0       -3.427799   -1.821360   -1.473018
     21          1           0       -4.121298   -0.796641   -0.219900
     22          1           0       -1.419986   -2.236121   -0.083560
     23          1           0       -2.856719   -2.632816    0.844967
     24          1           0       -1.241107   -1.299011    2.221393
     25          1           0       -2.778307   -0.460845    2.017560
     26          1           0       -1.026061    1.160126    1.728382
     27          1           0        0.259757   -0.629855   -0.428193
     28          1           0        1.360535    1.288338    1.695703
     29          1           0        4.475061   -0.161378   -1.546667
     30          1           0        4.557975   -1.501659   -0.382142
     31          1           0        3.748520   -1.748785   -1.965478
 ---------------------------------------------------------------------

 SCF Done:  E(UB3LYP) =  -580.672483871     A.U. after   33 cycles
 SCF Done:  E(UB3LYP) =  -580.672483886     a.u. after    2 cycles

 The electronic state is 2-A.
 Alpha  occ. eigenvalues --  -19.02042 -18.94229 -10.12591 -10.10576 -10.05682
 Alpha  occ. eigenvalues --  -10.05395 -10.05052 -10.05037 -10.04756 -10.04600
 Alpha  occ. eigenvalues --  -10.03843 -10.01254 -10.01101  -0.95622  -0.86199
 Alpha  occ. eigenvalues --   -0.72485  -0.65836  -0.64602  -0.62113  -0.58571
 Alpha  occ. eigenvalues --   -0.55753  -0.50349  -0.47298  -0.46997  -0.42849
 Alpha  occ. eigenvalues --   -0.40385  -0.37534  -0.35235  -0.35169  -0.33544
 Alpha  occ. eigenvalues --   -0.33076  -0.32760  -0.30942  -0.29926  -0.29126
 Alpha  occ. eigenvalues --   -0.27217  -0.26367  -0.26071  -0.25496  -0.23995
 Alpha  occ. eigenvalues --   -0.23964  -0.22831  -0.22220  -0.21586  -0.19176
 Alpha  occ. eigenvalues --   -0.18861  -0.18184  -0.16856  -0.12502  -0.12237
 Alpha  occ. eigenvalues --    0.05763
 Alpha virt. eigenvalues --    0.06917   0.08045   0.08209   0.09098   0.09921
 Alpha virt. eigenvalues --    0.10752   0.11150   0.11329   0.11683   0.12687
 Alpha virt. eigenvalues --    0.12843   0.13097   0.13583   0.14171   0.14779

  Beta  occ. eigenvalues --  -19.02002 -18.93920 -10.12362 -10.10579 -10.05678
  Beta  occ. eigenvalues --  -10.05364 -10.05031 -10.05028 -10.04787 -10.04550
  Beta  occ. eigenvalues --  -10.03820 -10.01034 -10.00823  -0.95394  -0.85745
  Beta  occ. eigenvalues --   -0.72381  -0.65549  -0.64452  -0.61916  -0.58386
  Beta  occ. eigenvalues --   -0.55666  -0.50121  -0.47124  -0.46644  -0.42699
  Beta  occ. eigenvalues --   -0.40086  -0.37414  -0.35158  -0.34906  -0.33433
  Beta  occ. eigenvalues --   -0.32894  -0.32659  -0.30735  -0.29868  -0.28969
  Beta  occ. eigenvalues --   -0.27140  -0.26090  -0.25438  -0.25235  -0.23874
  Beta  occ. eigenvalues --   -0.23840  -0.22755  -0.22087  -0.21502  -0.19005
  Beta  occ. eigenvalues --   -0.18682  -0.18125  -0.15973  -0.12206  -0.10514
  Beta virt. eigenvalues --    0.07327   0.08126   0.08536   0.09006   0.09968
  Beta virt. eigenvalues --    0.10916   0.11231   0.11362   0.11634   0.11912
  Beta virt. eigenvalues --    0.12667   0.12811   0.13089   0.13675   0.14345

 Mulliken charges and spin densities:
               1          2
     1  C   -0.442851  -0.287070
     2  C    0.199068  -0.010449
     3  C    0.044941  -0.309503
     4  C   -0.546966  -0.053740
     5  C    0.243147  -0.511393
     6  C   -0.504020   0.022013
     7  C    0.650792  -0.269411
     8  C   -0.534172   0.326450
     9  C    0.338417  -0.031748
    10  C   -0.487458   0.193684
    11  O   -0.383082   0.095751
    12  O   -0.111737   0.006557
    13  C   -0.246600  -0.018639
    14  H    0.146598   0.015075
    15  H   -0.390056   0.524794
    16  H    0.111642   0.004775
    17  H   -0.074658   0.245043
    18  H   -0.068863   0.210800
    19  H    0.161589  -0.005232
    20  H    0.119937   0.020728
    21  H    0.108854  -0.001265
    22  H    0.042889   0.089284
    23  H   -0.430126   0.590704
    24  H    0.063251   0.085202
    25  H    0.039731   0.077218
    26  H    0.178527   0.012442
    27  H    0.222024  -0.036268
    28  H    0.144809  -0.007096
    29  H    0.150940   0.005515
    30  H    0.153219   0.004605
    31  H    0.100214   0.011171
 Sum of Mulliken charges =  -1.00000   1.00000

 Dipole moment (field-independent basis, Debye):
    X=             -0.5104    Y=             -1.8734    Z=             -1.8585  Tot=              2.6878
 Quadrupole moment (field-independent basis, Debye-Ang):
   XX=           -138.1120   YY=           -113.2913   ZZ=            -99.0912
   XY=             -4.4852   XZ=            -10.3525   YZ=              8.4990

 Summary of Natural Population Analysis:

                                       Natural Population
                Natural  -----------------------------------------------
    Atom  No    Charge         Core      Valence    Rydberg      Total
 -----------------------------------------------------------------------
      C    1   -0.28436      0.99965     2.27817    0.00654     3.28436
      C    2   -0.10213      0.99959     2.09154    0.01100     3.10213
      C    3   -0.19106      0.99961     2.18181    0.00964     3.19106
      C    4   -0.18616      0.99963     2.17902    0.00751     3.18616
      C    5   -0.19298      0.99963     2.18453    0.00882     3.19298
      C    6   -0.17849      0.99961     2.16935    0.00953     3.17849
      C    7   -0.12603      0.99957     2.11471    0.01175     3.12603
      C    8    0.01375      0.99952     1.97487    0.01186     2.98625
      C    9   -0.14933      0.99947     2.14109    0.00877     3.14933
      C   10    0.41429      0.99966     1.56265    0.02340     2.58571
      O   11   -0.30210      0.99987     3.29636    0.00587     4.30210
      O   12   -0.28552      0.99986     3.27745    0.00821     4.28552
      C   13   -0.10389      0.99961     2.09568    0.00860     3.10389
      H   14    0.10390      0.00000     0.39532    0.00078     0.39610
      H   15    0.09507      0.00000     0.40371    0.00122     0.40493
      H   16    0.09717      0.00000     0.40205    0.00078     0.40283
      H   17    0.09107      0.00000     0.40772    0.00121     0.40893
      H   18    0.09568      0.00000     0.40329    0.00102     0.40432
      H   19    0.09632      0.00000     0.40262    0.00105     0.40368
      H   20    0.09187      0.00000     0.40688    0.00124     0.40813
      H   21    0.08955      0.00000     0.40951    0.00094     0.41045
      H   22    0.09707      0.00000     0.40163    0.00130     0.40293
      H   23    0.09544      0.00000     0.40344    0.00112     0.40456
      H   24    0.10095      0.00000     0.39810    0.00095     0.39905
      H   25    0.08999      0.00000     0.40912    0.00089     0.41001
      H   26    0.09460      0.00000     0.40406    0.00134     0.40540
      H   27    0.09116      0.00000     0.40759    0.00126     0.40884
      H   28    0.09082      0.00000     0.40778    0.00140     0.40918
      H   29    0.08577      0.00000     0.41296    0.00127     0.41423
      H   30    0.08577      0.00000     0.41297    0.00127     0.41423
      H   31    0.08181      0.00000     0.41734    0.00085     0.41819
 =======================================================================
   * Total *    0.00000     12.99528    36.85331    0.15141    50.00000

 Normal termination of Gaussian 16 at Wed Dec  9 23:02:58 2020.
