 Gaussian 16, Revision A.03,

 -----------------------------------------------------------
 # opt freq B3LYP/6-31G(d) empiricaldispersion=gd3bj scf=xqc
 -----------------------------------------------------------

 -------------------------------
 CID_138993772_JID_5436_neutraal
 -------------------------------
 Symbolic Z-matrix:
 Charge =  0 Multiplicity = 1

 SCF Done:  E(RB3LYP) =  -646.621047535     A.U. after   14 cycles
 SCF Done:  E(RB3LYP) =  -646.628446780     A.U. after   12 cycles
 SCF Done:  E(RB3LYP) =  -646.630594018     A.U. after   13 cycles
 SCF Done:  E(RB3LYP) =  -646.632005548     A.U. after   13 cycles
 SCF Done:  E(RB3LYP) =  -646.632977235     A.U. after   12 cycles
 SCF Done:  E(RB3LYP) =  -646.633260229     A.U. after   13 cycles
 SCF Done:  E(RB3LYP) =  -646.633826862     A.U. after   12 cycles
 SCF Done:  E(RB3LYP) =  -646.633909934     A.U. after   12 cycles
 SCF Done:  E(RB3LYP) =  -646.634285473     A.U. after   12 cycles
 SCF Done:  E(RB3LYP) =  -646.634354443     A.U. after   12 cycles
 SCF Done:  E(RB3LYP) =  -646.635452972     A.U. after    8 cycles
 SCF Done:  E(RB3LYP) =  -646.635453383     A.U. after    8 cycles
 SCF Done:  E(RB3LYP) =  -646.635453545     A.U. after    7 cycles
 SCF Done:  E(RB3LYP) =  -646.635453661     A.U. after    7 cycles
 SCF Done:  E(RB3LYP) =  -646.635453722     A.U. after    7 cycles
 Optimization completed.
    -- Stationary point found.
 Normal termination of Gaussian 16 at Thu Dec 10 16:20:02 2020.

 --------------------------------------------------------------------
 #N Geom=AllCheck Guess=TCheck SCRF=Check GenChk RB3LYP/6-31G(d) Freq
 --------------------------------------------------------------------

 Structure from the checkpoint file:  "JID_5436.chk"
 -------------------------------
 CID_138993772_JID_5436_neutraal
 -------------------------------
 Charge =  0 Multiplicity = 1

 SCF Done:  E(RB3LYP) =  -646.635453722     A.U. after    1 cycles

  Exact polarizability: 164.532  10.613 154.505  15.910 -12.299  86.762
 Approx polarizability: 251.643  25.983 250.234  39.585 -25.258 138.340

                      1                      2                      3
                      A                      A                      A
 Frequencies --     25.5103                56.2446                62.6448
 Red. masses --      4.5925                 2.5565                 4.4525
 Frc consts  --      0.0018                 0.0048                 0.0103
 IR Inten    --      0.7499                 0.0923                 0.2219

                      4                      5                      6
                      A                      A                      A
 Frequencies --    113.3460               151.1634               151.5041
 Red. masses --      3.3313                 1.1946                 3.0022
 Frc consts  --      0.0252                 0.0161                 0.0406
 IR Inten    --      1.6335                 0.6053                 1.3266

                      7                      8                      9
                      A                      A                      A
 Frequencies --    231.7169               236.5484               257.3479
 Red. masses --      3.6646                 4.1743                 3.6348
 Frc consts  --      0.1159                 0.1376                 0.1418
 IR Inten    --      4.5298                 1.1609                 4.3390

                     10                     11                     12
                      A                      A                      A
 Frequencies --    295.0095               321.0572               356.6304
 Red. masses --      4.5620                 2.6085                 3.9663
 Frc consts  --      0.2339                 0.1584                 0.2972
 IR Inten    --      2.1763                 0.9334                 6.1109

                     13                     14                     15
                      A                      A                      A
 Frequencies --    401.5969               464.8252               478.8391
 Red. masses --      3.3616                 2.2288                 1.5184
 Frc consts  --      0.3194                 0.2837                 0.2051
 IR Inten    --      0.6034                12.1467                68.5645

                     16                     17                     18
                      A                      A                      A
 Frequencies --    534.3209               560.9952               569.0292
 Red. masses --      4.2590                 4.7003                 2.8014
 Frc consts  --      0.7164                 0.8716                 0.5344
 IR Inten    --      0.2096                 4.5591                12.3882

                     19                     20                     21
                      A                      A                      A
 Frequencies --    628.7688               651.6857               681.4399
 Red. masses --      3.2424                 5.1265                 2.5368
 Frc consts  --      0.7553                 1.2828                 0.6941
 IR Inten    --      0.1485                 1.0924                21.4057

                     22                     23                     24
                      A                      A                      A
 Frequencies --    705.5049               710.8908               781.2051
 Red. masses --      4.6113                 2.0779                 1.1944
 Frc consts  --      1.3523                 0.6187                 0.4295
 IR Inten    --     10.1850                53.8506                 0.9182

                     25                     26                     27
                      A                      A                      A
 Frequencies --    809.2494               815.6781               829.9641
 Red. masses --      1.6489                 4.6299                 1.4559
 Frc consts  --      0.6362                 1.8149                 0.5909
 IR Inten    --      2.8857                 6.4411                 0.3045

                     28                     29                     30
                      A                      A                      A
 Frequencies --    847.7971               874.8037               912.4442
 Red. masses --      1.6793                 5.1581                 1.6456
 Frc consts  --      0.7111                 2.3258                 0.8072
 IR Inten    --     18.6887                 5.4777                 8.8658

                     31                     32                     33
                      A                      A                      A
 Frequencies --    924.3856               942.9079               967.4115
 Red. masses --      5.0903                 3.6028                 1.4345
 Frc consts  --      2.5627                 1.8872                 0.7910
 IR Inten    --     14.7840                15.1519                 3.3039

                     34                     35                     36
                      A                      A                      A
 Frequencies --    971.6586              1016.6251              1066.0159
 Red. masses --      2.5758                 2.6750                 1.3834
 Frc consts  --      1.4328                 1.6289                 0.9263
 IR Inten    --     18.6862                 4.3982                23.1115

                     37                     38                     39
                      A                      A                      A
 Frequencies --   1082.5138              1089.6720              1110.3164
 Red. masses --      1.7850                 1.3572                 1.6661
 Frc consts  --      1.2324                 0.9495                 1.2102
 IR Inten    --     57.3291                 4.2985                36.4784

                     40                     41                     42
                      A                      A                      A
 Frequencies --   1125.3164              1147.0599              1155.7957
 Red. masses --      1.6265                 1.1530                 1.3214
 Frc consts  --      1.2136                 0.8938                 1.0400
 IR Inten    --      7.4519                 0.6777                26.8946

                     43                     44                     45
                      A                      A                      A
 Frequencies --   1164.6614              1182.7774              1210.9152
 Red. masses --      1.8176                 3.0474                 1.4072
 Frc consts  --      1.4526                 2.5118                 1.2157
 IR Inten    --     12.8736                 2.1991                 0.4622

                     46                     47                     48
                      A                      A                      A
 Frequencies --   1228.8905              1245.5472              1260.7552
 Red. masses --      1.9284                 2.1952                 2.5994
 Frc consts  --      1.7159                 2.0066                 2.4344
 IR Inten    --      1.1894                 1.2565                31.0337

                     49                     50                     51
                      A                      A                      A
 Frequencies --   1298.2447              1333.6995              1349.5959
 Red. masses --      1.9150                 1.7831                 7.0131
 Frc consts  --      1.9016                 1.8687                 7.5261
 IR Inten    --     19.2644                 9.2422                27.6935

                     52                     53                     54
                      A                      A                      A
 Frequencies --   1380.4479              1383.8876              1399.6545
 Red. masses --      1.3993                 2.8768                 2.1874
 Frc consts  --      1.5711                 3.2461                 2.5248
 IR Inten    --     35.9166                44.8095                 2.5795

                     55                     56                     57
                      A                      A                      A
 Frequencies --   1438.7359              1459.1961              1463.9037
 Red. masses --      1.5908                 2.4188                 1.4876
 Frc consts  --      1.9401                 3.0344                 1.8782
 IR Inten    --      6.1793                60.4227                74.6017

                     58                     59                     60
                      A                      A                      A
 Frequencies --   1485.7455              1499.3292              1502.7686
 Red. masses --      3.3479                 1.0894                 1.1728
 Frc consts  --      4.3542                 1.4429                 1.5605
 IR Inten    --     10.4567                 1.6695                82.3155

                     61                     62                     63
                      A                      A                      A
 Frequencies --   1513.3847              1525.0429              1539.4267
 Red. masses --      1.2249                 1.2212                 1.3563
 Frc consts  --      1.6529                 1.6735                 1.8938
 IR Inten    --     28.9360                 6.2760                 4.7028

                     64                     65                     66
                      A                      A                      A
 Frequencies --   1553.2873              1562.2468              1611.9118
 Red. masses --      3.0992                 1.7815                 6.7199
 Frc consts  --      4.4055                 2.5617                10.2872
 IR Inten    --     84.5566                36.7350               388.4202

                     67                     68                     69
                      A                      A                      A
 Frequencies --   1635.6322              3040.0962              3059.4251
 Red. masses --      5.4070                 1.0465                 1.0751
 Frc consts  --      8.5227                 5.6983                 5.9288
 IR Inten    --    182.9222                52.3966                51.6094

                     70                     71                     72
                      A                      A                      A
 Frequencies --   3112.6367              3141.0241              3152.6994
 Red. masses --      1.0927                 1.0547                 1.0796
 Frc consts  --      6.2376                 6.1307                 6.3221
 IR Inten    --     39.0237                20.2034                13.3665

                     73                     74                     75
                      A                      A                      A
 Frequencies --   3158.5386              3174.2914              3179.7212
 Red. masses --      1.0644                 1.0999                 1.0903
 Frc consts  --      6.2567                 6.5298                 6.4950
 IR Inten    --      9.1999                12.8002                40.7220

                     76                     77                     78
                      A                      A                      A
 Frequencies --   3190.3791              3219.0495              3241.0671
 Red. masses --      1.0878                 1.1176                 1.1162
 Frc consts  --      6.5237                 6.8231                 6.9082
 IR Inten    --     10.6870                10.9121                10.0140

                     79                     80                     81
                      A                      A                      A
 Frequencies --   3275.1072              3293.3878              3667.4492
 Red. masses --      1.0897                 1.1019                 1.0804
 Frc consts  --      6.8869                 7.0420                 8.5619
 IR Inten    --      1.2238                 6.5020                84.9112

 - Thermochemistry -
 -------------------
 Temperature   298.150 Kelvin.  Pressure   1.00000 Atm.
 Atom     1 has atomic number  6 and mass  12.00000

 Molecular mass:   202.12185 amu.
 Principal axes and moments of inertia in atomic units:
                           1         2         3
     Eigenvalues --  1994.512693467.722684787.48163
           X            0.99998   0.00682  -0.00181
           Y           -0.00682   0.99997   0.00237
           Z            0.00183  -0.00236   1.00000
 This molecule is an asymmetric top.
 Rotational symmetry number  1.
 Warning -- assumption of classical behavior for rotation
           may cause significant error
 Rotational temperatures (Kelvin)      0.04343     0.02498     0.01809
 Rotational constants (GHZ):           0.90485     0.52044     0.37697
 Zero-point vibrational energy     641509.4 (Joules/Mol)
                                  153.32443 (Kcal/Mol)
 Warning -- explicit consideration of  18 degrees of freedom as
           vibrations may cause significant error
 Vibrational temperatures:     36.70    80.92    90.13   163.08   217.49
          (Kelvin)            217.98   333.39   340.34   370.27   424.45
                              461.93   513.11   577.81   668.78   688.94
                              768.77   807.15   818.71   904.66   937.63
                              980.44  1015.06  1022.81  1123.98  1164.33
                             1173.58  1194.13  1219.79  1258.65  1312.80
                             1329.98  1356.63  1391.89  1398.00  1462.70
                             1533.76  1557.50  1567.80  1597.50  1619.08
                             1650.36  1662.93  1675.69  1701.75  1742.24
                             1768.10  1792.06  1813.95  1867.88  1918.90
                             1941.77  1986.16  1991.11  2013.79  2070.02
                             2099.46  2106.23  2137.66  2157.20  2162.15
                             2177.42  2194.20  2214.89  2234.83  2247.72
                             2319.18  2353.31  4374.02  4401.83  4478.39
                             4519.23  4536.03  4544.43  4567.10  4574.91
                             4590.24  4631.49  4663.17  4712.15  4738.45
                             5276.64

 Zero-point correction=                           0.244338 (Hartree/Particle)
 Thermal correction to Energy=                    0.257397
 Thermal correction to Enthalpy=                  0.258341
 Thermal correction to Gibbs Free Energy=         0.203686
 Sum of electronic and zero-point Energies=           -646.391116
 Sum of electronic and thermal Energies=              -646.378057
 Sum of electronic and thermal Enthalpies=            -646.377113
 Sum of electronic and thermal Free Energies=         -646.431768

                     E (Thermal)             CV                S
                      KCal/Mol        Cal/Mol-Kelvin    Cal/Mol-Kelvin
 Total                  161.519             50.675            115.031
 Electronic               0.000              0.000              0.000
 Translational            0.889              2.981             41.816
 Rotational               0.889              2.981             31.871
 Vibrational            159.742             44.713             41.344
 Vibration     1          0.593              1.985              6.151
 Vibration     2          0.596              1.975              4.585
 Vibration     3          0.597              1.972              4.372
 Vibration     4          0.607              1.938              3.211
 Vibration     5          0.619              1.901              2.658
 Vibration     6          0.619              1.901              2.653
 Vibration     7          0.653              1.792              1.866
 Vibration     8          0.655              1.785              1.829
 Vibration     9          0.667              1.750              1.680
 Vibration    10          0.689              1.683              1.445
 Vibration    11          0.707              1.633              1.305
 Vibration    12          0.732              1.562              1.137
 Vibration    13          0.767              1.467              0.957
 Vibration    14          0.822              1.328              0.752
 Vibration    15          0.835              1.297              0.713
 Vibration    16          0.889              1.174              0.578
 Vibration    17          0.917              1.116              0.522
 Vibration    18          0.925              1.098              0.506

 Optimization completed.
    -- Stationary point found.
 Normal termination of Gaussian 16 at Thu Dec 10 16:29:44 2020.

 ----------------------------------------------------------------------
 # B3LYP/6-311++G(d,p) empiricaldispersion=gd3bj scf=xqc pop=npa geom=c
 heck
 ----------------------------------------------------------------------

 ---------------------------------------
 CID_138993772_JID_5436_Energie_neutraal
 ---------------------------------------
 Structure from the checkpoint file:  "JID_5436.chk"
 Charge =  0 Multiplicity = 1

 SCF Done:  E(RB3LYP) =  -646.806722749     A.U. after   15 cycles
 Normal termination of Gaussian 16 at Thu Dec 10 16:34:59 2020.

 ----------------------------------------------------------------------
 # B3LYP/6-311++G(d,p) empiricaldispersion=gd3bj scf=xqc pop=npa geom=c
 heck
 ----------------------------------------------------------------------

 -------------------------------------
 CID_138993772_JID_5436_Energie_kation
 -------------------------------------
 Structure from the checkpoint file:  "JID_5436.chk"
 Charge =  1 Multiplicity = 2

 SCF Done:  E(UB3LYP) =  -646.538614829     A.U. after   22 cycles
 Normal termination of Gaussian 16 at Thu Dec 10 16:43:59 2020.
 Gaussian 16:  ES64L-G16RevA.03 25-Dec-2016

 ----------------------------------------------------------------------
 # B3LYP/6-311++G(d,p) empiricaldispersion=gd3bj scf=xqc pop=npa geom=c
 heck
 ----------------------------------------------------------------------

 ------------------------------------
 CID_138993772_JID_5436_Energie_anion
 ------------------------------------
 Structure from the checkpoint file:  "JID_5436.chk"
 Charge = -1 Multiplicity = 2

                         Standard orientation:
 ---------------------------------------------------------------------
 Center     Atomic      Atomic             Coordinates (Angstroms)
 Number     Number       Type             X           Y           Z
 ---------------------------------------------------------------------
      1          6           0       -1.594095   -2.514201   -0.500765
      2          7           0       -1.045569   -1.176703   -0.704916
      3          6           0       -2.030182   -0.115918   -0.894948
      4          6           0       -2.778288    0.267209    0.367594
      5          6           0       -2.163526    1.215949    1.365629
      6          6           0       -3.324914    1.666030    0.513214
      7          6           0        0.229552   -0.931916   -0.260035
      8          7           0        0.872645   -1.991746    0.269210
      9          6           0        2.133923   -1.854586    0.697215
     10          7           0        2.887638   -0.759317    0.691834
     11          6           0        2.239325    0.286705    0.160372
     12          6           0        0.916831    0.317100   -0.354016
     13          6           0        0.704459    1.664379   -0.826943
     14          6           0        1.854890    2.369703   -0.584261
     15          7           0        2.780815    1.536634    0.013328
     16          1           0       -2.514304   -2.596093   -1.086238
     17          1           0       -1.820649   -2.716029    0.554499
     18          1           0       -0.878187   -3.264879   -0.834224
     19          1           0       -1.540840    0.757411   -1.319996
     20          1           0       -2.741914   -0.466179   -1.652322
     21          1           0       -3.390973   -0.531173    0.781814
     22          1           0       -2.341592    1.028624    2.420550
     23          1           0       -1.181493    1.622197    1.144699
     24          1           0       -3.120858    2.374214   -0.286888
     25          1           0       -4.297394    1.796531    0.978982
     26          1           0        2.590117   -2.753628    1.107451
     27          1           0       -0.168420    2.086639   -1.298869
     28          1           0        2.092111    3.402311   -0.793865
     29          1           0        3.717861    1.775258    0.299875
 ---------------------------------------------------------------------

 SCF Done:  E(UB3LYP) =  -646.793617219     A.U. after   33 cycles
 SCF Done:  E(UB3LYP) =  -646.793617219     a.u. after    1 cycles

 The electronic state is 2-A.
 Alpha  occ. eigenvalues --  -14.26459 -14.24769 -14.20863 -14.20142 -10.16150
 Alpha  occ. eigenvalues --  -10.14148 -10.13437 -10.11639 -10.11198 -10.10266
 Alpha  occ. eigenvalues --  -10.08823 -10.08684 -10.08119 -10.07773 -10.07661
 Alpha  occ. eigenvalues --   -0.91169  -0.88284  -0.84742  -0.77876  -0.76366
 Alpha  occ. eigenvalues --   -0.70186  -0.65514  -0.63613  -0.60485  -0.54204
 Alpha  occ. eigenvalues --   -0.53049  -0.51066  -0.50565  -0.49187  -0.46022
 Alpha  occ. eigenvalues --   -0.43226  -0.40349  -0.39010  -0.38821  -0.38071
 Alpha  occ. eigenvalues --   -0.35846  -0.34929  -0.34496  -0.33944  -0.32470
 Alpha  occ. eigenvalues --   -0.31226  -0.30630  -0.29324  -0.28651  -0.27758
 Alpha  occ. eigenvalues --   -0.27213  -0.23653  -0.21004  -0.20235  -0.20095
 Alpha  occ. eigenvalues --   -0.16651  -0.16302  -0.15767  -0.11097   0.04179
 Alpha virt. eigenvalues --    0.05567   0.06778   0.07050   0.07351   0.08376
 Alpha virt. eigenvalues --    0.08724   0.09501   0.09624   0.10048   0.10253
 Alpha virt. eigenvalues --    0.10910   0.11929   0.12797   0.12951   0.13233

  Beta  occ. eigenvalues --  -14.26427 -14.24766 -14.20857 -14.20142 -10.16146
  Beta  occ. eigenvalues --  -10.14149 -10.13435 -10.11623 -10.11166 -10.10247
  Beta  occ. eigenvalues --  -10.08813 -10.08682 -10.08093 -10.07765 -10.07653
  Beta  occ. eigenvalues --   -0.91147  -0.88264  -0.84727  -0.77862  -0.76349
  Beta  occ. eigenvalues --   -0.70152  -0.65485  -0.63582  -0.60452  -0.54180
  Beta  occ. eigenvalues --   -0.53014  -0.51010  -0.50508  -0.49150  -0.45983
  Beta  occ. eigenvalues --   -0.43195  -0.40309  -0.38973  -0.38778  -0.38037
  Beta  occ. eigenvalues --   -0.35818  -0.34912  -0.34469  -0.33915  -0.32438
  Beta  occ. eigenvalues --   -0.31190  -0.30600  -0.29299  -0.28631  -0.27728
  Beta  occ. eigenvalues --   -0.27189  -0.23638  -0.20979  -0.20215  -0.20077
  Beta  occ. eigenvalues --   -0.16638  -0.16292  -0.15751  -0.11080
  Beta virt. eigenvalues --    0.06328   0.06840   0.07352   0.07629   0.07941
  Beta virt. eigenvalues --    0.08822   0.09367   0.09592   0.09818   0.10323
  Beta virt. eigenvalues --    0.10985   0.11112   0.12409   0.12876   0.13058

 Mulliken charges and spin densities:
               1          2
     1  C    0.170059  -0.480312
     2  N    0.014500   0.155595
     3  C    0.988496  -1.571459
     4  C   -0.957799   1.215669
     5  C   -0.188526  -0.199779
     6  C    0.570045  -0.981669
     7  C    0.215153  -0.515290
     8  N   -0.196261   0.028259
     9  C    0.250456  -0.170975
    10  N   -0.102439  -0.009953
    11  C   -0.964151   0.756020
    12  C    1.196996  -0.661879
    13  C    0.028564  -0.549197
    14  C    0.683273  -1.062829
    15  N   -0.251888   0.046328
    16  H   -0.243295   0.380275
    17  H    0.093230   0.091819
    18  H    0.084901   0.102751
    19  H   -0.137849   0.265098
    20  H   -0.099750   0.274660
    21  H   -0.217877   0.432720
    22  H   -0.004240   0.164397
    23  H    0.260376  -0.072627
    24  H   -0.191848   0.324933
    25  H   -0.256670   0.407819
    26  H    0.171297   0.015343
    27  H    0.078370   0.074562
    28  H   -1.654005   1.853874
    29  H   -0.339122   0.685848
 Sum of Mulliken charges =  -1.00000   1.00000

 Dipole moment (field-independent basis, Debye):
    X=             -1.4557    Y=             -5.8087    Z=              0.4912  Tot=              6.0085
 Quadrupole moment (field-independent basis, Debye-Ang):
   XX=           -167.3882   YY=           -151.8253   ZZ=           -118.3728
   XY=            -16.2096   XZ=              0.6822   YZ=              2.5440

 Summary of Natural Population Analysis:

                                       Natural Population
                Natural  -----------------------------------------------
    Atom  No    Charge         Core      Valence    Rydberg      Total
 -----------------------------------------------------------------------
      C    1   -0.17794      0.99964     2.16960    0.00870     3.17794
      N    2   -0.23656      0.99965     2.72618    0.01073     3.73656
      C    3   -0.08168      0.99958     2.06966    0.01244     3.08168
      C    4   -0.12516      0.99958     2.11449    0.01109     3.12516
      C    5   -0.19768      0.99961     2.19064    0.00743     3.19768
      C    6   -0.19574      0.99962     2.18711    0.00902     3.19574
      C    7    0.23230      0.99949     1.75435    0.01386     2.76770
      N    8   -0.29034      0.99968     2.78172    0.00894     3.79034
      C    9    0.14057      0.99967     1.84059    0.01917     2.85943
      N   10   -0.27034      0.99967     2.76106    0.00961     3.77034
      C   11    0.19182      0.99950     1.79176    0.01692     2.80818
      C   12   -0.09992      0.99945     2.09199    0.00848     3.09992
      C   13   -0.14585      0.99954     2.13683    0.00947     3.14585
      C   14    0.00781      0.99956     1.97922    0.01341     2.99219
      N   15   -0.27025      0.99965     2.75958    0.01102     3.77025
      H   16    0.09442      0.00000     0.40462    0.00096     0.40558
      H   17    0.09412      0.00000     0.40459    0.00129     0.40588
      H   18    0.10762      0.00000     0.39119    0.00120     0.39238
      H   19    0.10081      0.00000     0.39659    0.00260     0.39919
      H   20    0.09905      0.00000     0.39957    0.00138     0.40095
      H   21    0.10388      0.00000     0.39473    0.00139     0.39612
      H   22    0.10143      0.00000     0.39770    0.00086     0.39857
      H   23    0.10887      0.00000     0.38965    0.00147     0.39113
      H   24    0.10129      0.00000     0.39753    0.00118     0.39871
      H   25    0.10378      0.00000     0.39493    0.00129     0.39622
      H   26    0.07981      0.00000     0.41922    0.00096     0.42019
      H   27    0.10687      0.00000     0.39189    0.00124     0.39313
      H   28    0.10836      0.00000     0.38406    0.00757     0.39164
      H   29    0.20864      0.00000     0.28513    0.00624     0.29136
 =======================================================================
   * Total *   -0.00000     14.99390    38.80620    0.19990    54.00000

 Normal termination of Gaussian 16 at Thu Dec 10 17:05:56 2020.
