 Gaussian 16, Revision A.03,

 -----------------------------------------------------------
 # opt freq B3LYP/6-31G(d) empiricaldispersion=gd3bj scf=xqc
 -----------------------------------------------------------

 -------------------------------
 CID_103798082_JID_5833_neutraal
 -------------------------------
 Symbolic Z-matrix:
 Charge =  0 Multiplicity = 1

 SCF Done:  E(RB3LYP) =  -692.428531667     A.U. after   14 cycles
 SCF Done:  E(RB3LYP) =  -692.431859110     A.U. after   12 cycles
 SCF Done:  E(RB3LYP) =  -692.430827477     A.U. after   12 cycles
 SCF Done:  E(RB3LYP) =  -692.432361902     A.U. after   12 cycles
 SCF Done:  E(RB3LYP) =  -692.432527154     A.U. after   12 cycles
 SCF Done:  E(RB3LYP) =  -692.432994826     A.U. after   11 cycles
 SCF Done:  E(RB3LYP) =  -692.433121751     A.U. after   10 cycles
 SCF Done:  E(RB3LYP) =  -692.433177641     A.U. after   11 cycles
 SCF Done:  E(RB3LYP) =  -692.433219718     A.U. after    9 cycles
 SCF Done:  E(RB3LYP) =  -692.433276561     A.U. after   11 cycles
 SCF Done:  E(RB3LYP) =  -692.434280983     A.U. after    9 cycles
 SCF Done:  E(RB3LYP) =  -692.434281026     A.U. after    9 cycles
 SCF Done:  E(RB3LYP) =  -692.434281702     A.U. after    9 cycles
 SCF Done:  E(RB3LYP) =  -692.434281910     A.U. after    8 cycles
 SCF Done:  E(RB3LYP) =  -692.434282090     A.U. after    8 cycles
 SCF Done:  E(RB3LYP) =  -692.434282178     A.U. after    7 cycles
 Optimization completed.
    -- Stationary point found.
 Normal termination of Gaussian 16 at Thu Dec 10 17:44:16 2020.

 --------------------------------------------------------------------
 #N Geom=AllCheck Guess=TCheck SCRF=Check GenChk RB3LYP/6-31G(d) Freq
 --------------------------------------------------------------------

 Structure from the checkpoint file:  "JID_5833.chk"
 -------------------------------
 CID_103798082_JID_5833_neutraal
 -------------------------------
 Charge =  0 Multiplicity = 1

 SCF Done:  E(RB3LYP) =  -692.434282178     A.U. after    1 cycles

  Exact polarizability: 150.007   7.652 126.669  -1.618   0.367 118.358
 Approx polarizability: 196.213  11.247 182.786   2.744   6.848 179.954

                      1                      2                      3
                      A                      A                      A
 Frequencies --     22.1824                49.4368                52.9388
 Red. masses --      3.7957                 4.7313                 4.9269
 Frc consts  --      0.0011                 0.0068                 0.0081
 IR Inten    --      0.0650                 1.0877                 0.3546

                      4                      5                      6
                      A                      A                      A
 Frequencies --     63.0987               114.9149               145.4034
 Red. masses --      3.6063                 2.4348                 3.8549
 Frc consts  --      0.0085                 0.0189                 0.0480
 IR Inten    --      0.2764                 0.3138                 2.0916

                      7                      8                      9
                      A                      A                      A
 Frequencies --    165.9070               203.2771               226.6587
 Red. masses --      3.0869                 2.4731                 2.5778
 Frc consts  --      0.0501                 0.0602                 0.0780
 IR Inten    --      0.3578                 1.2746                 0.6169

                     10                     11                     12
                      A                      A                      A
 Frequencies --    237.2473               253.0388               261.8638
 Red. masses --      1.8460                 1.1861                 1.9684
 Frc consts  --      0.0612                 0.0447                 0.0795
 IR Inten    --      1.1742                 0.4925                 2.8504

                     13                     14                     15
                      A                      A                      A
 Frequencies --    277.1493               309.6923               318.9190
 Red. masses --      1.3360                 2.1608                 1.8967
 Frc consts  --      0.0605                 0.1221                 0.1137
 IR Inten    --     20.5676                11.0818                 8.0264

                     16                     17                     18
                      A                      A                      A
 Frequencies --    320.0383               358.5845               378.7858
 Red. masses --      2.2022                 2.8893                 2.2139
 Frc consts  --      0.1329                 0.2189                 0.1872
 IR Inten    --      7.4996                 4.8869                 8.6978

                     19                     20                     21
                      A                      A                      A
 Frequencies --    417.2854               430.0707               451.1568
 Red. masses --      1.8466                 3.0345                 3.2915
 Frc consts  --      0.1894                 0.3307                 0.3947
 IR Inten    --      1.2869                 3.8085                 8.7317

                     22                     23                     24
                      A                      A                      A
 Frequencies --    479.7639               483.4923               550.9291
 Red. masses --      2.4080                 2.9483                 3.2809
 Frc consts  --      0.3266                 0.4061                 0.5867
 IR Inten    --      2.3579                 0.0853                11.5059

                     25                     26                     27
                      A                      A                      A
 Frequencies --    595.7698               629.8093               647.4390
 Red. masses --      2.4220                 1.4658                 2.0952
 Frc consts  --      0.5065                 0.3426                 0.5175
 IR Inten    --     19.8295                54.3475                65.0189

                     28                     29                     30
                      A                      A                      A
 Frequencies --    726.9137               743.8267               778.8714
 Red. masses --      3.1144                 2.5749                 3.1489
 Frc consts  --      0.9696                 0.8394                 1.1255
 IR Inten    --      6.3816                21.6448                11.7046

                     31                     32                     33
                      A                      A                      A
 Frequencies --    812.4432               849.3610               868.3382
 Red. masses --      1.6480                 1.5708                 3.1258
 Frc consts  --      0.6409                 0.6677                 1.3886
 IR Inten    --      0.1242                20.3034                 3.1688

                     34                     35                     36
                      A                      A                      A
 Frequencies --    872.4337               909.5950               931.1923
 Red. masses --      2.0484                 1.8040                 1.9680
 Frc consts  --      0.9186                 0.8794                 1.0054
 IR Inten    --      6.1138                12.1328                78.4683

                     37                     38                     39
                      A                      A                      A
 Frequencies --    946.1474               964.3486              1013.7006
 Red. masses --      1.9486                 1.7765                 2.4990
 Frc consts  --      1.0278                 0.9734                 1.5130
 IR Inten    --    111.3347                 6.6176                 7.2340

                     40                     41                     42
                      A                      A                      A
 Frequencies --   1019.9660              1023.2788              1049.5552
 Red. masses --      1.4690                 2.1339                 2.5405
 Frc consts  --      0.9004                 1.3165                 1.6489
 IR Inten    --      0.2188                10.2175                 1.5348

                     43                     44                     45
                      A                      A                      A
 Frequencies --   1052.1492              1066.2089              1077.2968
 Red. masses --      1.6541                 1.3192                 1.6606
 Frc consts  --      1.0788                 0.8835                 1.1355
 IR Inten    --      5.8734                 0.7469                26.4292

                     46                     47                     48
                      A                      A                      A
 Frequencies --   1114.9512              1121.3806              1140.1513
 Red. masses --      2.1581                 1.8756                 2.4110
 Frc consts  --      1.5806                 1.3897                 1.8466
 IR Inten    --     15.6020                 3.3991                13.1647

                     49                     50                     51
                      A                      A                      A
 Frequencies --   1146.1444              1169.1004              1213.5169
 Red. masses --      5.1197                 2.8038                 2.2331
 Frc consts  --      3.9626                 2.2579                 1.9375
 IR Inten    --     58.1063                 5.8760                20.3899

                     52                     53                     54
                      A                      A                      A
 Frequencies --   1228.0425              1241.2269              1254.0359
 Red. masses --      2.3566                 1.2650                 1.5113
 Frc consts  --      2.0940                 1.1483                 1.4003
 IR Inten    --     49.5570                14.7487                 4.4175

                     55                     56                     57
                      A                      A                      A
 Frequencies --   1277.7525              1291.8767              1321.7445
 Red. masses --      1.4026                 1.3910                 1.4218
 Frc consts  --      1.3492                 1.3678                 1.4634
 IR Inten    --     28.3251                38.7854                80.4790

                     58                     59                     60
                      A                      A                      A
 Frequencies --   1336.9832              1347.1154              1349.6169
 Red. masses --      1.2781                 1.5618                 1.3689
 Frc consts  --      1.3461                 1.6699                 1.4690
 IR Inten    --      5.4048                 8.2023                 2.1584

                     61                     62                     63
                      A                      A                      A
 Frequencies --   1382.2029              1385.6294              1393.4735
 Red. masses --      1.3492                 1.3694                 1.2780
 Frc consts  --      1.5187                 1.5491                 1.4621
 IR Inten    --      8.7882                 3.2429                 2.5441

                     64                     65                     66
                      A                      A                      A
 Frequencies --   1407.2933              1419.8793              1423.0470
 Red. masses --      1.2404                 1.4139                 1.4041
 Frc consts  --      1.4473                 1.6794                 1.6752
 IR Inten    --      7.3636                 3.9610                 4.5255

                     67                     68                     69
                      A                      A                      A
 Frequencies --   1435.0263              1440.5555              1446.7936
 Red. masses --      1.4600                 1.3017                 1.3255
 Frc consts  --      1.7714                 1.5916                 1.6347
 IR Inten    --     27.0284                 7.0792                13.5878

                     70                     71                     72
                      A                      A                      A
 Frequencies --   1449.7838              1500.0970              1504.5211
 Red. masses --      1.3291                 1.1066                 1.2854
 Frc consts  --      1.6459                 1.4672                 1.7143
 IR Inten    --      7.3355                 4.8551                13.9266

                     73                     74                     75
                      A                      A                      A
 Frequencies --   1508.3182              1512.5153              1523.5736
 Red. masses --      1.2729                 1.1371                 1.0874
 Frc consts  --      1.7061                 1.5327                 1.4871
 IR Inten    --     20.8017                23.5960                10.2090

                     76                     77                     78
                      A                      A                      A
 Frequencies --   1526.7994              1528.8280              1529.9985
 Red. masses --      1.0831                 1.0597                 1.0543
 Frc consts  --      1.4876                 1.4594                 1.4541
 IR Inten    --      3.0152                 9.2999                 6.3547

                     79                     80                     81
                      A                      A                      A
 Frequencies --   1532.9916              1539.3550              1543.4581
 Red. masses --      1.0916                 1.0816                 1.0715
 Frc consts  --      1.5114                 1.5101                 1.5039
 IR Inten    --      6.0324                 8.9704                 4.1038

                     82                     83                     84
                      A                      A                      A
 Frequencies --   1698.0670              1764.9476              2994.7982
 Red. masses --      1.0888                 7.3356                 1.0710
 Frc consts  --      1.8497                13.4633                 5.6594
 IR Inten    --     30.2183               293.3156                60.0248

                     85                     86                     87
                      A                      A                      A
 Frequencies --   3031.3838              3034.7566              3040.3957
 Red. masses --      1.0645                 1.0555                 1.0516
 Frc consts  --      5.7633                 5.7277                 5.7277
 IR Inten    --      7.2030                22.5635                51.7185

                     88                     89                     90
                      A                      A                      A
 Frequencies --   3046.0164              3047.9724              3053.2434
 Red. masses --      1.0461                 1.0516                 1.0649
 Frc consts  --      5.7186                 5.7559                 5.8489
 IR Inten    --     30.4471                32.2799                26.3644

                     91                     92                     93
                      A                      A                      A
 Frequencies --   3066.4810              3076.4837              3079.7588
 Red. masses --      1.0596                 1.1009                 1.0873
 Frc consts  --      5.8705                 6.1390                 6.0764
 IR Inten    --     16.8928                30.9785                75.7143

                     94                     95                     96
                      A                      A                      A
 Frequencies --   3086.6798              3101.9537              3102.7047
 Red. masses --      1.0973                 1.1014                 1.0991
 Frc consts  --      6.1598                 6.2438                 6.2341
 IR Inten    --     22.0653                28.8654                 1.0633

                     97                     98                     99
                      A                      A                      A
 Frequencies --   3103.6575              3114.4614              3116.8136
 Red. masses --      1.0935                 1.1031                 1.1018
 Frc consts  --      6.2062                 6.3043                 6.3063
 IR Inten    --     54.6604                28.9333                43.5501

                    100                    101                    102
                      A                      A                      A
 Frequencies --   3120.8771              3129.5722              3134.2414
 Red. masses --      1.1011                 1.0911                 1.1016
 Frc consts  --      6.3187                 6.2961                 6.3760
 IR Inten    --     42.8352                16.7488                45.2242

                    103                    104                    105
                      A                      A                      A
 Frequencies --   3448.9752              3534.7699              3586.7976
 Red. masses --      1.0495                 1.0920                 1.0750
 Frc consts  --      7.3555                 8.0392                 8.1487
 IR Inten    --      1.3828                 0.9387                11.4172

 - Thermochemistry -
 -------------------
 Temperature   298.150 Kelvin.  Pressure   1.00000 Atm.
 Atom     1 has atomic number  6 and mass  12.00000

 Molecular mass:   214.16813 amu.
 Principal axes and moments of inertia in atomic units:
                           1         2         3
     Eigenvalues --  2049.788114550.881295000.64125
           X            0.99960   0.02544  -0.01200
           Y           -0.02577   0.99925  -0.02873
           Z            0.01126   0.02903   0.99952
 This molecule is an asymmetric top.
 Rotational symmetry number  1.
 Warning -- assumption of classical behavior for rotation
           may cause significant error
 Rotational temperatures (Kelvin)      0.04226     0.01903     0.01732
 Rotational constants (GHZ):           0.88045     0.39657     0.36090
 Zero-point vibrational energy     880176.8 (Joules/Mol)
                                  210.36730 (Kcal/Mol)
 Warning -- explicit consideration of  25 degrees of freedom as
           vibrations may cause significant error
 Vibrational temperatures:     31.92    71.13    76.17    90.78   165.34
          (Kelvin)            209.20   238.70   292.47   326.11   341.35
                              364.07   376.76   398.76   445.58   458.85
                              460.46   515.92   544.99   600.38   618.78
                              649.11   690.27   695.64   792.66   857.18
                              906.16   931.52  1045.87  1070.20  1120.62
                             1168.92  1222.04  1249.35  1255.24  1308.70
                             1339.78  1361.30  1387.48  1458.49  1467.50
                             1472.27  1510.08  1513.81  1534.04  1549.99
                             1604.17  1613.42  1640.42  1649.05  1682.07
                             1745.98  1766.88  1785.85  1804.28  1838.40
                             1858.72  1901.70  1923.62  1938.20  1941.80
                             1988.68  1993.61  2004.90  2024.78  2042.89
                             2047.45  2064.68  2072.64  2081.61  2085.92
                             2158.30  2164.67  2170.13  2176.17  2192.08
                             2196.72  2199.64  2201.33  2205.63  2214.79
                             2220.69  2443.14  2539.37  4308.85  4361.49
                             4366.34  4374.45  4382.54  4385.35  4392.94
                             4411.98  4426.37  4431.09  4441.04  4463.02
                             4464.10  4465.47  4481.02  4484.40  4490.25
                             4502.76  4509.47  4962.31  5085.75  5160.60

 Zero-point correction=                           0.335242 (Hartree/Particle)
 Thermal correction to Energy=                    0.351526
 Thermal correction to Enthalpy=                  0.352470
 Thermal correction to Gibbs Free Energy=         0.291225
 Sum of electronic and zero-point Energies=           -692.099041
 Sum of electronic and thermal Energies=              -692.082756
 Sum of electronic and thermal Enthalpies=            -692.081812
 Sum of electronic and thermal Free Energies=         -692.143057

                     E (Thermal)             CV                S
                      KCal/Mol        Cal/Mol-Kelvin    Cal/Mol-Kelvin
 Total                  220.586             62.370            128.901
 Electronic               0.000              0.000              0.000
 Translational            0.889              2.981             41.988
 Rotational               0.889              2.981             32.212
 Vibrational            218.809             56.408             54.701
 Vibration     1          0.593              1.985              6.429
 Vibration     2          0.595              1.978              4.840
 Vibration     3          0.596              1.976              4.704
 Vibration     4          0.597              1.972              4.358
 Vibration     5          0.608              1.937              3.184
 Vibration     6          0.617              1.908              2.732
 Vibration     7          0.624              1.884              2.481
 Vibration     8          0.639              1.835              2.103
 Vibration     9          0.650              1.800              1.905
 Vibration    10          0.656              1.784              1.823
 Vibration    11          0.664              1.758              1.709
 Vibration    12          0.669              1.743              1.649
 Vibration    13          0.678              1.716              1.551
 Vibration    14          0.699              1.655              1.364
 Vibration    15          0.705              1.637              1.316
 Vibration    16          0.706              1.635              1.310
 Vibration    17          0.733              1.558              1.128
 Vibration    18          0.749              1.515              1.044
 Vibration    19          0.780              1.433              0.901
 Vibration    20          0.791              1.405              0.858
 Vibration    21          0.810              1.358              0.792
 Vibration    22          0.836              1.295              0.711
 Vibration    23          0.840              1.287              0.701
 Vibration    24          0.906              1.138              0.542
 Vibration    25          0.954              1.041              0.457

 Optimization completed.
    -- Stationary point found.
 Normal termination of Gaussian 16 at Thu Dec 10 17:58:03 2020.

 ----------------------------------------------------------------------
 # B3LYP/6-311++G(d,p) empiricaldispersion=gd3bj scf=xqc pop=npa geom=c
 heck
 ----------------------------------------------------------------------

 ---------------------------------------
 CID_103798082_JID_5833_Energie_neutraal
 ---------------------------------------
 Structure from the checkpoint file:  "JID_5833.chk"
 Charge =  0 Multiplicity = 1

 SCF Done:  E(RB3LYP) =  -692.643710270     A.U. after   15 cycles
 Normal termination of Gaussian 16 at Thu Dec 10 18:03:50 2020.

 ----------------------------------------------------------------------
 # B3LYP/6-311++G(d,p) empiricaldispersion=gd3bj scf=xqc pop=npa geom=c
 heck
 ----------------------------------------------------------------------

 -------------------------------------
 CID_103798082_JID_5833_Energie_kation
 -------------------------------------
 Structure from the checkpoint file:  "JID_5833.chk"
 Charge =  1 Multiplicity = 2

 SCF Done:  E(UB3LYP) =  -692.330399000     A.U. after   27 cycles
 Normal termination of Gaussian 16 at Thu Dec 10 18:17:37 2020.
 Gaussian 16:  ES64L-G16RevA.03 25-Dec-2016

 ----------------------------------------------------------------------
 # B3LYP/6-311++G(d,p) empiricaldispersion=gd3bj scf=xqc pop=npa geom=c
 heck
 ----------------------------------------------------------------------

 ------------------------------------
 CID_103798082_JID_5833_Energie_anion
 ------------------------------------
 Structure from the checkpoint file:  "JID_5833.chk"
 Charge = -1 Multiplicity = 2

                         Standard orientation:
 ---------------------------------------------------------------------
 Center     Atomic      Atomic             Coordinates (Angstroms)
 Number     Number       Type             X           Y           Z
 ---------------------------------------------------------------------
      1          6           0       -2.426403   -1.796636    1.286520
      2          6           0       -3.219244   -0.607858    0.741027
      3          6           0       -2.337613    0.539112    0.244906
      4          6           0       -1.505677    0.100654   -0.971501
      5          8           0       -1.975673   -0.661253   -1.813373
      6          7           0       -0.268878    0.660033   -1.167852
      7          6           0        0.523329    1.513651   -0.299183
      8          6           0        1.716441    0.868003    0.455454
      9          6           0        1.297358   -0.378985    1.272266
     10          6           0        1.242514   -1.677388    0.459658
     11          8           0        2.463684   -1.904098   -0.234761
     12          6           0        2.705103   -0.878207   -1.181921
     13          6           0        2.876158    0.480455   -0.496342
     14          6           0        2.220888    1.955755    1.421700
     15          7           0       -3.187606    1.687051   -0.122737
     16          1           0       -1.814395   -2.252161    0.501841
     17          1           0       -3.099884   -2.569379    1.671755
     18          1           0       -1.764899   -1.495664    2.108787
     19          1           0       -3.846860   -0.941252   -0.092813
     20          1           0       -3.880534   -0.196790    1.511447
     21          1           0       -1.695581    0.863087    1.069589
     22          1           0        0.149446    0.360261   -2.040317
     23          1           0        0.912121    2.346160   -0.901132
     24          1           0       -0.147588    1.959232    0.438388
     25          1           0        2.036218   -0.523874    2.070334
     26          1           0        0.331876   -0.206708    1.764888
     27          1           0        0.408655   -1.673494   -0.253804
     28          1           0        1.109993   -2.533626    1.127277
     29          1           0        1.894087   -0.859148   -1.928327
     30          1           0        3.624623   -1.154989   -1.706580
     31          1           0        3.029294    1.267166   -1.248467
     32          1           0        3.798243    0.425944    0.095507
     33          1           0        2.510582    2.865617    0.881267
     34          1           0        1.447167    2.227932    2.150081
     35          1           0        3.095987    1.603921    1.977550
     36          1           0       -2.606541    2.458832   -0.450463
     37          1           0       -3.757818    1.410821   -0.923117
 ---------------------------------------------------------------------

 SCF Done:  E(UB3LYP) =  -692.633732859     A.U. after   32 cycles

 The electronic state is 2-A.
 Alpha  occ. eigenvalues --  -19.02917 -18.99326 -14.24209 -14.20933 -10.17577
 Alpha  occ. eigenvalues --  -10.12070 -10.11964 -10.11558 -10.11052 -10.09385
 Alpha  occ. eigenvalues --  -10.07749 -10.07424 -10.07424 -10.06986 -10.06090
 Alpha  occ. eigenvalues --   -0.94564  -0.94435  -0.82976  -0.80158  -0.72974
 Alpha  occ. eigenvalues --   -0.68607  -0.67099  -0.62329  -0.60129  -0.58911
 Alpha  occ. eigenvalues --   -0.54862  -0.53150  -0.51503  -0.46570  -0.45691
 Alpha  occ. eigenvalues --   -0.42688  -0.40979  -0.38755  -0.38489  -0.38180
 Alpha  occ. eigenvalues --   -0.37187  -0.35993  -0.35754  -0.35043  -0.34451
 Alpha  occ. eigenvalues --   -0.32700  -0.31257  -0.30461  -0.29681  -0.29268
 Alpha  occ. eigenvalues --   -0.28505  -0.28095  -0.27147  -0.26255  -0.25711
 Alpha  occ. eigenvalues --   -0.25435  -0.24922  -0.24714  -0.21915  -0.21305
 Alpha  occ. eigenvalues --   -0.18858  -0.16621  -0.15450  -0.14673   0.04275
 Alpha virt. eigenvalues --    0.06658   0.06961   0.07338   0.08503   0.08733
 Alpha virt. eigenvalues --    0.08935   0.09550   0.10130   0.10486   0.11176
 Alpha virt. eigenvalues --    0.11412   0.11754   0.11871   0.12582   0.13486

  Beta  occ. eigenvalues --  -19.02910 -18.99314 -14.24197 -14.20903 -10.17573
  Beta  occ. eigenvalues --  -10.12055 -10.11961 -10.11545 -10.11009 -10.09387
  Beta  occ. eigenvalues --  -10.07745 -10.07417 -10.07404 -10.06953 -10.06048
  Beta  occ. eigenvalues --   -0.94546  -0.94418  -0.82946  -0.80110  -0.72945
  Beta  occ. eigenvalues --   -0.68582  -0.67072  -0.62277  -0.60075  -0.58851
  Beta  occ. eigenvalues --   -0.54810  -0.53121  -0.51447  -0.46536  -0.45645
  Beta  occ. eigenvalues --   -0.42660  -0.40924  -0.38727  -0.38441  -0.38132
  Beta  occ. eigenvalues --   -0.37152  -0.35951  -0.35728  -0.34990  -0.34435
  Beta  occ. eigenvalues --   -0.32669  -0.31230  -0.30432  -0.29641  -0.29238
  Beta  occ. eigenvalues --   -0.28460  -0.28055  -0.27121  -0.26207  -0.25683
  Beta  occ. eigenvalues --   -0.25413  -0.24886  -0.24686  -0.21882  -0.21277
  Beta  occ. eigenvalues --   -0.18831  -0.16574  -0.15409  -0.14650
  Beta virt. eigenvalues --    0.06542   0.07243   0.07601   0.07892   0.08857
  Beta virt. eigenvalues --    0.09197   0.09333   0.09823   0.10441   0.11002
  Beta virt. eigenvalues --    0.11481   0.11644   0.11895   0.12134   0.13074

 Mulliken charges and spin densities:
               1          2
     1  C   -0.484748  -0.083082
     2  C   -0.104105  -0.327762
     3  C    1.009922  -0.909145
     4  C   -0.547397   0.238924
     5  O   -0.306722   0.020166
     6  N   -0.360777   0.224820
     7  C    1.605608  -2.303253
     8  C   -1.735742   2.478929
     9  C    0.394029  -0.671305
    10  C   -0.762152   0.151967
    11  O   -0.113105   0.020686
    12  C    0.522599  -0.909186
    13  C    0.204058  -0.614888
    14  C    0.989675  -1.331751
    15  N   -0.350357   0.117321
    16  H    0.151151   0.012063
    17  H    0.102340   0.043451
    18  H   -0.003127   0.142927
    19  H    0.164018  -0.003259
    20  H    0.112479   0.056348
    21  H   -0.138083   0.309080
    22  H   -0.033213   0.355118
    23  H   -0.768107   0.997477
    24  H    0.247106  -0.061417
    25  H   -0.036575   0.244004
    26  H    0.429020  -0.340058
    27  H    0.229255  -0.020903
    28  H    0.071528   0.116240
    29  H    0.183913  -0.113097
    30  H   -0.263561   0.469902
    31  H   -0.444037   0.610345
    32  H   -0.088589   0.264939
    33  H   -0.311009   0.476506
    34  H   -0.495395   0.637148
    35  H   -0.093297   0.234827
    36  H   -0.129185   0.374537
    37  H    0.152582   0.091380
 Sum of Mulliken charges =  -1.00000   1.00000

 Dipole moment (field-independent basis, Debye):
    X=             -3.2534    Y=             -5.9960    Z=              1.4359  Tot=              6.9712
 Quadrupole moment (field-independent basis, Debye-Ang):
   XX=           -157.0766   YY=           -150.8917   ZZ=           -135.1183
   XY=             -1.8313   XZ=              0.2816   YZ=             -1.9307

 Summary of Natural Population Analysis:

                                       Natural Population
                Natural  -----------------------------------------------
    Atom  No    Charge         Core      Valence    Rydberg      Total
 -----------------------------------------------------------------------
      C    1   -0.28730      0.99966     2.28346    0.00418     3.28730
      C    2   -0.19118      0.99962     2.18345    0.00811     3.19118
      C    3   -0.05380      0.99955     2.04179    0.01246     3.05380
      C    4    0.33592      0.99963     1.63929    0.02516     2.66408
      O    5   -0.33367      0.99988     3.32833    0.00546     4.33367
      N    6   -0.31807      0.99966     2.80594    0.01247     3.81807
      C    7   -0.08927      0.99954     2.07490    0.01484     3.08927
      C    8   -0.04843      0.99955     2.03427    0.01462     3.04843
      C    9   -0.20527      0.99958     2.19577    0.00992     3.20527
      C   10   -0.01121      0.99957     1.99965    0.01199     3.01121
      O   11   -0.29944      0.99989     3.29112    0.00842     4.29944
      C   12   -0.00688      0.99958     1.99444    0.01287     3.00688
      C   13   -0.20532      0.99958     2.19488    0.01086     3.20532
      C   14   -0.28084      0.99962     2.27376    0.00746     3.28084
      N   15   -0.40975      0.99978     2.90054    0.00943     3.90975
      H   16    0.10222      0.00000     0.39672    0.00106     0.39778
      H   17    0.09675      0.00000     0.40256    0.00069     0.40325
      H   18    0.09541      0.00000     0.40349    0.00110     0.40459
      H   19    0.10254      0.00000     0.39625    0.00121     0.39746
      H   20    0.10019      0.00000     0.39873    0.00108     0.39981
      H   21    0.09725      0.00000     0.40033    0.00242     0.40275
      H   22    0.19295      0.00000     0.30452    0.00254     0.30705
      H   23    0.10595      0.00000     0.38985    0.00420     0.39405
      H   24    0.10206      0.00000     0.39509    0.00284     0.39794
      H   25    0.10200      0.00000     0.39677    0.00123     0.39800
      H   26    0.10183      0.00000     0.39673    0.00144     0.39817
      H   27    0.08295      0.00000     0.41561    0.00144     0.41705
      H   28    0.08872      0.00000     0.41018    0.00110     0.41128
      H   29    0.07236      0.00000     0.42598    0.00166     0.42764
      H   30    0.09137      0.00000     0.40739    0.00124     0.40863
      H   31    0.10699      0.00000     0.39075    0.00226     0.39301
      H   32    0.10160      0.00000     0.39687    0.00152     0.39840
      H   33    0.10533      0.00000     0.39288    0.00179     0.39467
      H   34    0.10126      0.00000     0.39726    0.00148     0.39874
      H   35    0.10090      0.00000     0.39779    0.00130     0.39910
      H   36    0.17958      0.00000     0.31829    0.00213     0.32042
      H   37    0.17430      0.00000     0.32379    0.00191     0.32570
 =======================================================================
   * Total *    0.00000     14.99470    43.79944    0.20586    59.00000

 Normal termination of Gaussian 16 at Thu Dec 10 18:33:49 2020.
