 Gaussian 16, Revision A.03,

 -----------------------------------------------------------
 # opt freq B3LYP/6-31G(d) empiricaldispersion=gd3bj scf=xqc
 -----------------------------------------------------------

 ------------------------------
 CID_80368691_JID_7353_neutraal
 ------------------------------
 Symbolic Z-matrix:
 Charge =  0 Multiplicity = 1

 SCF Done:  E(RB3LYP) =  -799.483765883     A.U. after   15 cycles
 SCF Done:  E(RB3LYP) =  -799.488799420     A.U. after   12 cycles
 SCF Done:  E(RB3LYP) =  -799.489354098     A.U. after   11 cycles
 SCF Done:  E(RB3LYP) =  -799.489411852     A.U. after   10 cycles
 SCF Done:  E(RB3LYP) =  -799.489442457     A.U. after   10 cycles
 SCF Done:  E(RB3LYP) =  -799.489453554     A.U. after   10 cycles
 SCF Done:  E(RB3LYP) =  -799.489463271     A.U. after   10 cycles
 SCF Done:  E(RB3LYP) =  -799.489470606     A.U. after   10 cycles
 SCF Done:  E(RB3LYP) =  -799.489477194     A.U. after    9 cycles
 SCF Done:  E(RB3LYP) =  -799.489481949     A.U. after   10 cycles
 SCF Done:  E(RB3LYP) =  -799.495028986     A.U. after    9 cycles
 SCF Done:  E(RB3LYP) =  -799.495029220     A.U. after    8 cycles
 SCF Done:  E(RB3LYP) =  -799.495029313     A.U. after    8 cycles
 SCF Done:  E(RB3LYP) =  -799.495029337     A.U. after    7 cycles
 Optimization completed.
    -- Stationary point found.
 Normal termination of Gaussian 16 at Fri Dec 11 12:41:49 2020.

 --------------------------------------------------------------------
 #N Geom=AllCheck Guess=TCheck SCRF=Check GenChk RB3LYP/6-31G(d) Freq
 --------------------------------------------------------------------

 Structure from the checkpoint file:  "JID_7353.chk"
 ------------------------------
 CID_80368691_JID_7353_neutraal
 ------------------------------
 Charge =  0 Multiplicity = 1

 SCF Done:  E(RB3LYP) =  -799.495029337     A.U. after    1 cycles

  Exact polarizability: 160.931  -7.285 145.057 -10.669 -10.855 114.278
 Approx polarizability: 206.980 -12.952 219.747 -25.085 -26.537 188.765

                      1                      2                      3
                      A                      A                      A
 Frequencies --     29.3690                35.9624                48.3117
 Red. masses --      3.6289                 4.3413                 4.1842
 Frc consts  --      0.0018                 0.0033                 0.0058
 IR Inten    --      0.5662                 2.5056                 1.5865

                      4                      5                      6
                      A                      A                      A
 Frequencies --     51.6908                78.0769                92.8982
 Red. masses --      3.9250                 6.6600                 5.3352
 Frc consts  --      0.0062                 0.0239                 0.0271
 IR Inten    --      0.8464                 1.2743                 1.4298

                      7                      8                      9
                      A                      A                      A
 Frequencies --    124.0718               130.9935               198.4921
 Red. masses --      4.3310                 3.5435                 2.9846
 Frc consts  --      0.0393                 0.0358                 0.0693
 IR Inten    --      2.4291                 5.7699                 4.5206

                     10                     11                     12
                      A                      A                      A
 Frequencies --    221.3076               231.8753               238.8322
 Red. masses --      1.5678                 1.3144                 1.4306
 Frc consts  --      0.0452                 0.0416                 0.0481
 IR Inten    --      0.7358                 2.4664                 1.3892

                     13                     14                     15
                      A                      A                      A
 Frequencies --    245.3528               263.9017               282.6007
 Red. masses --      2.6315                 1.6807                 2.1413
 Frc consts  --      0.0933                 0.0690                 0.1008
 IR Inten    --      1.1991                 1.3511                 5.1646

                     16                     17                     18
                      A                      A                      A
 Frequencies --    315.1215               323.3433               366.5371
 Red. masses --      2.6579                 2.6813                 2.5616
 Frc consts  --      0.1555                 0.1652                 0.2028
 IR Inten    --      0.5432                 1.1953                 3.8771

                     19                     20                     21
                      A                      A                      A
 Frequencies --    390.0688               410.6669               432.9236
 Red. masses --      2.5264                 3.6631                 3.4137
 Frc consts  --      0.2265                 0.3640                 0.3770
 IR Inten    --      1.1467                 4.4404                 0.6250

                     22                     23                     24
                      A                      A                      A
 Frequencies --    476.3351               488.4151               555.3877
 Red. masses --      2.9768                 3.2726                 3.7414
 Frc consts  --      0.3979                 0.4600                 0.6799
 IR Inten    --      1.1196                 0.1577                 5.2061

                     25                     26                     27
                      A                      A                      A
 Frequencies --    577.4920               599.4511               656.3756
 Red. masses --      1.4640                 1.3297                 3.3547
 Frc consts  --      0.2877                 0.2815                 0.8515
 IR Inten    --     82.0787                19.2395                11.0753

                     28                     29                     30
                      A                      A                      A
 Frequencies --    682.3315               703.1034               716.7485
 Red. masses --      3.5543                 4.0462                 3.8638
 Frc consts  --      0.9750                 1.1785                 1.1695
 IR Inten    --      5.7771                60.1315                49.4623

                     31                     32                     33
                      A                      A                      A
 Frequencies --    761.5431               806.5896               840.9875
 Red. masses --      4.5005                11.0226                 3.6325
 Frc consts  --      1.5378                 4.2251                 1.5137
 IR Inten    --      1.5594                 2.1992                10.6224

                     34                     35                     36
                      A                      A                      A
 Frequencies --    891.2276               902.6627               921.1722
 Red. masses --      2.0772                 2.5934                 1.9412
 Frc consts  --      0.9721                 1.2450                 0.9705
 IR Inten    --      8.5489                 0.0801                 8.3595

                     37                     38                     39
                      A                      A                      A
 Frequencies --    932.2926               950.8619               981.8169
 Red. masses --      1.5933                 1.1353                 1.5839
 Frc consts  --      0.8160                 0.6048                 0.8996
 IR Inten    --     22.3430                 0.9841                 0.5355

                     40                     41                     42
                      A                      A                      A
 Frequencies --    994.0781              1011.5780              1019.8749
 Red. masses --      2.0865                 3.2007                 2.3144
 Frc consts  --      1.2148                 1.9297                 1.4184
 IR Inten    --      5.1314                 1.7214                 9.5247

                     43                     44                     45
                      A                      A                      A
 Frequencies --   1029.4587              1035.6748              1056.6096
 Red. masses --      4.1505                 2.5297                 3.1980
 Frc consts  --      2.5916                 1.5987                 2.1035
 IR Inten    --     48.4347                20.4597                23.4457

                     46                     47                     48
                      A                      A                      A
 Frequencies --   1098.0938              1131.6544              1134.1747
 Red. masses --      2.9685                 2.2753                 1.8944
 Frc consts  --      2.1089                 1.7168                 1.4358
 IR Inten    --     40.8552                 6.6142                22.1161

                     49                     50                     51
                      A                      A                      A
 Frequencies --   1164.4323              1168.7885              1176.1836
 Red. masses --      1.0675                 4.0088                 1.3167
 Frc consts  --      0.8528                 3.2265                 1.0732
 IR Inten    --      0.3396                34.7583                 2.1037

                     52                     53                     54
                      A                      A                      A
 Frequencies --   1195.3032              1200.2420              1239.2312
 Red. masses --      2.5429                 1.8636                 2.7034
 Frc consts  --      2.1406                 1.5817                 2.4461
 IR Inten    --      3.6743                 0.5686                31.6469

                     55                     56                     57
                      A                      A                      A
 Frequencies --   1254.8020              1290.5397              1314.8086
 Red. masses --      2.1820                 2.7397                 2.9044
 Frc consts  --      2.0242                 2.6884                 2.9582
 IR Inten    --     13.4337                79.8033                22.6926

                     58                     59                     60
                      A                      A                      A
 Frequencies --   1318.0218              1344.8962              1346.9598
 Red. masses --      1.3022                 1.6061                 1.3595
 Frc consts  --      1.3328                 1.7116                 1.4532
 IR Inten    --      1.7241                28.9918                 1.4386

                     61                     62                     63
                      A                      A                      A
 Frequencies --   1384.9337              1405.8084              1410.0115
 Red. masses --      2.0068                 1.7257                 1.8518
 Frc consts  --      2.2678                 2.0095                 2.1692
 IR Inten    --     52.9340                 5.7223                 7.5176

                     64                     65                     66
                      A                      A                      A
 Frequencies --   1418.7677              1429.6813              1444.5209
 Red. masses --      1.5876                 1.2324                 1.2991
 Frc consts  --      1.8828                 1.4841                 1.5972
 IR Inten    --     11.3771                 1.4849                 4.3317

                     67                     68                     69
                      A                      A                      A
 Frequencies --   1452.4108              1472.0041              1500.7297
 Red. masses --      1.2415                 3.1939                 1.7404
 Frc consts  --      1.5430                 4.0774                 2.3094
 IR Inten    --     10.8341                46.0038                 4.9826

                     70                     71                     72
                      A                      A                      A
 Frequencies --   1511.6686              1517.3085              1522.4417
 Red. masses --      1.6639                 1.0441                 1.0565
 Frc consts  --      2.2402                 1.4163                 1.4428
 IR Inten    --     32.5193                 0.6760                 7.5883

                     73                     74                     75
                      A                      A                      A
 Frequencies --   1523.7789              1529.7787              1532.0880
 Red. masses --      1.1655                 1.3964                 1.0779
 Frc consts  --      1.5944                 1.9254                 1.4907
 IR Inten    --      8.2913                35.6800                 0.3444

                     76                     77                     78
                      A                      A                      A
 Frequencies --   1532.3598              1539.7790              1544.7406
 Red. masses --      1.0486                 1.0961                 1.1918
 Frc consts  --      1.4507                 1.5312                 1.6755
 IR Inten    --     12.4220                 5.8626                27.5596

                     79                     80                     81
                      A                      A                      A
 Frequencies --   1564.2401              1595.6520              1781.1304
 Red. masses --      1.1148                 4.0324                 8.3634
 Frc consts  --      1.6071                 6.0491                15.6323
 IR Inten    --      4.3967                47.3594               351.4443

                     82                     83                     84
                      A                      A                      A
 Frequencies --   3020.8519              3029.1520              3031.9972
 Red. masses --      1.0586                 1.0835                 1.0657
 Frc consts  --      5.6917                 5.8578                 5.7724
 IR Inten    --     77.3110                20.6963                45.7567

                     85                     86                     87
                      A                      A                      A
 Frequencies --   3041.8123              3051.2883              3053.4223
 Red. masses --      1.0420                 1.0709                 1.0344
 Frc consts  --      5.6804                 5.8745                 5.6820
 IR Inten    --     29.1436                63.4970                21.2070

                     88                     89                     90
                      A                      A                      A
 Frequencies --   3060.2324              3075.5297              3105.3805
 Red. masses --      1.0352                 1.1081                 1.1009
 Frc consts  --      5.7120                 6.1755                 6.2550
 IR Inten    --     20.3698                44.3693                27.0689

                     91                     92                     93
                      A                      A                      A
 Frequencies --   3116.4932              3123.5821              3129.9540
 Red. masses --      1.1019                 1.1032                 1.1035
 Frc consts  --      6.3054                 6.3416                 6.3691
 IR Inten    --     25.3485                26.3941                 1.9201

                     94                     95                     96
                      A                      A                      A
 Frequencies --   3134.8145              3135.1117              3141.2713
 Red. masses --      1.0978                 1.1002                 1.1039
 Frc consts  --      6.3561                 6.3716                 6.4176
 IR Inten    --     46.0352                33.4843                 8.4213

                     97                     98                     99
                      A                      A                      A
 Frequencies --   3175.0808              3592.2745              3646.8352
 Red. masses --      1.0926                 1.0754                 1.0817
 Frc consts  --      6.4898                 8.1763                 8.4759
 IR Inten    --      8.5405                23.4273                69.9475

 - Thermochemistry -
 -------------------
 Temperature   298.150 Kelvin.  Pressure   1.00000 Atm.
 Atom     1 has atomic number  6 and mass  12.00000

 Molecular mass:   238.14298 amu.
 Principal axes and moments of inertia in atomic units:
                           1         2         3
     Eigenvalues --  2875.799724801.248546610.44801
           X            0.99988  -0.01403   0.00642
           Y            0.01411   0.99984  -0.01143
           Z           -0.00626   0.01152   0.99991
 This molecule is an asymmetric top.
 Rotational symmetry number  1.
 Warning -- assumption of classical behavior for rotation
           may cause significant error
 Rotational temperatures (Kelvin)      0.03012     0.01804     0.01310
 Rotational constants (GHZ):           0.62756     0.37589     0.27301
 Zero-point vibrational energy     782127.6 (Joules/Mol)
                                  186.93297 (Kcal/Mol)
 Warning -- explicit consideration of  26 degrees of freedom as
           vibrations may cause significant error
 Vibrational temperatures:     42.26    51.74    69.51    74.37   112.34
          (Kelvin)            133.66   178.51   188.47   285.59   318.41
                              333.62   343.63   353.01   379.70   406.60
                              453.39   465.22   527.37   561.22   590.86
                              622.88   685.34   702.72   799.08   830.88
                              862.48   944.38   981.72  1011.61  1031.24
                             1095.69  1160.50  1209.99  1282.28  1298.73
                             1325.36  1341.36  1368.08  1412.62  1430.26
                             1455.44  1467.37  1481.16  1490.10  1520.23
                             1579.91  1628.20  1631.82  1675.36  1681.63
                             1692.27  1719.77  1726.88  1782.98  1805.38
                             1856.80  1891.72  1896.34  1935.01  1937.97
                             1992.61  2022.64  2028.69  2041.29  2056.99
                             2078.34  2089.70  2117.89  2159.22  2174.95
                             2183.07  2190.45  2192.38  2201.01  2204.33
                             2204.72  2215.40  2222.54  2250.59  2295.79
                             2562.65  4346.33  4358.27  4362.37  4376.49
                             4390.12  4393.19  4402.99  4425.00  4467.95
                             4483.94  4494.14  4503.31  4510.30  4510.73
                             4519.59  4568.23  5168.48  5246.98

 Zero-point correction=                           0.297897 (Hartree/Particle)
 Thermal correction to Energy=                    0.315112
 Thermal correction to Enthalpy=                  0.316056
 Thermal correction to Gibbs Free Energy=         0.251565
 Sum of electronic and zero-point Energies=           -799.197133
 Sum of electronic and thermal Energies=              -799.179918
 Sum of electronic and thermal Enthalpies=            -799.178974
 Sum of electronic and thermal Free Energies=         -799.243464

                     E (Thermal)             CV                S
                      KCal/Mol        Cal/Mol-Kelvin    Cal/Mol-Kelvin
 Total                  197.735             63.801            135.732
 Electronic               0.000              0.000              0.000
 Translational            0.889              2.981             42.304
 Rotational               0.889              2.981             32.879
 Vibrational            195.958             57.839             60.549
 Vibration     1          0.593              1.984              5.872
 Vibration     2          0.594              1.982              5.470
 Vibration     3          0.595              1.978              4.885
 Vibration     4          0.596              1.977              4.752
 Vibration     5          0.599              1.964              3.939
 Vibration     6          0.602              1.954              3.598
 Vibration     7          0.610              1.929              3.036
 Vibration     8          0.612              1.922              2.931
 Vibration     9          0.637              1.842              2.147
 Vibration    10          0.648              1.809              1.948
 Vibration    11          0.653              1.792              1.864
 Vibration    12          0.657              1.781              1.812
 Vibration    13          0.660              1.770              1.764
 Vibration    14          0.670              1.739              1.636
 Vibration    15          0.682              1.706              1.518
 Vibration    16          0.702              1.645              1.335
 Vibration    17          0.708              1.629              1.293
 Vibration    18          0.739              1.541              1.094
 Vibration    19          0.758              1.491              1.000
 Vibration    20          0.775              1.447              0.924
 Vibration    21          0.794              1.398              0.849
 Vibration    22          0.833              1.303              0.720
 Vibration    23          0.844              1.276              0.688
 Vibration    24          0.911              1.128              0.533
 Vibration    25          0.934              1.080              0.490
 Vibration    26          0.958              1.033              0.451

 Optimization completed.
    -- Stationary point found.
 Normal termination of Gaussian 16 at Fri Dec 11 12:56:44 2020.

 ----------------------------------------------------------------------
 # B3LYP/6-311++G(d,p) empiricaldispersion=gd3bj scf=xqc pop=npa geom=c
 heck
 ----------------------------------------------------------------------

 --------------------------------------
 CID_80368691_JID_7353_Energie_neutraal
 --------------------------------------
 Structure from the checkpoint file:  "JID_7353.chk"
 Charge =  0 Multiplicity = 1

 SCF Done:  E(RB3LYP) =  -799.722416078     A.U. after   16 cycles
 Normal termination of Gaussian 16 at Fri Dec 11 13:04:36 2020.

 ----------------------------------------------------------------------
 # B3LYP/6-311++G(d,p) empiricaldispersion=gd3bj scf=xqc pop=npa geom=c
 heck
 ----------------------------------------------------------------------

 ------------------------------------
 CID_80368691_JID_7353_Energie_kation
 ------------------------------------
 Structure from the checkpoint file:  "JID_7353.chk"
 Charge =  1 Multiplicity = 2

 SCF Done:  E(UB3LYP) =  -799.404548237     A.U. after   33 cycles
 SCF Done:  E(UB3LYP) =  -799.404548237     a.u. after    1 cycles
 Normal termination of Gaussian 16 at Fri Dec 11 13:27:45 2020.
 Gaussian 16:  ES64L-G16RevA.03 25-Dec-2016

 ----------------------------------------------------------------------
 # B3LYP/6-311++G(d,p) empiricaldispersion=gd3bj scf=xqc pop=npa geom=c
 heck
 ----------------------------------------------------------------------

 -----------------------------------
 CID_80368691_JID_7353_Energie_anion
 -----------------------------------
 Structure from the checkpoint file:  "JID_7353.chk"
 Charge = -1 Multiplicity = 2

                         Standard orientation:
 ---------------------------------------------------------------------
 Center     Atomic      Atomic             Coordinates (Angstroms)
 Number     Number       Type             X           Y           Z
 ---------------------------------------------------------------------
      1          6           0        4.213035   -0.574619    0.923664
      2          6           0        3.091285   -0.961691   -0.058542
      3          6           0        2.342502   -2.221755    0.404504
      4          6           0        2.123264    0.169831   -0.233249
      5          7           0        1.071817    0.431228    0.526485
      6          6           0        0.496756    1.525098   -0.064065
      7          7           0        1.141136    1.970551   -1.138798
      8          7           0        2.169357    1.093192   -1.226722
      9          6           0       -0.785938    2.173793    0.359075
     10          8           0       -0.992400    3.360064    0.139114
     11          7           0       -1.724668    1.387869    0.979779
     12          6           0       -1.766626   -0.055894    1.183463
     13          6           0       -2.447661   -0.848706    0.054095
     14          6           0       -2.085661   -2.350965    0.164559
     15          8           0       -1.105918   -2.238087   -0.891959
     16          6           0       -1.606745   -0.925529   -1.243108
     17          6           0       -3.917413   -0.487576   -0.105626
     18          1           0        3.790156   -0.345257    1.907229
     19          1           0        4.766439    0.305275    0.577959
     20          1           0        4.920386   -1.403142    1.036463
     21          1           0        3.544418   -1.159819   -1.040226
     22          1           0        1.945177   -2.069528    1.412821
     23          1           0        1.496585   -2.451010   -0.250819
     24          1           0        3.025249   -3.077659    0.426625
     25          1           0        2.831438    1.180288   -1.985083
     26          1           0       -2.563945    1.916581    1.184608
     27          1           0       -2.311530   -0.239987    2.118218
     28          1           0       -0.746887   -0.410938    1.319203
     29          1           0       -1.636884   -2.686242    1.107985
     30          1           0       -2.904037   -3.031331   -0.110545
     31          1           0       -2.218058   -0.961635   -2.155871
     32          1           0       -0.803147   -0.197849   -1.377748
     33          1           0       -4.390907   -1.086062   -0.891402
     34          1           0       -4.469866   -0.657542    0.827222
     35          1           0       -4.032320    0.568239   -0.377691
 ---------------------------------------------------------------------

 SCF Done:  E(UB3LYP) =  -799.715724524     A.U. after   33 cycles
 SCF Done:  E(UB3LYP) =  -799.715724524     a.u. after    1 cycles

 The electronic state is 2-A.
 Alpha  occ. eigenvalues --  -19.03485 -18.99733 -14.30654 -14.25585 -14.25016
 Alpha  occ. eigenvalues --  -14.21864 -10.19024 -10.15782 -10.14001 -10.13425
 Alpha  occ. eigenvalues --  -10.12941 -10.11695 -10.10615 -10.10422 -10.08152
 Alpha  occ. eigenvalues --  -10.07663 -10.06934  -0.99412  -0.95968  -0.94884
 Alpha  occ. eigenvalues --   -0.83735  -0.81216  -0.76188  -0.71391  -0.70018
 Alpha  occ. eigenvalues --   -0.61796  -0.60843  -0.60029  -0.59233  -0.57227
 Alpha  occ. eigenvalues --   -0.56140  -0.50753  -0.48085  -0.46206  -0.45453
 Alpha  occ. eigenvalues --   -0.42437  -0.40655  -0.39634  -0.38727  -0.37832
 Alpha  occ. eigenvalues --   -0.37130  -0.36480  -0.35727  -0.33264  -0.32816
 Alpha  occ. eigenvalues --   -0.32165  -0.32068  -0.31519  -0.31224  -0.30389
 Alpha  occ. eigenvalues --   -0.29877  -0.28271  -0.27492  -0.26079  -0.25843
 Alpha  occ. eigenvalues --   -0.23706  -0.23417  -0.22365  -0.21347  -0.19682
 Alpha  occ. eigenvalues --   -0.18273  -0.17605  -0.16593  -0.16340   0.03676
 Alpha virt. eigenvalues --    0.04929   0.06015   0.06902   0.07139   0.07732
 Alpha virt. eigenvalues --    0.08394   0.08708   0.09509   0.09961   0.10169
 Alpha virt. eigenvalues --    0.10683   0.10938   0.11045   0.11471   0.12035

  Beta  occ. eigenvalues --  -19.03481 -18.99724 -14.30596 -14.25586 -14.25010
  Beta  occ. eigenvalues --  -14.21849 -10.19017 -10.15783 -10.14000 -10.13413
  Beta  occ. eigenvalues --  -10.12932 -10.11681 -10.10616 -10.10395 -10.08118
  Beta  occ. eigenvalues --  -10.07632 -10.06923  -0.99378  -0.95960  -0.94866
  Beta  occ. eigenvalues --   -0.83716  -0.81168  -0.76144  -0.71374  -0.69974
  Beta  occ. eigenvalues --   -0.61756  -0.60817  -0.59982  -0.59185  -0.57184
  Beta  occ. eigenvalues --   -0.56073  -0.50685  -0.48048  -0.46170  -0.45392
  Beta  occ. eigenvalues --   -0.42417  -0.40625  -0.39602  -0.38691  -0.37799
  Beta  occ. eigenvalues --   -0.37096  -0.36459  -0.35676  -0.33238  -0.32785
  Beta  occ. eigenvalues --   -0.32136  -0.32041  -0.31500  -0.31190  -0.30361
  Beta  occ. eigenvalues --   -0.29853  -0.28240  -0.27463  -0.26048  -0.25790
  Beta  occ. eigenvalues --   -0.23675  -0.23398  -0.22340  -0.21303  -0.19668
  Beta  occ. eigenvalues --   -0.18258  -0.17589  -0.16580  -0.16323
  Beta virt. eigenvalues --    0.05794   0.06065   0.06521   0.07571   0.07634
  Beta virt. eigenvalues --    0.08375   0.08715   0.08950   0.09706   0.10128
  Beta virt. eigenvalues --    0.10349   0.10811   0.11311   0.11523   0.11798

 Mulliken charges and spin densities:
               1          2
     1  C    0.457476  -1.019734
     2  C   -0.557456   0.669568
     3  C   -0.222760  -0.455889
     4  C    0.923058  -1.048877
     5  N    0.160681  -0.047838
     6  C   -0.088797  -0.229198
     7  N    0.015863   0.009497
     8  N    0.087925  -0.141955
     9  C   -0.112048   0.291850
    10  O   -0.327163   0.009044
    11  N   -0.158304   0.007236
    12  C   -0.825757  -0.313521
    13  C   -0.320432   1.301819
    14  C   -0.115617  -0.256040
    15  O   -0.150410   0.017330
    16  C   -0.349103  -0.143031
    17  C    1.455499  -1.927421
    18  H    0.093431   0.059409
    19  H   -0.169477   0.314938
    20  H   -0.216112   0.378295
    21  H   -0.644277   0.837697
    22  H    0.068661   0.086978
    23  H    0.249903  -0.075475
    24  H   -0.048332   0.195509
    25  H   -0.318532   0.682088
    26  H    0.175232   0.149462
    27  H   -0.456504   0.627415
    28  H    0.610057  -0.338942
    29  H    0.014376   0.164128
    30  H   -0.117455   0.259663
    31  H   -0.039077   0.207438
    32  H    0.222168  -0.037064
    33  H   -0.122061   0.261696
    34  H   -0.304440   0.468460
    35  H    0.129782   0.035464
 Sum of Mulliken charges =  -1.00000   1.00000

 Dipole moment (field-independent basis, Debye):
    X=             -2.9843    Y=             -2.0199    Z=              2.4149  Tot=              4.3379
 Quadrupole moment (field-independent basis, Debye-Ang):
   XX=           -186.4894   YY=           -156.4205   ZZ=           -138.0896
   XY=              0.1349   XZ=             16.4585   YZ=              1.9270

 Summary of Natural Population Analysis:

                                       Natural Population
                Natural  -----------------------------------------------
    Atom  No    Charge         Core      Valence    Rydberg      Total
 -----------------------------------------------------------------------
      C    1   -0.27726      0.99964     2.27153    0.00609     3.27726
      C    2   -0.13516      0.99958     2.12429    0.01129     3.13516
      C    3   -0.28311      0.99965     2.27701    0.00645     3.28311
      C    4    0.20901      0.99959     1.77324    0.01816     2.79099
      N    5   -0.27160      0.99967     2.76350    0.00844     3.77160
      C    6    0.11931      0.99959     1.86244    0.01866     2.88069
      N    7   -0.13552      0.99971     2.62404    0.01177     3.63552
      N    8   -0.16863      0.99964     2.65628    0.01271     3.66863
      C    9    0.32315      0.99961     1.65557    0.02167     2.67685
      O   10   -0.30887      0.99988     3.30382    0.00517     4.30887
      N   11   -0.31284      0.99968     2.80357    0.00959     3.81284
      C   12   -0.09620      0.99955     2.08398    0.01267     3.09620
      C   13   -0.06958      0.99956     2.05788    0.01215     3.06958
      C   14    0.00255      0.99958     1.98563    0.01225     2.99745
      O   15   -0.30372      0.99991     3.29585    0.00795     4.30372
      C   16    0.00168      0.99956     1.98784    0.01092     2.99832
      C   17   -0.28930      0.99962     2.28277    0.00691     3.28930
      H   18    0.09929      0.00000     0.39983    0.00089     0.40071
      H   19    0.10323      0.00000     0.39557    0.00120     0.39677
      H   20    0.10080      0.00000     0.39821    0.00099     0.39920
      H   21    0.10807      0.00000     0.38684    0.00508     0.39193
      H   22    0.10069      0.00000     0.39831    0.00100     0.39931
      H   23    0.11207      0.00000     0.38626    0.00167     0.38793
      H   24    0.09760      0.00000     0.40164    0.00076     0.40240
      H   25    0.21223      0.00000     0.27882    0.00895     0.28777
      H   26    0.19327      0.00000     0.30433    0.00240     0.30673
      H   27    0.09798      0.00000     0.40078    0.00124     0.40202
      H   28    0.12351      0.00000     0.37406    0.00243     0.37649
      H   29    0.08553      0.00000     0.41322    0.00125     0.41447
      H   30    0.08206      0.00000     0.41649    0.00145     0.41794
      H   31    0.08081      0.00000     0.41793    0.00126     0.41919
      H   32    0.09130      0.00000     0.40690    0.00180     0.40870
      H   33    0.10202      0.00000     0.39679    0.00118     0.39798
      H   34    0.10316      0.00000     0.39525    0.00159     0.39684
      H   35    0.10248      0.00000     0.39634    0.00118     0.39752
 =======================================================================
   * Total *    0.00000     16.99402    46.77682    0.22916    64.00000

 Normal termination of Gaussian 16 at Fri Dec 11 13:50:44 2020.
