 Gaussian 16, Revision A.03,

 -----------------------------------------------------------
 # opt freq B3LYP/6-31G(d) empiricaldispersion=gd3bj scf=xqc
 -----------------------------------------------------------

 ------------------------------
 CID_142010210_JID_144_neutraal
 ------------------------------
 Symbolic Z-matrix:
 Charge =  0 Multiplicity = 1

 SCF Done:  E(RB3LYP) =  -474.741899000     A.U. after   15 cycles
 SCF Done:  E(RB3LYP) =  -474.745352667     A.U. after   13 cycles
 SCF Done:  E(RB3LYP) =  -474.746084327     A.U. after   13 cycles
 SCF Done:  E(RB3LYP) =  -474.748051429     A.U. after   12 cycles
 SCF Done:  E(RB3LYP) =  -474.749244212     A.U. after   13 cycles
 SCF Done:  E(RB3LYP) =  -474.749871211     A.U. after   12 cycles
 SCF Done:  E(RB3LYP) =  -474.750137005     A.U. after   12 cycles
 SCF Done:  E(RB3LYP) =  -474.750231784     A.U. after   12 cycles
 SCF Done:  E(RB3LYP) =  -474.750285766     A.U. after   12 cycles
 SCF Done:  E(RB3LYP) =  -474.750331145     A.U. after   12 cycles
 SCF Done:  E(RB3LYP) =  -474.750392383     A.U. after    8 cycles
 SCF Done:  E(RB3LYP) =  -474.750394000     A.U. after    9 cycles
 SCF Done:  E(RB3LYP) =  -474.750394799     A.U. after    8 cycles
 SCF Done:  E(RB3LYP) =  -474.750395551     A.U. after    9 cycles
 SCF Done:  E(RB3LYP) =  -474.750395811     A.U. after    8 cycles
 SCF Done:  E(RB3LYP) =  -474.750395908     A.U. after    8 cycles
 Optimization completed.
    -- Stationary point found.
 Normal termination of Gaussian 16 at Tue Dec  8 10:20:18 2020.

 --------------------------------------------------------------------
 #N Geom=AllCheck Guess=TCheck SCRF=Check GenChk RB3LYP/6-31G(d) Freq
 --------------------------------------------------------------------

 Structure from the checkpoint file:  "JID_144.chk"
 ------------------------------
 CID_142010210_JID_144_neutraal
 ------------------------------
 Charge =  0 Multiplicity = 1

 SCF Done:  E(RB3LYP) =  -474.750395908     A.U. after    1 cycles

  Exact polarizability: 119.488  16.343  95.608  -2.970   0.423  57.346
 Approx polarizability: 165.593  42.689 153.310  -9.081  -5.618  91.583

                      1                      2                      3
                      A                      A                      A
 Frequencies --     40.9202                62.0752                83.7405
 Red. masses --      3.8040                 2.2470                 1.3925
 Frc consts  --      0.0038                 0.0051                 0.0058
 IR Inten    --      3.8018                 3.3082                 2.2495

                      4                      5                      6
                      A                      A                      A
 Frequencies --     97.1349               149.0649               156.7921
 Red. masses --      1.2439                 2.5477                 4.9976
 Frc consts  --      0.0069                 0.0334                 0.0724
 IR Inten    --      1.8479                 6.3244                 1.2638

                      7                      8                      9
                      A                      A                      A
 Frequencies --    229.9180               283.2997               300.1511
 Red. masses --      3.6275                 2.4071                 3.1193
 Frc consts  --      0.1130                 0.1138                 0.1656
 IR Inten    --      3.7625                16.7153                 3.7272

                     10                     11                     12
                      A                      A                      A
 Frequencies --    339.5767               377.7080               421.7722
 Red. masses --      2.7017                 3.0924                 2.5194
 Frc consts  --      0.1836                 0.2599                 0.2641
 IR Inten    --      4.5113                 2.3525                74.0153

                     13                     14                     15
                      A                      A                      A
 Frequencies --    437.8963               462.6120               499.2600
 Red. masses --      1.8007                 1.4940                 2.1055
 Frc consts  --      0.2034                 0.1884                 0.3092
 IR Inten    --     94.8073                45.1596                42.0013

                     16                     17                     18
                      A                      A                      A
 Frequencies --    536.3606               589.7149               644.4249
 Red. masses --      3.1581                 2.0388                 2.5456
 Frc consts  --      0.5353                 0.4178                 0.6229
 IR Inten    --     17.8962                19.9964                67.9988

                     19                     20                     21
                      A                      A                      A
 Frequencies --    653.4855               703.2032               722.7900
 Red. masses --      1.8755                 1.5759                 2.5187
 Frc consts  --      0.4719                 0.4591                 0.7753
 IR Inten    --     80.2053               171.6180                23.4527

                     22                     23                     24
                      A                      A                      A
 Frequencies --    792.4775               919.2233               940.5885
 Red. masses --      6.1087                 3.3670                 1.3130
 Frc consts  --      2.2603                 1.6762                 0.6844
 IR Inten    --     29.9799                 0.9625                22.1996

                     25                     26                     27
                      A                      A                      A
 Frequencies --   1036.6414              1051.1898              1067.8577
 Red. masses --      1.8316                 1.8461                 2.5718
 Frc consts  --      1.1597                 1.2019                 1.7279
 IR Inten    --      8.9364                13.5809                 3.8572

                     28                     29                     30
                      A                      A                      A
 Frequencies --   1107.8801              1118.9180              1160.2488
 Red. masses --      1.4043                 1.7185                 1.7935
 Frc consts  --      1.0155                 1.2677                 1.4225
 IR Inten    --      1.8663                16.5113                63.3770

                     31                     32                     33
                      A                      A                      A
 Frequencies --   1167.5387              1261.1522              1317.5303
 Red. masses --      1.5420                 2.6407                 3.5895
 Frc consts  --      1.2384                 2.4746                 3.6712
 IR Inten    --      1.3146                68.0165                33.6355

                     34                     35                     36
                      A                      A                      A
 Frequencies --   1377.9475              1415.1209              1430.6388
 Red. masses --      1.9778                 1.5802                 1.6370
 Frc consts  --      2.2126                 1.8644                 1.9740
 IR Inten    --    153.6216                15.4945                72.8637

                     37                     38                     39
                      A                      A                      A
 Frequencies --   1457.3175              1506.1184              1510.5171
 Red. masses --      1.1829                 1.0706                 1.0630
 Frc consts  --      1.4802                 1.4309                 1.4290
 IR Inten    --     39.4909                 3.3901                 4.8784

                     40                     41                     42
                      A                      A                      A
 Frequencies --   1532.3420              1539.7308              1643.7329
 Red. masses --      1.0643                 1.0484                 1.2012
 Frc consts  --      1.4724                 1.4644                 1.9122
 IR Inten    --     10.3854                 9.4397                76.4852

                     43                     44                     45
                      A                      A                      A
 Frequencies --   1650.2383              1696.8898              1716.6974
 Red. masses --      1.3958                 7.4015                 2.8886
 Frc consts  --      2.2396                12.5568                 5.0156
 IR Inten    --     11.8574               194.8667               217.2337

                     46                     47                     48
                      A                      A                      A
 Frequencies --   1809.8742              2993.2964              3040.3586
 Red. masses --      9.1229                 1.0404                 1.0998
 Frc consts  --     17.6068                 5.4921                 5.9897
 IR Inten    --    275.7379                74.4098                41.0926

                     49                     50                     51
                      A                      A                      A
 Frequencies --   3050.1698              3107.8733              3115.9540
 Red. masses --      1.0441                 1.0961                 1.0949
 Frc consts  --      5.7231                 6.2379                 6.2636
 IR Inten    --     12.8199                10.0234                46.8013

                     52                     53                     54
                      A                      A                      A
 Frequencies --   3153.0344              3195.0499              3533.0932
 Red. masses --      1.0990                 1.0885                 1.0468
 Frc consts  --      6.4375                 6.5470                 7.6988
 IR Inten    --     17.0523                13.8638                25.6863

                     55                     56                     57
                      A                      A                      A
 Frequencies --   3540.8444              3650.4010              3665.1232
 Red. masses --      1.0484                 1.1008                 1.0991
 Frc consts  --      7.7441                 8.6424                 8.6991
 IR Inten    --     36.3053                17.5079                31.5075

 - Thermochemistry -
 -------------------
 Temperature   298.150 Kelvin.  Pressure   1.00000 Atm.
 Atom     1 has atomic number  6 and mass  12.00000

 Molecular mass:   141.09021 amu.
 Principal axes and moments of inertia in atomic units:
                           1         2         3
     Eigenvalues --   955.735771855.501332518.27523
           X            0.99997  -0.00475  -0.00591
           Y            0.00496   0.99938   0.03499
           Z            0.00574  -0.03502   0.99937
 This molecule is an asymmetric top.
 Rotational symmetry number  1.
 Warning -- assumption of classical behavior for rotation
           may cause significant error
 Rotational temperatures (Kelvin)      0.09063     0.04668     0.03439
 Rotational constants (GHZ):           1.88833     0.97264     0.71666
 Zero-point vibrational energy     460954.1 (Joules/Mol)
                                  110.17068 (Kcal/Mol)
 Warning -- explicit consideration of  17 degrees of freedom as
           vibrations may cause significant error
 Vibrational temperatures:     58.87    89.31   120.48   139.76   214.47
          (Kelvin)            225.59   330.80   407.61   431.85   488.58
                              543.44   606.84   630.04   665.60   718.32
                              771.70   848.47   927.18   940.22  1011.75
                             1039.93  1140.20  1322.56  1353.30  1491.50
                             1512.43  1536.41  1593.99  1609.87  1669.34
                             1679.83  1814.52  1895.63  1982.56  2036.04
                             2058.37  2096.75  2166.97  2173.30  2204.70
                             2215.33  2364.96  2374.32  2441.45  2469.94
                             2604.01  4306.69  4374.40  4388.51  4471.54
                             4483.16  4536.51  4596.96  5083.33  5094.49
                             5252.11  5273.29

 Zero-point correction=                           0.175568 (Hartree/Particle)
 Thermal correction to Energy=                    0.187253
 Thermal correction to Enthalpy=                  0.188197
 Thermal correction to Gibbs Free Energy=         0.137601
 Sum of electronic and zero-point Energies=           -474.574828
 Sum of electronic and thermal Energies=              -474.563143
 Sum of electronic and thermal Enthalpies=            -474.562199
 Sum of electronic and thermal Free Energies=         -474.612795

                     E (Thermal)             CV                S
                      KCal/Mol        Cal/Mol-Kelvin    Cal/Mol-Kelvin
 Total                  117.503             41.721            106.487
 Electronic               0.000              0.000              0.000
 Translational            0.889              2.981             40.744
 Rotational               0.889              2.981             29.880
 Vibrational            115.725             35.760             35.863
 Vibration     1          0.594              1.981              5.214
 Vibration     2          0.597              1.972              4.390
 Vibration     3          0.601              1.960              3.801
 Vibration     4          0.603              1.951              3.511
 Vibration     5          0.618              1.904              2.684
 Vibration     6          0.620              1.895              2.588
 Vibration     7          0.652              1.795              1.880
 Vibration     8          0.682              1.705              1.514
 Vibration     9          0.693              1.673              1.416
 Vibration    10          0.719              1.596              1.214
 Vibration    11          0.748              1.518              1.048
 Vibration    12          0.784              1.423              0.886
 Vibration    13          0.798              1.388              0.833
 Vibration    14          0.820              1.333              0.759
 Vibration    15          0.855              1.252              0.660
 Vibration    16          0.891              1.170              0.573
 Vibration    17          0.947              1.054              0.468

                           ! Non-Optimized Parameters !
 Normal termination of Gaussian 16 at Tue Dec  8 10:23:27 2020.

 ----------------------------------------------------------------------
 # B3LYP/6-311++G(d,p) empiricaldispersion=gd3bj scf=xqc pop=npa geom=c
 heck
 ----------------------------------------------------------------------

 --------------------------------------
 CID_142010210_JID_144_Energie_neutraal
 --------------------------------------
 Structure from the checkpoint file:  "JID_144.chk"
 Charge =  0 Multiplicity = 1

 SCF Done:  E(RB3LYP) =  -474.903567585     A.U. after   15 cycles
 Normal termination of Gaussian 16 at Tue Dec  8 10:24:35 2020.

 ----------------------------------------------------------------------
 # B3LYP/6-311++G(d,p) empiricaldispersion=gd3bj scf=xqc pop=npa geom=c
 heck
 ----------------------------------------------------------------------

 ------------------------------------
 CID_142010210_JID_144_Energie_kation
 ------------------------------------
 Structure from the checkpoint file:  "JID_144.chk"
 Charge =  1 Multiplicity = 2

 SCF Done:  E(UB3LYP) =  -474.613505450     A.U. after   26 cycles
 Normal termination of Gaussian 16 at Tue Dec  8 10:27:42 2020.
 Gaussian 16:  ES64L-G16RevA.03 25-Dec-2016

 ----------------------------------------------------------------------
 # B3LYP/6-311++G(d,p) empiricaldispersion=gd3bj scf=xqc pop=npa geom=c
 heck
 ----------------------------------------------------------------------

 -----------------------------------
 CID_142010210_JID_144_Energie_anion
 -----------------------------------
 Structure from the checkpoint file:  "JID_144.chk"
 Charge = -1 Multiplicity = 2

                         Standard orientation:
 ---------------------------------------------------------------------
 Center     Atomic      Atomic             Coordinates (Angstroms)
 Number     Number       Type             X           Y           Z
 ---------------------------------------------------------------------
      1          6           0       -1.769383    1.670011    0.420497
      2          6           0       -1.076062    0.379044    0.017364
      3          7           0       -1.698254   -0.671109   -0.378404
      4          6           0       -3.149690   -0.654274   -0.424346
      5          6           0        0.397853    0.306192    0.048065
      6          6           0        1.177789    1.413656   -0.062565
      7          7           0        2.545382    1.467202   -0.197400
      8          6           0        1.006786   -1.055100    0.231494
      9          8           0        0.704145   -1.814000    1.134257
     10          7           0        2.052764   -1.348940   -0.642966
     11          1           0       -2.613696    1.446612    1.081348
     12          1           0       -2.180261    2.189857   -0.454698
     13          1           0       -1.107626    2.355888    0.952104
     14          1           0       -3.591726   -0.556281    0.579457
     15          1           0       -3.551473    0.167187   -1.037734
     16          1           0       -3.503784   -1.597467   -0.850252
     17          1           0        0.706819    2.391999   -0.109182
     18          1           0        3.004374    2.304289    0.133360
     19          1           0        3.051627    0.603684   -0.033946
     20          1           0        1.985942   -0.960788   -1.577236
     21          1           0        2.343640   -2.320226   -0.608937
 ---------------------------------------------------------------------

 SCF Done:  E(UB3LYP) =  -474.894287623     A.U. after   32 cycles

 The electronic state is 2-A.
 Alpha  occ. eigenvalues --  -18.98012 -14.22349 -14.21489 -14.17679 -10.16529
 Alpha  occ. eigenvalues --  -10.10864 -10.10609 -10.08265 -10.06318 -10.05748
 Alpha  occ. eigenvalues --   -0.92983  -0.81692  -0.80408  -0.79102  -0.67218
 Alpha  occ. eigenvalues --   -0.61513  -0.58438  -0.52333  -0.47495  -0.44264
 Alpha  occ. eigenvalues --   -0.42215  -0.39412  -0.38591  -0.35362  -0.34196
 Alpha  occ. eigenvalues --   -0.33480  -0.32575  -0.30293  -0.29755  -0.28842
 Alpha  occ. eigenvalues --   -0.27988  -0.26206  -0.24278  -0.18885  -0.17676
 Alpha  occ. eigenvalues --   -0.15064  -0.13136  -0.10211   0.04511
 Alpha virt. eigenvalues --    0.06954   0.07478   0.08199   0.08984   0.09830
 Alpha virt. eigenvalues --    0.10378   0.10902   0.11134   0.12382   0.12929
 Alpha virt. eigenvalues --    0.13584   0.13939   0.15008   0.16309   0.17292

  Beta  occ. eigenvalues --  -18.97992 -14.22310 -14.21400 -14.17665 -10.16516
  Beta  occ. eigenvalues --  -10.10807 -10.10592 -10.08254 -10.06284 -10.05755
  Beta  occ. eigenvalues --   -0.92948  -0.81593  -0.80367  -0.79033  -0.67152
  Beta  occ. eigenvalues --   -0.61445  -0.58387  -0.52219  -0.47408  -0.44173
  Beta  occ. eigenvalues --   -0.42145  -0.39314  -0.38533  -0.35312  -0.34139
  Beta  occ. eigenvalues --   -0.33431  -0.32515  -0.30239  -0.29712  -0.28805
  Beta  occ. eigenvalues --   -0.27936  -0.26151  -0.24138  -0.18793  -0.17572
  Beta  occ. eigenvalues --   -0.15032  -0.13102  -0.10107
  Beta virt. eigenvalues --    0.06971   0.07612   0.08403   0.08788   0.09781
  Beta virt. eigenvalues --    0.10134   0.10675   0.11377   0.11492   0.12768
  Beta virt. eigenvalues --    0.13418   0.13725   0.14541   0.15360   0.16308

 Mulliken charges and spin densities:
               1          2
     1  C    1.143537  -1.864949
     2  C   -1.082380   0.721838
     3  N   -0.063166   0.097924
     4  C   -0.184250  -0.190373
     5  C    3.040643  -1.918729
     6  C   -0.350632  -0.490173
     7  N   -0.418399   0.132867
     8  C   -0.535029   0.481519
     9  O   -0.315728   0.002076
    10  N   -0.305281  -0.082490
    11  H    0.085693   0.050524
    12  H   -0.330944   0.508055
    13  H    0.041345   0.102268
    14  H    0.038383   0.104084
    15  H    0.006444   0.129219
    16  H    0.052329   0.080005
    17  H   -1.278817   1.498779
    18  H   -0.737715   1.021639
    19  H    0.056103   0.212563
    20  H   -0.006868   0.248711
    21  H    0.144733   0.154644
 Sum of Mulliken charges =  -1.00000   1.00000

 Dipole moment (field-independent basis, Debye):
    X=             -3.9557    Y=             -5.2176    Z=             -0.8414  Tot=              6.6014
 Quadrupole moment (field-independent basis, Debye-Ang):
   XX=           -105.6778   YY=           -112.7403   ZZ=            -85.1013
   XY=            -15.1382   XZ=             -3.1984   YZ=              4.6459

 Summary of Natural Population Analysis:

                                       Natural Population
                Natural  -----------------------------------------------
    Atom  No    Charge         Core      Valence    Rydberg      Total
 -----------------------------------------------------------------------
      C    1   -0.32384      0.99963     2.31781    0.00639     3.32384
      C    2    0.15086      0.99955     1.83422    0.01537     2.84914
      N    3   -0.24844      0.99964     2.73741    0.01139     3.74844
      C    4   -0.19339      0.99964     2.18619    0.00756     3.19339
      C    5   -0.14317      0.99940     2.12864    0.01512     3.14317
      C    6    0.05581      0.99951     1.93135    0.01334     2.94419
      N    7   -0.38640      0.99973     2.87614    0.01053     3.88640
      C    8    0.34773      0.99967     1.62791    0.02470     2.65227
      O    9   -0.30576      0.99987     3.30008    0.00581     4.30576
      N   10   -0.41843      0.99972     2.91037    0.00834     3.91843
      H   11    0.10628      0.00000     0.39264    0.00109     0.39372
      H   12    0.11002      0.00000     0.38825    0.00173     0.38998
      H   13    0.10772      0.00000     0.39108    0.00120     0.39228
      H   14    0.08823      0.00000     0.41021    0.00157     0.41177
      H   15    0.08626      0.00000     0.41207    0.00167     0.41374
      H   16    0.09084      0.00000     0.40789    0.00127     0.40916
      H   17    0.09901      0.00000     0.39703    0.00397     0.40099
      H   18    0.19944      0.00000     0.27645    0.02411     0.30056
      H   19    0.19450      0.00000     0.30240    0.00310     0.30550
      H   20    0.19312      0.00000     0.30439    0.00249     0.30688
      H   21    0.18961      0.00000     0.30840    0.00199     0.31039
 =======================================================================
   * Total *    0.00000      9.99636    27.84090    0.16274    38.00000

 Normal termination of Gaussian 16 at Tue Dec  8 10:31:30 2020.
