 Gaussian 16, Revision A.03,

 -----------------------------------------------------------
 # opt freq B3LYP/6-31G(d) empiricaldispersion=gd3bj scf=xqc
 -----------------------------------------------------------

 ------------------------------
 CID_63933951_JID_9389_neutraal
 ------------------------------
 Symbolic Z-matrix:
 Charge =  0 Multiplicity = 1

 SCF Done:  E(RB3LYP) =  -957.590080687     A.U. after   14 cycles
 SCF Done:  E(RB3LYP) =  -957.594020816     A.U. after   12 cycles
 SCF Done:  E(RB3LYP) =  -957.590394562     A.U. after   14 cycles
 SCF Done:  E(RB3LYP) =  -957.594529790     A.U. after   13 cycles
 SCF Done:  E(RB3LYP) =  -957.595201606     A.U. after   13 cycles
 SCF Done:  E(RB3LYP) =  -957.596122352     A.U. after   12 cycles
 SCF Done:  E(RB3LYP) =  -957.596028478     A.U. after   12 cycles
 SCF Done:  E(RB3LYP) =  -957.598091227     A.U. after   13 cycles
 SCF Done:  E(RB3LYP) =  -957.598662884     A.U. after   13 cycles
 SCF Done:  E(RB3LYP) =  -957.598445279     A.U. after   12 cycles
 SCF Done:  E(RB3LYP) =  -957.603964659     A.U. after   10 cycles
 SCF Done:  E(RB3LYP) =  -957.603968344     A.U. after    9 cycles
 SCF Done:  E(RB3LYP) =  -957.603967604     A.U. after    9 cycles
 SCF Done:  E(RB3LYP) =  -957.603968633     A.U. after    9 cycles
 SCF Done:  E(RB3LYP) =  -957.603968724     A.U. after    7 cycles
 Optimization completed.
    -- Stationary point found.
 Normal termination of Gaussian 16 at Sat Dec 12 10:12:37 2020.

 --------------------------------------------------------------------
 #N Geom=AllCheck Guess=TCheck SCRF=Check GenChk RB3LYP/6-31G(d) Freq
 --------------------------------------------------------------------

 Structure from the checkpoint file:  "JID_9389.chk"
 ------------------------------
 CID_63933951_JID_9389_neutraal
 ------------------------------
 Charge =  0 Multiplicity = 1

 SCF Done:  E(RB3LYP) =  -957.603968724     A.U. after    1 cycles

  Exact polarizability: 195.447 -20.692 127.786   8.455  19.585 143.180
 Approx polarizability: 284.708 -39.303 183.904  23.973  42.356 239.237

                      1                      2                      3
                      A                      A                      A
 Frequencies --     22.9389                37.6983                52.1942
 Red. masses --      4.2815                 5.8567                 3.1472
 Frc consts  --      0.0013                 0.0049                 0.0051
 IR Inten    --      0.2659                 0.1590                 1.8305

                      4                      5                      6
                      A                      A                      A
 Frequencies --     55.6380                60.0733                79.2067
 Red. masses --      3.4871                 8.8285                 3.9775
 Frc consts  --      0.0064                 0.0188                 0.0147
 IR Inten    --      0.1409                 2.9438                 1.3765

                      7                      8                      9
                      A                      A                      A
 Frequencies --    101.8244               109.8328               150.2667
 Red. masses --      4.0282                 4.5454                 5.5157
 Frc consts  --      0.0246                 0.0323                 0.0734
 IR Inten    --      1.7806                 1.0084                 3.6925

                     10                     11                     12
                      A                      A                      A
 Frequencies --    159.4681               161.6174               184.4351
 Red. masses --      3.9730                 2.8873                 3.1725
 Frc consts  --      0.0595                 0.0444                 0.0636
 IR Inten    --      2.4462                 2.1096                 2.5516

                     13                     14                     15
                      A                      A                      A
 Frequencies --    202.3951               247.1108               264.4584
 Red. masses --      2.4702                 1.3682                 4.6579
 Frc consts  --      0.0596                 0.0492                 0.1919
 IR Inten    --      2.0698                 0.2832                 0.4302

                     16                     17                     18
                      A                      A                      A
 Frequencies --    270.4304               299.1374               325.8080
 Red. masses --      1.5509                 2.4665                 4.6791
 Frc consts  --      0.0668                 0.1300                 0.2926
 IR Inten    --      0.4164                 3.7469                 1.4152

                     19                     20                     21
                      A                      A                      A
 Frequencies --    334.2470               348.0798               390.6227
 Red. masses --      2.7871                 6.1654                 4.2076
 Frc consts  --      0.1835                 0.4401                 0.3783
 IR Inten    --     10.4171                 6.0979                 4.2816

                     22                     23                     24
                      A                      A                      A
 Frequencies --    425.7449               433.1150               451.8181
 Red. masses --      2.3265                 1.3894                 2.7255
 Frc consts  --      0.2485                 0.1536                 0.3278
 IR Inten    --      1.3725                34.3540                43.5340

                     25                     26                     27
                      A                      A                      A
 Frequencies --    473.0787               497.5408               503.2285
 Red. masses --      4.8644                 3.3001                 2.9849
 Frc consts  --      0.6414                 0.4813                 0.4454
 IR Inten    --      8.5585                 4.6777                13.9421

                     28                     29                     30
                      A                      A                      A
 Frequencies --    541.5331               556.5674               573.2990
 Red. masses --      3.8125                 2.9579                 5.0871
 Frc consts  --      0.6587                 0.5398                 0.9851
 IR Inten    --     19.8930                23.2646                 7.8118

                     31                     32                     33
                      A                      A                      A
 Frequencies --    624.0371               636.3367               663.2135
 Red. masses --      4.1232                 1.7305                 2.9769
 Frc consts  --      0.9460                 0.4129                 0.7715
 IR Inten    --     58.4529                43.4284                16.1814

                     34                     35                     36
                      A                      A                      A
 Frequencies --    721.3874               730.2535               771.2266
 Red. masses --      4.4503                 4.4320                 4.3151
 Frc consts  --      1.3645                 1.3925                 1.5122
 IR Inten    --     40.8302                18.1955                57.8025

                     37                     38                     39
                      A                      A                      A
 Frequencies --    779.9046               813.1012               844.1059
 Red. masses --      4.3314                 1.1164                 2.3792
 Frc consts  --      1.5523                 0.4349                 0.9988
 IR Inten    --     13.4205                 0.9197                11.5663

                     40                     41                     42
                      A                      A                      A
 Frequencies --    850.9194               895.5325               907.6303
 Red. masses --      1.8202                 2.5814                 1.4514
 Frc consts  --      0.7765                 1.2198                 0.7044
 IR Inten    --     10.5567                 3.6192                18.6095

                     43                     44                     45
                      A                      A                      A
 Frequencies --    929.4265               951.5979               960.3305
 Red. masses --      3.8734                 1.2891                 2.4942
 Frc consts  --      1.9714                 0.6878                 1.3553
 IR Inten    --     29.8540                 0.8444                21.6147

                     46                     47                     48
                      A                      A                      A
 Frequencies --    998.1383              1024.2003              1061.3756
 Red. masses --      3.1529                 3.3523                 2.0383
 Frc consts  --      1.8507                 2.0719                 1.3529
 IR Inten    --     39.2934                16.7013                91.7417

                     49                     50                     51
                      A                      A                      A
 Frequencies --   1075.2426              1101.2906              1126.4065
 Red. masses --      5.2540                 2.4305                 2.5658
 Frc consts  --      3.5789                 1.7368                 1.9181
 IR Inten    --     59.9124                17.9482               122.8909

                     52                     53                     54
                      A                      A                      A
 Frequencies --   1135.8808              1147.5733              1160.5083
 Red. masses --      2.6417                 2.3581                 1.5055
 Frc consts  --      2.0081                 1.8297                 1.1946
 IR Inten    --     63.6904                79.5605                25.3607

                     55                     56                     57
                      A                      A                      A
 Frequencies --   1181.5467              1185.4038              1200.0021
 Red. masses --      2.8888                 1.2709                 1.8694
 Frc consts  --      2.3761                 1.0522                 1.5861
 IR Inten    --     58.3522                 1.0082               337.4221

                     58                     59                     60
                      A                      A                      A
 Frequencies --   1214.9797              1225.0219              1249.3719
 Red. masses --      1.8256                 1.5219                 1.5870
 Frc consts  --      1.5878                 1.3457                 1.4595
 IR Inten    --     22.6484                29.0518                46.2605

                     61                     62                     63
                      A                      A                      A
 Frequencies --   1262.7511              1282.0776              1302.7334
 Red. masses --      1.5613                 1.4670                 1.4782
 Frc consts  --      1.4668                 1.4207                 1.4781
 IR Inten    --     60.0873                29.0778                21.5450

                     64                     65                     66
                      A                      A                      A
 Frequencies --   1308.5860              1335.9076              1344.9443
 Red. masses --      2.0857                 1.6108                 1.1311
 Frc consts  --      2.1043                 1.6937                 1.2055
 IR Inten    --    144.0211               109.5730                13.8058

                     67                     68                     69
                      A                      A                      A
 Frequencies --   1375.1877              1382.1485              1395.2903
 Red. masses --      7.0137                 1.3308                 2.3994
 Frc consts  --      7.8149                 1.4979                 2.7522
 IR Inten    --     15.6453                23.0734               166.3100

                     70                     71                     72
                      A                      A                      A
 Frequencies --   1408.7629              1418.7019              1439.6960
 Red. masses --      1.3467                 1.2430                 1.3251
 Frc consts  --      1.5747                 1.4740                 1.6183
 IR Inten    --     24.1255                 0.2149                31.5560

                     73                     74                     75
                      A                      A                      A
 Frequencies --   1444.2313              1451.8498              1465.0657
 Red. masses --      1.3307                 1.3845                 2.7468
 Frc consts  --      1.6353                 1.7194                 3.4737
 IR Inten    --     48.8950                20.2462               144.0198

                     76                     77                     78
                      A                      A                      A
 Frequencies --   1507.9243              1518.1530              1519.2031
 Red. masses --      1.3482                 1.0623                 1.1561
 Frc consts  --      1.8063                 1.4426                 1.5721
 IR Inten    --      9.8195                 3.8340                14.6748

                     79                     80                     81
                      A                      A                      A
 Frequencies --   1519.9209              1521.1673              1533.5793
 Red. masses --      1.0728                 1.0562                 1.0723
 Frc consts  --      1.4602                 1.4400                 1.4859
 IR Inten    --      4.6033                 4.8100                36.1454

                     82                     83                     84
                      A                      A                      A
 Frequencies --   1537.0921              1553.4895              1562.3446
 Red. masses --      1.0695                 1.0900                 2.8643
 Frc consts  --      1.4888                 1.5499                 4.1193
 IR Inten    --      4.5566                 4.0563               102.5266

                     85                     86                     87
                      A                      A                      A
 Frequencies --   1632.8978              1658.2174              1814.3358
 Red. masses --      7.4697                 5.8580                 9.6376
 Frc consts  --     11.7346                 9.4903                18.6920
 IR Inten    --     20.8945                86.3030               302.8655

                     88                     89                     90
                      A                      A                      A
 Frequencies --   3016.6124              3026.0946              3036.1504
 Red. masses --      1.0568                 1.0661                 1.0339
 Frc consts  --      5.6662                 5.7520                 5.6152
 IR Inten    --     28.4852                31.6047                43.2540

                     91                     92                     93
                      A                      A                      A
 Frequencies --   3048.6349              3055.4695              3073.0475
 Red. masses --      1.0902                 1.0454                 1.0906
 Frc consts  --      5.9701                 5.7501                 6.0679
 IR Inten    --     12.2872                30.5246                62.1011

                     94                     95                     96
                      A                      A                      A
 Frequencies --   3095.2888              3099.3433              3113.1350
 Red. masses --      1.0972                 1.1070                 1.0677
 Frc consts  --      6.1938                 6.2655                 6.0967
 IR Inten    --     10.4027                34.1901                53.8220

                     97                     98                     99
                      A                      A                      A
 Frequencies --   3122.8444              3132.1079              3167.3449
 Red. masses --      1.1011                 1.1039                 1.1010
 Frc consts  --      6.3268                 6.3808                 6.5076
 IR Inten    --     33.2659                35.0433                20.5027

                    100                    101                    102
                      A                      A                      A
 Frequencies --   3208.1676              3210.5120              3241.5919
 Red. masses --      1.0897                 1.0997                 1.0929
 Frc consts  --      6.6081                 6.6783                 6.7662
 IR Inten    --      8.4502                 4.7810                 1.3563

                    103                    104                    105
                      A                      A                      A
 Frequencies --   3249.3534              3702.7706              3707.9027
 Red. masses --      1.0894                 1.0642                 1.0653
 Frc consts  --      6.7771                 8.5964                 8.6296
 IR Inten    --      2.8947                81.5968                23.0772

 - Thermochemistry -
 -------------------
 Temperature   298.150 Kelvin.  Pressure   1.00000 Atm.
 Atom     1 has atomic number  6 and mass  12.00000

 Molecular mass:   270.11034 amu.
 Principal axes and moments of inertia in atomic units:
                           1         2         3
     Eigenvalues --  3557.240057185.414387790.10120
           X            0.99996   0.00846  -0.00105
           Y           -0.00844   0.99974   0.02123
           Z            0.00123  -0.02122   0.99977
 This molecule is an asymmetric top.
 Rotational symmetry number  1.
 Warning -- assumption of classical behavior for rotation
           may cause significant error
 Rotational temperatures (Kelvin)      0.02435     0.01205     0.01112
 Rotational constants (GHZ):           0.50734     0.25117     0.23167
 Zero-point vibrational energy     803184.6 (Joules/Mol)
                                  191.96574 (Kcal/Mol)
 Warning -- explicit consideration of  30 degrees of freedom as
           vibrations may cause significant error
 Vibrational temperatures:     33.00    54.24    75.10    80.05    86.43
          (Kelvin)            113.96   146.50   158.02   216.20   229.44
                              232.53   265.36   291.20   355.54   380.50
                              389.09   430.39   468.76   480.91   500.81
                              562.02   612.55   623.16   650.07   680.65
                              715.85   724.03   779.15   800.78   824.85
                              897.85   915.55   954.22  1037.92  1050.67
                             1109.62  1122.11  1169.87  1214.48  1224.28
                             1288.47  1305.88  1337.24  1369.14  1381.70
                             1436.10  1473.60  1527.08  1547.03  1584.51
                             1620.65  1634.28  1651.10  1669.71  1699.98
                             1705.53  1726.54  1748.08  1762.53  1797.57
                             1816.82  1844.62  1874.34  1882.76  1922.07
                             1935.07  1978.59  1988.60  2007.51  2026.90
                             2041.20  2071.40  2077.93  2088.89  2107.90
                             2169.57  2184.28  2185.79  2186.83  2188.62
                             2206.48  2211.53  2235.12  2247.87  2349.38
                             2385.81  2610.42  4340.23  4353.88  4368.34
                             4386.31  4396.14  4421.43  4453.43  4459.26
                             4479.11  4493.08  4506.40  4557.10  4615.84
                             4619.21  4663.93  4675.09  5327.46  5334.84

 Zero-point correction=                           0.305917 (Hartree/Particle)
 Thermal correction to Energy=                    0.325340
 Thermal correction to Enthalpy=                  0.326284
 Thermal correction to Gibbs Free Energy=         0.256707
 Sum of electronic and zero-point Energies=           -957.298052
 Sum of electronic and thermal Energies=              -957.278629
 Sum of electronic and thermal Enthalpies=            -957.277685
 Sum of electronic and thermal Free Energies=         -957.347262

                     E (Thermal)             CV                S
                      KCal/Mol        Cal/Mol-Kelvin    Cal/Mol-Kelvin
 Total                  204.154             71.818            146.436
 Electronic               0.000              0.000              0.000
 Translational            0.889              2.981             42.680
 Rotational               0.889              2.981             33.654
 Vibrational            202.376             65.856             70.103
 Vibration     1          0.593              1.985              6.362
 Vibration     2          0.594              1.982              5.377
 Vibration     3          0.596              1.977              4.732
 Vibration     4          0.596              1.975              4.606
 Vibration     5          0.597              1.973              4.455
 Vibration     6          0.600              1.963              3.910
 Vibration     7          0.604              1.948              3.419
 Vibration     8          0.606              1.941              3.272
 Vibration     9          0.618              1.902              2.669
 Vibration    10          0.621              1.892              2.556
 Vibration    11          0.622              1.889              2.531
 Vibration    12          0.631              1.861              2.283
 Vibration    13          0.639              1.836              2.111
 Vibration    14          0.661              1.768              1.751
 Vibration    15          0.671              1.738              1.632
 Vibration    16          0.674              1.728              1.593
 Vibration    17          0.692              1.675              1.422
 Vibration    18          0.710              1.624              1.281
 Vibration    19          0.716              1.607              1.239
 Vibration    20          0.726              1.579              1.175
 Vibration    21          0.758              1.490              0.998
 Vibration    22          0.788              1.414              0.873
 Vibration    23          0.794              1.398              0.849
 Vibration    24          0.810              1.357              0.790
 Vibration    25          0.830              1.310              0.729
 Vibration    26          0.853              1.255              0.664
 Vibration    27          0.859              1.243              0.650
 Vibration    28          0.897              1.158              0.562
 Vibration    29          0.912              1.125              0.531
 Vibration    30          0.930              1.089              0.498

 Optimization completed.
    -- Stationary point found.
 Normal termination of Gaussian 16 at Sat Dec 12 10:32:33 2020.

 ----------------------------------------------------------------------
 # B3LYP/6-311++G(d,p) empiricaldispersion=gd3bj scf=xqc pop=npa geom=c
 heck
 ----------------------------------------------------------------------

 --------------------------------------
 CID_63933951_JID_9389_Energie_neutraal
 --------------------------------------
 Structure from the checkpoint file:  "JID_9389.chk"
 Charge =  0 Multiplicity = 1

 SCF Done:  E(RB3LYP) =  -957.896291357     A.U. after   15 cycles
 Normal termination of Gaussian 16 at Sat Dec 12 10:41:01 2020.

 ----------------------------------------------------------------------
 # B3LYP/6-311++G(d,p) empiricaldispersion=gd3bj scf=xqc pop=npa geom=c
 heck
 ----------------------------------------------------------------------

 ------------------------------------
 CID_63933951_JID_9389_Energie_kation
 ------------------------------------
 Structure from the checkpoint file:  "JID_9389.chk"
 Charge =  1 Multiplicity = 2

 SCF Done:  E(UB3LYP) =  -957.595484383     A.U. after   28 cycles
 Normal termination of Gaussian 16 at Sat Dec 12 11:03:42 2020.
 Gaussian 16:  ES64L-G16RevA.03 25-Dec-2016

 ----------------------------------------------------------------------
 # B3LYP/6-311++G(d,p) empiricaldispersion=gd3bj scf=xqc pop=npa geom=c
 heck
 ----------------------------------------------------------------------

 -----------------------------------
 CID_63933951_JID_9389_Energie_anion
 -----------------------------------
 Structure from the checkpoint file:  "JID_9389.chk"
 Charge = -1 Multiplicity = 2

                         Standard orientation:
 ---------------------------------------------------------------------
 Center     Atomic      Atomic             Coordinates (Angstroms)
 Number     Number       Type             X           Y           Z
 ---------------------------------------------------------------------
      1          6           0       -0.882362   -3.341754    1.689980
      2          6           0       -0.551984   -1.884986    1.381156
      3          8           0       -1.705640   -1.072543    1.192170
      4          6           0       -2.389499   -1.305524   -0.025733
      5          6           0       -3.324635   -0.122847   -0.304426
      6          6           0       -2.636201    1.227928   -0.153326
      7          8           0       -1.620907    1.383135   -1.175941
      8          6           0       -0.344940    0.965745   -0.921890
      9          6           0        0.391061    1.375141    0.217700
     10          6           0        1.688134    0.905023    0.390134
     11          6           0        2.285623    0.074114   -0.569885
     12          6           0        1.579610   -0.285613   -1.719707
     13          6           0        0.270769    0.160972   -1.880260
     14          6           0        3.667609   -0.382345   -0.306608
     15          8           0        4.320036   -0.103362    0.681798
     16          8           0        4.166596   -1.170875   -1.294817
     17          8           0       -0.232516    2.231775    1.073690
     18          6           0        0.453075    2.595983    2.263322
     19          8           0       -3.896522   -0.268623   -1.598162
     20          1           0       -1.547469   -3.407383    2.557481
     21          1           0        0.035401   -3.897824    1.913154
     22          1           0       -1.372748   -3.833936    0.843327
     23          1           0       -0.016657   -1.430601    2.220939
     24          1           0        0.098395   -1.813200    0.496613
     25          1           0       -1.673715   -1.401910   -0.855264
     26          1           0       -2.983426   -2.229498    0.006245
     27          1           0       -4.157204   -0.146398    0.409212
     28          1           0       -3.353117    2.028244   -0.351206
     29          1           0       -2.210220    1.346761    0.839237
     30          1           0        2.277236    1.177636    1.256075
     31          1           0        2.041540   -0.917556   -2.468347
     32          1           0       -0.310532   -0.116640   -2.753732
     33          1           0        5.069430   -1.403003   -1.010390
     34          1           0       -0.226635    3.253061    2.807294
     35          1           0        0.682532    1.715017    2.875443
     36          1           0        1.382224    3.134234    2.039166
     37          1           0       -3.220977    0.055913   -2.217897
 ---------------------------------------------------------------------

 SCF Done:  E(UB3LYP) =  -957.899858911     A.U. after   33 cycles
 SCF Done:  E(UB3LYP) =  -957.899858911     a.u. after    1 cycles

 The electronic state is 2-A.
 Alpha  occ. eigenvalues --  -19.03564 -19.02579 -19.02058 -19.01898 -19.01521
 Alpha  occ. eigenvalues --  -18.93876 -10.12103 -10.11977 -10.11789 -10.10884
 Alpha  occ. eigenvalues --  -10.10723 -10.10540 -10.09415 -10.07323 -10.06565
 Alpha  occ. eigenvalues --  -10.03072 -10.02426 -10.02006 -10.01752  -0.95593
 Alpha  occ. eigenvalues --   -0.94993  -0.94138  -0.92849  -0.91883  -0.85415
 Alpha  occ. eigenvalues --   -0.71295  -0.67497  -0.64432  -0.63132  -0.61449
 Alpha  occ. eigenvalues --   -0.58541  -0.57139  -0.52401  -0.50274  -0.48517
 Alpha  occ. eigenvalues --   -0.46850  -0.45024  -0.41889  -0.40683  -0.39316
 Alpha  occ. eigenvalues --   -0.38426  -0.37827  -0.37456  -0.35896  -0.35036
 Alpha  occ. eigenvalues --   -0.34111  -0.33548  -0.32754  -0.32582  -0.31108
 Alpha  occ. eigenvalues --   -0.30806  -0.29995  -0.29699  -0.28805  -0.27913
 Alpha  occ. eigenvalues --   -0.27297  -0.26357  -0.25399  -0.25192  -0.24280
 Alpha  occ. eigenvalues --   -0.23335  -0.21843  -0.21472  -0.21261  -0.19280
 Alpha  occ. eigenvalues --   -0.18995  -0.17474  -0.17077  -0.15418  -0.12390
 Alpha  occ. eigenvalues --   -0.11002  -0.08964   0.05216
 Alpha virt. eigenvalues --    0.07018   0.07898   0.08596   0.09056   0.09716
 Alpha virt. eigenvalues --    0.10255   0.10470   0.11322   0.11588   0.12055
 Alpha virt. eigenvalues --    0.12491   0.12959   0.13239   0.14013   0.14252

  Beta  occ. eigenvalues --  -19.03586 -19.02575 -19.02004 -19.01891 -19.01447
  Beta  occ. eigenvalues --  -18.93575 -10.12099 -10.11781 -10.11650 -10.10882
  Beta  occ. eigenvalues --  -10.10717 -10.10506 -10.09523 -10.06871 -10.06557
  Beta  occ. eigenvalues --  -10.03142 -10.02297 -10.01779 -10.01573  -0.95582
  Beta  occ. eigenvalues --   -0.94662  -0.94101  -0.92810  -0.91780  -0.84948
  Beta  occ. eigenvalues --   -0.70950  -0.67453  -0.64275  -0.63044  -0.61134
  Beta  occ. eigenvalues --   -0.58342  -0.56851  -0.52202  -0.49938  -0.48364
  Beta  occ. eigenvalues --   -0.46692  -0.44811  -0.41823  -0.40607  -0.39186
  Beta  occ. eigenvalues --   -0.38400  -0.37754  -0.37342  -0.35862  -0.34983
  Beta  occ. eigenvalues --   -0.33983  -0.33398  -0.32550  -0.32347  -0.30948
  Beta  occ. eigenvalues --   -0.30742  -0.29715  -0.28667  -0.28403  -0.27827
  Beta  occ. eigenvalues --   -0.27159  -0.26337  -0.25103  -0.24942  -0.24189
  Beta  occ. eigenvalues --   -0.23197  -0.21745  -0.21417  -0.21083  -0.19172
  Beta  occ. eigenvalues --   -0.18419  -0.17035  -0.16143  -0.15293  -0.12081
  Beta  occ. eigenvalues --   -0.09935  -0.07559
  Beta virt. eigenvalues --    0.06986   0.07827   0.08530   0.08990   0.09653
  Beta virt. eigenvalues --    0.10186   0.10425   0.11045   0.11258   0.11629
  Beta virt. eigenvalues --    0.12240   0.12467   0.12895   0.13508   0.13907

 Mulliken charges and spin densities:
               1          2
     1  C   -0.167673  -0.415018
     2  C   -0.313905   0.225631
     3  O   -0.003883   0.001702
     4  C   -0.154419  -0.052270
     5  C   -0.301679  -0.093352
     6  C   -0.339273   0.027838
     7  O   -0.128214   0.007093
     8  C   -0.312052   0.186222
     9  C   -0.526380  -0.003286
    10  C   -0.161740   0.235208
    11  C    0.922416   0.016679
    12  C   -0.754181   0.205818
    13  C   -0.125572  -0.004526
    14  C   -0.021998   0.169380
    15  O   -0.421289   0.111673
    16  O   -0.232593   0.017879
    17  O   -0.150959  -0.003516
    18  C   -0.315969  -0.035631
    19  O   -0.176573   0.000953
    20  H    0.069407   0.072409
    21  H    0.054673   0.087036
    22  H    0.031547   0.115272
    23  H    0.050399   0.082135
    24  H    0.337296  -0.105594
    25  H    0.082807   0.073571
    26  H    0.113966   0.020296
    27  H    0.146288   0.029085
    28  H    0.176333  -0.001299
    29  H    0.208075  -0.000724
    30  H    0.223606  -0.015355
    31  H    0.155505  -0.000524
    32  H    0.116585   0.001735
    33  H    0.258219  -0.000200
    34  H    0.128185   0.008381
    35  H    0.127485   0.030232
    36  H    0.144174   0.000793
    37  H    0.261387   0.004273
 Sum of Mulliken charges =  -1.00000   1.00000

 Dipole moment (field-independent basis, Debye):
    X=             -4.8131    Y=              0.2123    Z=              1.7529  Tot=              5.1268
 Quadrupole moment (field-independent basis, Debye-Ang):
   XX=           -171.7449   YY=           -129.5422   ZZ=           -128.9830
   XY=             -3.8034   XZ=             -7.1428   YZ=              5.8743

 Summary of Natural Population Analysis:

                                       Natural Population
                Natural  -----------------------------------------------
    Atom  No    Charge         Core      Valence    Rydberg      Total
 -----------------------------------------------------------------------
      C    1   -0.29980      0.99967     2.29632    0.00382     3.29980
      C    2   -0.01357      0.99960     2.00268    0.01129     3.01357
      O    3   -0.30433      0.99988     3.29484    0.00961     4.30433
      C    4   -0.02830      0.99956     2.01305    0.01569     3.02830
      C    5    0.04581      0.99957     1.94135    0.01327     2.95419
      C    6   -0.01829      0.99952     2.00857    0.01020     3.01829
      O    7   -0.29453      0.99986     3.28377    0.01091     4.29453
      C    8    0.20625      0.99934     1.77905    0.01535     2.79375
      C    9    0.10984      0.99935     1.87724    0.01357     2.89016
      C   10   -0.07736      0.99951     2.06880    0.00906     3.07736
      C   11   -0.05906      0.99947     2.04813    0.01147     3.05906
      C   12   -0.06915      0.99954     2.05939    0.01021     3.06915
      C   13   -0.15043      0.99954     2.14072    0.01017     3.15043
      C   14    0.43433      0.99965     1.54086    0.02515     2.56567
      O   15   -0.30956      0.99987     3.30364    0.00605     4.30956
      O   16   -0.35431      0.99988     3.34781    0.00662     4.35431
      O   17   -0.28413      0.99985     3.27446    0.00981     4.28413
      C   18   -0.09791      0.99961     2.09039    0.00791     3.09791
      O   19   -0.37494      0.99990     3.36862    0.00642     4.37494
      H   20    0.09510      0.00000     0.40354    0.00136     0.40490
      H   21    0.10043      0.00000     0.39861    0.00095     0.39957
      H   22    0.09535      0.00000     0.40354    0.00111     0.40465
      H   23    0.08948      0.00000     0.40913    0.00139     0.41052
      H   24    0.09259      0.00000     0.40493    0.00248     0.40741
      H   25    0.09080      0.00000     0.40752    0.00168     0.40920
      H   26    0.07980      0.00000     0.41878    0.00141     0.42020
      H   27    0.08338      0.00000     0.41490    0.00172     0.41662
      H   28    0.08556      0.00000     0.41348    0.00096     0.41444
      H   29    0.10733      0.00000     0.39143    0.00124     0.39267
      H   30    0.10784      0.00000     0.39116    0.00100     0.39216
      H   31    0.10179      0.00000     0.39735    0.00086     0.39821
      H   32    0.09542      0.00000     0.40361    0.00096     0.40458
      H   33    0.22797      0.00000     0.26747    0.00456     0.27203
      H   34    0.08472      0.00000     0.41447    0.00081     0.41528
      H   35    0.08459      0.00000     0.41373    0.00168     0.41541
      H   36    0.08414      0.00000     0.41461    0.00125     0.41586
      H   37    0.23314      0.00000     0.26435    0.00252     0.26686
 =======================================================================
   * Total *   -0.00000     18.99316    52.77230    0.23454    72.00000

 Normal termination of Gaussian 16 at Sat Dec 12 11:31:11 2020.
