 Gaussian 16, Revision A.03,

 -----------------------------------------------------------
 # opt freq B3LYP/6-31G(d) empiricaldispersion=gd3bj scf=xqc
 -----------------------------------------------------------

 ------------------------------
 CID_85860344_JID_4503_neutraal
 ------------------------------
 Symbolic Z-matrix:
 Charge =  0 Multiplicity = 1

 SCF Done:  E(RB3LYP) =  -940.146062263     A.U. after   15 cycles
 SCF Done:  E(RB3LYP) =  -940.156719387     A.U. after   13 cycles
 SCF Done:  E(RB3LYP) =  -940.159431479     A.U. after   13 cycles
 SCF Done:  E(RB3LYP) =  -940.160989243     A.U. after   13 cycles
 SCF Done:  E(RB3LYP) =  -940.162206198     A.U. after   13 cycles
 SCF Done:  E(RB3LYP) =  -940.162132909     A.U. after   12 cycles
 SCF Done:  E(RB3LYP) =  -940.162430913     A.U. after   12 cycles
 SCF Done:  E(RB3LYP) =  -940.162639018     A.U. after   11 cycles
 SCF Done:  E(RB3LYP) =  -940.162700167     A.U. after   12 cycles
 SCF Done:  E(RB3LYP) =  -940.162722166     A.U. after   10 cycles
 SCF Done:  E(RB3LYP) =  -940.165574190     A.U. after   11 cycles
 SCF Done:  E(RB3LYP) =  -940.165580599     A.U. after   10 cycles
 SCF Done:  E(RB3LYP) =  -940.165581452     A.U. after   10 cycles
 SCF Done:  E(RB3LYP) =  -940.165582065     A.U. after    8 cycles
 SCF Done:  E(RB3LYP) =  -940.165582257     A.U. after    8 cycles
 SCF Done:  E(RB3LYP) =  -940.165582242     A.U. after    7 cycles
 Optimization completed.
    -- Stationary point found.
 Normal termination of Gaussian 16 at Thu Dec 10 10:36:12 2020.

 --------------------------------------------------------------------
 #N Geom=AllCheck Guess=TCheck SCRF=Check GenChk RB3LYP/6-31G(d) Freq
 --------------------------------------------------------------------

 Structure from the checkpoint file:  "JID_4503.chk"
 ------------------------------
 CID_85860344_JID_4503_neutraal
 ------------------------------
 Charge =  0 Multiplicity = 1

 SCF Done:  E(RB3LYP) =  -940.165582242     A.U. after    1 cycles

  Exact polarizability: 171.850   0.285 132.488 -19.338  -0.799 131.326
 Approx polarizability: 246.857  -2.097 180.479 -57.873   2.556 222.393

                      1                      2                      3
                      A                      A                      A
 Frequencies --     25.5095                37.6595                46.2009
 Red. masses --      5.7243                 2.6831                 4.2300
 Frc consts  --      0.0022                 0.0022                 0.0053
 IR Inten    --      0.0977                 0.1408                 0.4241

                      4                      5                      6
                      A                      A                      A
 Frequencies --     61.6652                70.5821                81.0188
 Red. masses --      5.4506                 8.5137                 2.9176
 Frc consts  --      0.0122                 0.0250                 0.0113
 IR Inten    --      0.2146                 0.2684                 0.0322

                      7                      8                      9
                      A                      A                      A
 Frequencies --    109.3394               125.2314               149.9184
 Red. masses --      2.4758                 2.8236                 1.6934
 Frc consts  --      0.0174                 0.0261                 0.0224
 IR Inten    --      0.7766                 3.3551                 0.1689

                     10                     11                     12
                      A                      A                      A
 Frequencies --    175.3566               203.2427               223.2776
 Red. masses --      2.6632                 2.0997                 1.7967
 Frc consts  --      0.0482                 0.0511                 0.0528
 IR Inten    --      1.2565                 1.3868                 2.1071

                     13                     14                     15
                      A                      A                      A
 Frequencies --    253.0896               278.4135               298.1214
 Red. masses --      1.8466                 1.5569                 2.3743
 Frc consts  --      0.0697                 0.0711                 0.1243
 IR Inten    --      3.7337                 0.7894                 2.2823

                     16                     17                     18
                      A                      A                      A
 Frequencies --    318.6137               338.1031               391.7907
 Red. masses --      1.8741                 2.4623                 2.0379
 Frc consts  --      0.1121                 0.1658                 0.1843
 IR Inten    --      1.2312                 0.4110                 0.0261

                     19                     20                     21
                      A                      A                      A
 Frequencies --    410.1402               434.2546               454.2739
 Red. masses --      2.0909                 2.0095                 6.5720
 Frc consts  --      0.2072                 0.2233                 0.7991
 IR Inten    --      0.4821                 2.1699                 3.3167

                     22                     23                     24
                      A                      A                      A
 Frequencies --    471.4081               515.2087               545.9572
 Red. masses --      5.2633                 2.2638                 2.8499
 Frc consts  --      0.6891                 0.3540                 0.5005
 IR Inten    --      8.7762                14.4348                 9.8858

                     25                     26                     27
                      A                      A                      A
 Frequencies --    582.4937               692.1004               716.6322
 Red. masses --      2.6587                 6.0171                 1.8338
 Frc consts  --      0.5315                 1.6982                 0.5549
 IR Inten    --     21.7396                27.6570                 1.1131

                     28                     29                     30
                      A                      A                      A
 Frequencies --    757.3689               788.0018               823.4003
 Red. masses --      1.2340                 1.4225                 2.6096
 Frc consts  --      0.4170                 0.5204                 1.0424
 IR Inten    --      9.9329                11.6340                 5.6234

                     31                     32                     33
                      A                      A                      A
 Frequencies --    825.4626               874.2134               893.4297
 Red. masses --      2.2532                 1.5200                 1.5513
 Frc consts  --      0.9046                 0.6844                 0.7295
 IR Inten    --      1.1120                 0.4416                20.5746

                     34                     35                     36
                      A                      A                      A
 Frequencies --    923.3019               941.6037               958.2899
 Red. masses --      2.1546                 1.7821                 1.7306
 Frc consts  --      1.0822                 0.9309                 0.9364
 IR Inten    --      5.2009                 8.1979                 0.5871

                     37                     38                     39
                      A                      A                      A
 Frequencies --    976.1868               986.1457              1012.2757
 Red. masses --      2.0258                 1.6158                 1.5696
 Frc consts  --      1.1374                 0.9258                 0.9476
 IR Inten    --      2.6702                 0.9778                 4.5490

                     40                     41                     42
                      A                      A                      A
 Frequencies --   1052.3022              1088.6993              1103.7786
 Red. masses --      1.9183                 2.1293                 2.0495
 Frc consts  --      1.2515                 1.4870                 1.4712
 IR Inten    --     11.6650                 4.2137                 3.3465

                     43                     44                     45
                      A                      A                      A
 Frequencies --   1117.2358              1125.0914              1135.7707
 Red. masses --      2.0534                 1.8703                 1.8956
 Frc consts  --      1.5101                 1.3949                 1.4407
 IR Inten    --     14.9257                 4.2594                 3.2979

                     46                     47                     48
                      A                      A                      A
 Frequencies --   1150.3943              1154.9536              1187.7349
 Red. masses --      4.2982                 2.1707                 2.0669
 Frc consts  --      3.3514                 1.7060                 1.7179
 IR Inten    --      2.4260                 3.5843                12.7303

                     49                     50                     51
                      A                      A                      A
 Frequencies --   1219.8896              1257.9640              1280.6416
 Red. masses --      2.1639                 1.1345                 1.2819
 Frc consts  --      1.8973                 1.0578                 1.2387
 IR Inten    --      7.9197                12.3493                 2.0474

                     52                     53                     54
                      A                      A                      A
 Frequencies --   1288.3772              1312.0058              1318.2239
 Red. masses --      1.2450                 1.1851                 1.2706
 Frc consts  --      1.2176                 1.2019                 1.3009
 IR Inten    --      0.7328                12.2793                 2.6279

                     55                     56                     57
                      A                      A                      A
 Frequencies --   1322.4236              1344.4821              1372.4808
 Red. masses --      1.5968                 1.1311                 1.1994
 Frc consts  --      1.6453                 1.2046                 1.3312
 IR Inten    --     24.6579                 4.5873                 9.5676

                     58                     59                     60
                      A                      A                      A
 Frequencies --   1386.3395              1394.5335              1398.5727
 Red. masses --      1.3041                 1.3486                 1.3277
 Frc consts  --      1.4767                 1.5452                 1.5301
 IR Inten    --     10.8710                 9.7701                34.0144

                     61                     62                     63
                      A                      A                      A
 Frequencies --   1404.1488              1414.0174              1422.7308
 Red. masses --      1.4083                 1.4327                 1.2819
 Frc consts  --      1.6360                 1.6877                 1.5288
 IR Inten    --      5.0421                 7.3467                 6.5990

                     64                     65                     66
                      A                      A                      A
 Frequencies --   1426.9203              1442.1714              1444.8764
 Red. masses --      1.4155                 1.2816                 1.2521
 Frc consts  --      1.6980                 1.5705                 1.5401
 IR Inten    --     21.6216                 7.1207                 3.2733

                     67                     68                     69
                      A                      A                      A
 Frequencies --   1455.3580              1506.5756              1509.6494
 Red. masses --      1.3821                 1.0826                 1.0855
 Frc consts  --      1.7247                 1.4478                 1.4575
 IR Inten    --      2.6897                 2.5009                 2.6855

                     70                     71                     72
                      A                      A                      A
 Frequencies --   1516.7282              1518.8489              1521.0920
 Red. masses --      1.0650                 1.0696                 1.0595
 Frc consts  --      1.4435                 1.4538                 1.4444
 IR Inten    --      1.5489                 6.1107                 6.5684

                     73                     74                     75
                      A                      A                      A
 Frequencies --   1526.5942              1528.2035              1532.5720
 Red. masses --      1.0645                 1.0632                 1.0730
 Frc consts  --      1.4617                 1.4630                 1.4848
 IR Inten    --      8.0586                 3.0061                11.0946

                     76                     77                     78
                      A                      A                      A
 Frequencies --   1536.3124              1539.9817              1546.2524
 Red. masses --      1.0648                 1.0761                 1.0725
 Frc consts  --      1.4807                 1.5035                 1.5109
 IR Inten    --      6.4935                 7.6773                 9.5517

                     79                     80                     81
                      A                      A                      A
 Frequencies --   1553.3042              2151.4632              2937.4151
 Red. masses --      1.0842                11.9735                 1.0739
 Frc consts  --      1.5413                32.6542                 5.4592
 IR Inten    --      3.5709               881.5938                31.7582

                     82                     83                     84
                      A                      A                      A
 Frequencies --   2946.7258              3030.2216              3034.0866
 Red. masses --      1.0734                 1.0666                 1.0627
 Frc consts  --      5.4915                 5.7705                 5.7637
 IR Inten    --    136.2009                19.9238                29.2234

                     85                     86                     87
                      A                      A                      A
 Frequencies --   3042.5742              3042.9943              3045.8719
 Red. masses --      1.0432                 1.0651                 1.0367
 Frc consts  --      5.6897                 5.8111                 5.6667
 IR Inten    --     27.5363                24.8784                20.2228

                     88                     89                     90
                      A                      A                      A
 Frequencies --   3046.2761              3060.6115              3065.7649
 Red. masses --      1.0667                 1.0932                 1.0751
 Frc consts  --      5.8320                 6.0336                 5.9534
 IR Inten    --     42.6739                 5.1905                11.4835

                     91                     92                     93
                      A                      A                      A
 Frequencies --   3071.4081              3073.9268              3078.6575
 Red. masses --      1.0897                 1.0808                 1.0880
 Frc consts  --      6.0566                 6.0168                 6.0761
 IR Inten    --     17.2724                16.0508                30.2020

                     94                     95                     96
                      A                      A                      A
 Frequencies --   3081.2430              3087.9482              3096.6405
 Red. masses --      1.0865                 1.0755                 1.0927
 Frc consts  --      6.0774                 6.0424                 6.1735
 IR Inten    --     62.7064                55.6502                20.8534

                     97                     98                     99
                      A                      A                      A
 Frequencies --   3108.7477              3110.1955              3114.9748
 Red. masses --      1.1028                 1.1000                 1.0984
 Frc consts  --      6.2796                 6.2692                 6.2793
 IR Inten    --     62.2204                40.3132                67.4056

                    100                    101                    102
                      A                      A                      A
 Frequencies --   3115.8667              3119.3008              3127.5718
 Red. masses --      1.1015                 1.1013                 1.1017
 Frc consts  --      6.3006                 6.3137                 6.3495
 IR Inten    --     40.2638                22.5436                42.0278

 - Thermochemistry -
 -------------------
 Temperature   298.150 Kelvin.  Pressure   1.00000 Atm.
 Atom     1 has atomic number  6 and mass  12.00000

 Molecular mass:   214.15037 amu.
 Principal axes and moments of inertia in atomic units:
                           1         2         3
     Eigenvalues --  2743.057864215.602035654.34278
           X            0.99717  -0.07386   0.01399
           Y            0.07372   0.99723   0.01021
           Z           -0.01471  -0.00915   0.99985
 This molecule is an asymmetric top.
 Rotational symmetry number  1.
 Warning -- assumption of classical behavior for rotation
           may cause significant error
 Rotational temperatures (Kelvin)      0.03158     0.02055     0.01532
 Rotational constants (GHZ):           0.65793     0.42811     0.31918
 Zero-point vibrational energy     853643.2 (Joules/Mol)
                                  204.02563 (Kcal/Mol)
 Warning -- explicit consideration of  25 degrees of freedom as
           vibrations may cause significant error
 Vibrational temperatures:     36.70    54.18    66.47    88.72   101.55
          (Kelvin)            116.57   157.32   180.18   215.70   252.30
                              292.42   321.25   364.14   400.57   428.93
                              458.41   486.45   563.70   590.10   624.80
                              653.60   678.25   741.27   785.51   838.08
                              995.78  1031.07  1089.68  1133.76  1184.69
                             1187.66  1257.80  1285.45  1328.43  1354.76
                             1378.77  1404.52  1418.84  1456.44  1514.03
                             1566.40  1588.09  1607.45  1618.76  1634.12
                             1655.16  1661.72  1708.89  1755.15  1809.93
                             1842.56  1853.69  1887.68  1896.63  1902.67
                             1934.41  1974.69  1994.63  2006.42  2012.23
                             2020.26  2034.46  2046.99  2053.02  2074.96
                             2078.85  2093.94  2167.63  2172.05  2182.23
                             2185.28  2188.51  2196.43  2198.74  2205.03
                             2210.41  2215.69  2224.71  2234.86  3095.48
                             4226.29  4239.68  4359.81  4365.37  4377.59
                             4378.19  4382.33  4382.91  4403.54  4410.95
                             4419.07  4422.70  4429.50  4433.22  4442.87
                             4455.38  4472.79  4474.88  4481.75  4483.04
                             4487.98  4499.88

 Zero-point correction=                           0.325136 (Hartree/Particle)
 Thermal correction to Energy=                    0.342100
 Thermal correction to Enthalpy=                  0.343044
 Thermal correction to Gibbs Free Energy=         0.278700
 Sum of electronic and zero-point Energies=           -939.840447
 Sum of electronic and thermal Energies=              -939.823482
 Sum of electronic and thermal Enthalpies=            -939.822538
 Sum of electronic and thermal Free Energies=         -939.886883

                     E (Thermal)             CV                S
                      KCal/Mol        Cal/Mol-Kelvin    Cal/Mol-Kelvin
 Total                  214.671             61.228            135.425
 Electronic               0.000              0.000              0.000
 Translational            0.889              2.981             41.988
 Rotational               0.889              2.981             32.547
 Vibrational            212.894             55.266             60.890
 Vibration     1          0.593              1.985              6.151
 Vibration     2          0.594              1.982              5.379
 Vibration     3          0.595              1.979              4.974
 Vibration     4          0.597              1.973              4.403
 Vibration     5          0.598              1.968              4.137
 Vibration     6          0.600              1.962              3.866
 Vibration     7          0.606              1.942              3.281
 Vibration     8          0.610              1.928              3.018
 Vibration     9          0.618              1.903              2.673
 Vibration    10          0.627              1.873              2.377
 Vibration    11          0.639              1.835              2.104
 Vibration    12          0.649              1.806              1.932
 Vibration    13          0.664              1.758              1.709
 Vibration    14          0.679              1.713              1.543
 Vibration    15          0.691              1.677              1.427
 Vibration    16          0.705              1.638              1.317
 Vibration    17          0.718              1.599              1.221
 Vibration    18          0.759              1.488              0.993
 Vibration    19          0.774              1.448              0.926
 Vibration    20          0.795              1.396              0.845
 Vibration    21          0.813              1.351              0.783
 Vibration    22          0.828              1.313              0.734
 Vibration    23          0.870              1.216              0.621
 Vibration    24          0.901              1.149              0.553
 Vibration    25          0.939              1.069              0.481

                           ! Non-Optimized Parameters !
 Normal termination of Gaussian 16 at Thu Dec 10 10:48:47 2020.

 ----------------------------------------------------------------------
 # B3LYP/6-311++G(d,p) empiricaldispersion=gd3bj scf=xqc pop=npa geom=c
 heck
 ----------------------------------------------------------------------

 --------------------------------------
 CID_85860344_JID_4503_Energie_neutraal
 --------------------------------------
 Structure from the checkpoint file:  "JID_4503.chk"
 Charge =  0 Multiplicity = 1

 SCF Done:  E(RB3LYP) =  -940.341043912     A.U. after   14 cycles
 Normal termination of Gaussian 16 at Thu Dec 10 10:54:48 2020.

 ----------------------------------------------------------------------
 # B3LYP/6-311++G(d,p) empiricaldispersion=gd3bj scf=xqc pop=npa geom=c
 heck
 ----------------------------------------------------------------------

 ------------------------------------
 CID_85860344_JID_4503_Energie_kation
 ------------------------------------
 Structure from the checkpoint file:  "JID_4503.chk"
 Charge =  1 Multiplicity = 2

 SCF Done:  E(UB3LYP) =  -940.054291505     A.U. after   24 cycles
 Normal termination of Gaussian 16 at Thu Dec 10 11:09:23 2020.
 Gaussian 16:  ES64L-G16RevA.03 25-Dec-2016

 ----------------------------------------------------------------------
 # B3LYP/6-311++G(d,p) empiricaldispersion=gd3bj scf=xqc pop=npa geom=c
 heck
 ----------------------------------------------------------------------

 -----------------------------------
 CID_85860344_JID_4503_Energie_anion
 -----------------------------------
 Structure from the checkpoint file:  "JID_4503.chk"
 Charge = -1 Multiplicity = 2

                         Standard orientation:
 ---------------------------------------------------------------------
 Center     Atomic      Atomic             Coordinates (Angstroms)
 Number     Number       Type             X           Y           Z
 ---------------------------------------------------------------------
      1          6           0       -3.963799    0.704033   -1.024645
      2          6           0       -3.550918   -0.477568   -0.141022
      3          6           0       -2.344670   -1.263256   -0.684287
      4          6           0       -0.990956   -0.517842   -0.704703
      5          7           0       -0.162527   -0.559593    0.505732
      6          6           0        0.324311   -1.889392    0.873883
      7          6           0        1.158237   -2.575050   -0.213177
      8          6           0        2.330669   -1.735378   -0.737253
      9          6           0        3.313932   -1.300956    0.351665
     10          6           0       -0.656631    0.163766    1.660942
     11          6           0       -0.916919    1.651748    1.394394
     12          7           0        0.214184    2.313696    0.810340
     13          6           0        1.112650    2.158752    0.033080
     14         16           0        2.340064    2.142310   -0.979355
     15          1           0       -3.164348    1.447694   -1.122832
     16          1           0       -4.840596    1.217674   -0.615285
     17          1           0       -4.216413    0.363978   -2.036211
     18          1           0       -3.351015   -0.124127    0.877672
     19          1           0       -4.402064   -1.165646   -0.054661
     20          1           0       -2.232440   -2.196704   -0.118844
     21          1           0       -2.577576   -1.566731   -1.714667
     22          1           0       -0.377363   -0.928305   -1.510626
     23          1           0       -1.142427    0.532498   -0.973169
     24          1           0        0.949303   -1.758796    1.764448
     25          1           0       -0.497036   -2.566087    1.177561
     26          1           0        1.538669   -3.510461    0.220145
     27          1           0        0.515367   -2.875621   -1.050431
     28          1           0        2.861884   -2.321536   -1.498755
     29          1           0        1.948015   -0.840681   -1.239697
     30          1           0        3.692808   -2.162598    0.916872
     31          1           0        4.171638   -0.778210   -0.083703
     32          1           0        2.841507   -0.609426    1.056573
     33          1           0       -1.585649   -0.254190    2.092977
     34          1           0        0.109351    0.090422    2.441580
     35          1           0       -1.779153    1.795246    0.733324
     36          1           0       -1.160528    2.142778    2.341629
 ---------------------------------------------------------------------

 SCF Done:  E(UB3LYP) =  -940.329330163     A.U. after   32 cycles

 The electronic state is 2-A.
 Alpha  occ. eigenvalues --  -88.74102 -14.24818 -14.21019 -10.17263 -10.13036
 Alpha  occ. eigenvalues --  -10.10624 -10.09651 -10.09484 -10.07212 -10.06801
 Alpha  occ. eigenvalues --  -10.06725 -10.06691 -10.06165 -10.06114  -7.82853
 Alpha  occ. eigenvalues --   -5.79253  -5.78582  -5.78493  -0.86967  -0.82959
 Alpha  occ. eigenvalues --   -0.70765  -0.69894  -0.68744  -0.65650  -0.63083
 Alpha  occ. eigenvalues --   -0.61128  -0.56808  -0.55461  -0.51053  -0.48325
 Alpha  occ. eigenvalues --   -0.45485  -0.43023  -0.41253  -0.39141  -0.37335
 Alpha  occ. eigenvalues --   -0.36401  -0.35917  -0.34981  -0.34561  -0.33534
 Alpha  occ. eigenvalues --   -0.33074  -0.31003  -0.30233  -0.29272  -0.29037
 Alpha  occ. eigenvalues --   -0.28840  -0.27798  -0.27701  -0.26407  -0.25783
 Alpha  occ. eigenvalues --   -0.24478  -0.23708  -0.23356  -0.23278  -0.23015
 Alpha  occ. eigenvalues --   -0.22357  -0.15992  -0.15069  -0.11969   0.04224
 Alpha virt. eigenvalues --    0.06169   0.06495   0.06860   0.07819   0.08313
 Alpha virt. eigenvalues --    0.08682   0.08868   0.09723   0.09814   0.10333
 Alpha virt. eigenvalues --    0.10945   0.10994   0.11329   0.11675   0.12365

  Beta  occ. eigenvalues --  -88.74100 -14.24816 -14.21013 -10.17204 -10.12983
  Beta  occ. eigenvalues --  -10.10598 -10.09637 -10.09474 -10.07200 -10.06798
  Beta  occ. eigenvalues --  -10.06698 -10.06670 -10.06153 -10.06079  -7.82851
  Beta  occ. eigenvalues --   -5.79253  -5.78576  -5.78491  -0.86909  -0.82932
  Beta  occ. eigenvalues --   -0.70715  -0.69851  -0.68699  -0.65613  -0.63046
  Beta  occ. eigenvalues --   -0.61079  -0.56737  -0.55412  -0.50992  -0.48261
  Beta  occ. eigenvalues --   -0.45435  -0.42965  -0.41209  -0.39100  -0.37273
  Beta  occ. eigenvalues --   -0.36359  -0.35885  -0.34938  -0.34501  -0.33486
  Beta  occ. eigenvalues --   -0.33021  -0.30959  -0.30205  -0.29219  -0.29003
  Beta  occ. eigenvalues --   -0.28807  -0.27765  -0.27632  -0.26324  -0.25730
  Beta  occ. eigenvalues --   -0.24448  -0.23673  -0.23315  -0.23254  -0.22983
  Beta  occ. eigenvalues --   -0.22318  -0.15924  -0.15055  -0.11926
  Beta virt. eigenvalues --    0.06285   0.06749   0.07181   0.07595   0.08132
  Beta virt. eigenvalues --    0.08758   0.09065   0.09191   0.09832   0.10082
  Beta virt. eigenvalues --    0.10626   0.11382   0.11394   0.11533   0.11892

 Mulliken charges and spin densities:
               1          2
     1  C    1.054722  -1.633822
     2  C   -0.662507   0.592992
     3  C   -0.269864  -0.154826
     4  C    0.396411  -0.823325
     5  N    0.119460   0.219206
     6  C    0.210496  -0.325750
     7  C   -0.269842  -0.139602
     8  C   -0.226164   0.264601
     9  C   -0.003284  -0.602695
    10  C   -0.298206   0.045026
    11  C    0.936439  -1.510120
    12  N    0.000590   0.125700
    13  C    0.133107  -0.017941
    14  S   -0.307554   0.064376
    15  H   -0.102656   0.233937
    16  H   -0.428679   0.581715
    17  H    0.000019   0.129559
    18  H    0.032690   0.094416
    19  H   -0.694296   0.869097
    20  H    0.166745  -0.037990
    21  H   -0.248264   0.395773
    22  H    0.360080  -0.211367
    23  H    0.195006  -0.143527
    24  H   -0.007591   0.150892
    25  H   -0.124411   0.255887
    26  H   -0.117114   0.279769
    27  H   -0.069058   0.211356
    28  H    0.018243   0.132452
    29  H   -0.012223   0.075126
    30  H   -0.024335   0.144032
    31  H    0.099689   0.027998
    32  H    0.067001   0.081450
    33  H   -0.170315   0.293952
    34  H   -0.047308   0.220236
    35  H    0.168097   0.017858
    36  H   -0.875126   1.093559
 Sum of Mulliken charges =  -1.00000   1.00000

 Dipole moment (field-independent basis, Debye):
    X=              5.3605    Y=             -1.2451    Z=             -2.4979  Tot=              6.0436
 Quadrupole moment (field-independent basis, Debye-Ang):
   XX=           -176.5077   YY=           -147.8330   ZZ=           -136.1023
   XY=             -0.1170   XZ=              1.7832   YZ=             -3.7597

 Summary of Natural Population Analysis:

                                       Natural Population
                Natural  -----------------------------------------------
    Atom  No    Charge         Core      Valence    Rydberg      Total
 -----------------------------------------------------------------------
      C    1   -0.28638      0.99967     2.28072    0.00599     3.28638
      C    2   -0.19179      0.99964     2.18422    0.00794     3.19179
      C    3   -0.20179      0.99962     2.19359    0.00858     3.20179
      C    4   -0.08721      0.99959     2.07627    0.01134     3.08721
      N    5   -0.28762      0.99971     2.77401    0.01389     3.78762
      C    6   -0.08246      0.99960     2.07127    0.01158     3.08246
      C    7   -0.19409      0.99962     2.18617    0.00830     3.19409
      C    8   -0.19629      0.99963     2.18820    0.00845     3.19629
      C    9   -0.28575      0.99967     2.28155    0.00453     3.28575
      C   10   -0.08180      0.99960     2.07048    0.01172     3.08180
      C   11   -0.09680      0.99956     2.08554    0.01170     3.09680
      N   12   -0.22339      0.99948     2.71003    0.01388     3.72339
      C   13    0.12918      0.99950     1.85562    0.01570     2.87082
      S   14   -0.04377      4.99946     3.02857    0.01575     8.04377
      H   15    0.09271      0.00000     0.40599    0.00130     0.40729
      H   16    0.10207      0.00000     0.39672    0.00121     0.39793
      H   17    0.09543      0.00000     0.40351    0.00106     0.40457
      H   18    0.09336      0.00000     0.40453    0.00211     0.40664
      H   19    0.09756      0.00000     0.40083    0.00161     0.40244
      H   20    0.09975      0.00000     0.39899    0.00126     0.40025
      H   21    0.09575      0.00000     0.40316    0.00109     0.40425
      H   22    0.09756      0.00000     0.40112    0.00132     0.40244
      H   23    0.09544      0.00000     0.40304    0.00151     0.40456
      H   24    0.09571      0.00000     0.40284    0.00146     0.40429
      H   25    0.08458      0.00000     0.41404    0.00138     0.41542
      H   26    0.09731      0.00000     0.40171    0.00099     0.40269
      H   27    0.09647      0.00000     0.40245    0.00108     0.40353
      H   28    0.09059      0.00000     0.40855    0.00086     0.40941
      H   29    0.10387      0.00000     0.39450    0.00163     0.39613
      H   30    0.09105      0.00000     0.40798    0.00097     0.40895
      H   31    0.09884      0.00000     0.40034    0.00082     0.40116
      H   32    0.10100      0.00000     0.39784    0.00116     0.39900
      H   33    0.08943      0.00000     0.40890    0.00167     0.41057
      H   34    0.09873      0.00000     0.39968    0.00160     0.40127
      H   35    0.10484      0.00000     0.39344    0.00171     0.39516
      H   36    0.10792      0.00000     0.38980    0.00228     0.39208
 =======================================================================
   * Total *    0.00000     17.99434    40.82621    0.17945    59.00000

 Normal termination of Gaussian 16 at Thu Dec 10 11:25:23 2020.
