 Gaussian 16, Revision A.03,

 -----------------------------------------------------------
 # opt freq B3LYP/6-31G(d) empiricaldispersion=gd3bj scf=xqc
 -----------------------------------------------------------

 ------------------------------
 CID_62063416_JID_6090_neutraal
 ------------------------------
 Symbolic Z-matrix:
 Charge =  0 Multiplicity = 1

 SCF Done:  E(RB3LYP) =  -762.601786820     A.U. after   14 cycles
 SCF Done:  E(RB3LYP) =  -762.617666826     A.U. after   13 cycles
 SCF Done:  E(RB3LYP) =  -762.620562866     A.U. after   13 cycles
 SCF Done:  E(RB3LYP) =  -762.621553336     A.U. after   13 cycles
 SCF Done:  E(RB3LYP) =  -762.622477523     A.U. after   12 cycles
 SCF Done:  E(RB3LYP) =  -762.623009088     A.U. after   12 cycles
 SCF Done:  E(RB3LYP) =  -762.623199271     A.U. after   13 cycles
 SCF Done:  E(RB3LYP) =  -762.623529526     A.U. after   12 cycles
 SCF Done:  E(RB3LYP) =  -762.623736074     A.U. after   11 cycles
 SCF Done:  E(RB3LYP) =  -762.623952282     A.U. after   12 cycles
 SCF Done:  E(RB3LYP) =  -762.624329080     A.U. after    7 cycles
 SCF Done:  E(RB3LYP) =  -762.624329240     A.U. after    8 cycles
 SCF Done:  E(RB3LYP) =  -762.624329290     A.U. after    7 cycles
 SCF Done:  E(RB3LYP) =  -762.624329320     A.U. after    7 cycles
 SCF Done:  E(RB3LYP) =  -762.624329342     A.U. after    6 cycles
 Optimization completed.
    -- Stationary point found.
 Normal termination of Gaussian 16 at Thu Dec 10 21:21:07 2020.

 --------------------------------------------------------------------
 #N Geom=AllCheck Guess=TCheck SCRF=Check GenChk RB3LYP/6-31G(d) Freq
 --------------------------------------------------------------------

 Structure from the checkpoint file:  "JID_6090.chk"
 ------------------------------
 CID_62063416_JID_6090_neutraal
 ------------------------------
 Charge =  0 Multiplicity = 1

 SCF Done:  E(RB3LYP) =  -762.624329342     A.U. after    1 cycles

  Exact polarizability: 148.525   5.101 124.995   4.404  -2.289 130.300
 Approx polarizability: 173.579   6.355 187.783  10.515  -0.408 207.786

                      1                      2                      3
                      A                      A                      A
 Frequencies --     20.0641                30.0058                41.7851
 Red. masses --      3.7145                 3.3744                 3.8691
 Frc consts  --      0.0009                 0.0018                 0.0040
 IR Inten    --      1.2614                 1.1973                 1.0816

                      4                      5                      6
                      A                      A                      A
 Frequencies --     60.3686                66.2120                86.6135
 Red. masses --      5.0447                 3.6949                 4.9094
 Frc consts  --      0.0108                 0.0095                 0.0217
 IR Inten    --      1.3623                 1.3048                 4.0618

                      7                      8                      9
                      A                      A                      A
 Frequencies --    107.1046               130.6800               148.4947
 Red. masses --      3.2947                 2.3343                 3.4512
 Frc consts  --      0.0223                 0.0235                 0.0448
 IR Inten    --      4.9413                 1.7921                 0.4935

                     10                     11                     12
                      A                      A                      A
 Frequencies --    154.4789               202.4729               218.9130
 Red. masses --      2.9704                 3.2930                 1.8504
 Frc consts  --      0.0418                 0.0795                 0.0522
 IR Inten    --      1.6680                 3.2616                 0.9684

                     13                     14                     15
                      A                      A                      A
 Frequencies --    237.6734               263.2651               282.1342
 Red. masses --      1.8254                 1.8834                 1.6417
 Frc consts  --      0.0608                 0.0769                 0.0770
 IR Inten    --     14.8679                14.9214                23.3889

                     16                     17                     18
                      A                      A                      A
 Frequencies --    307.3770               347.9620               357.5867
 Red. masses --      2.3376                 2.8980                 2.4784
 Frc consts  --      0.1301                 0.2067                 0.1867
 IR Inten    --      6.9201                 0.1020                 8.1042

                     19                     20                     21
                      A                      A                      A
 Frequencies --    398.8379               428.7646               444.9032
 Red. masses --      2.2770                 2.9532                 5.2316
 Frc consts  --      0.2134                 0.3199                 0.6101
 IR Inten    --      2.4182                 5.9514                13.6176

                     22                     23                     24
                      A                      A                      A
 Frequencies --    454.4296               542.1571               577.5781
 Red. masses --      2.5958                 3.2398                 2.3959
 Frc consts  --      0.3158                 0.5611                 0.4709
 IR Inten    --      1.6337                16.4988                28.4905

                     25                     26                     27
                      A                      A                      A
 Frequencies --    605.4899               643.1159               684.6666
 Red. masses --      3.3144                 2.2207                 2.1591
 Frc consts  --      0.7159                 0.5411                 0.5963
 IR Inten    --     31.5017                39.4957                47.6117

                     28                     29                     30
                      A                      A                      A
 Frequencies --    707.0091               765.1595               784.3492
 Red. masses --      1.6994                 3.7109                 6.2186
 Frc consts  --      0.5005                 1.2801                 2.2540
 IR Inten    --     36.4055               105.8932                 2.9068

                     31                     32                     33
                      A                      A                      A
 Frequencies --    805.0130               813.3808               846.9628
 Red. masses --      1.3314                 2.0114                 2.1592
 Frc consts  --      0.5083                 0.7840                 0.9126
 IR Inten    --     20.8949                 5.8939                 4.9612

                     34                     35                     36
                      A                      A                      A
 Frequencies --    859.4804               879.8702               917.1146
 Red. masses --      3.1961                 1.2810                 2.3462
 Frc consts  --      1.3911                 0.5843                 1.1627
 IR Inten    --      6.2291               121.7922                21.9291

                     37                     38                     39
                      A                      A                      A
 Frequencies --    931.7569               955.1885               990.5664
 Red. masses --      1.9006                 1.8397                 1.7588
 Frc consts  --      0.9722                 0.9890                 1.0168
 IR Inten    --     11.0835                10.3510                 0.8104

                     40                     41                     42
                      A                      A                      A
 Frequencies --    999.2964              1011.5537              1031.3539
 Red. masses --      1.6576                 2.9901                 2.1924
 Frc consts  --      0.9753                 1.8026                 1.3740
 IR Inten    --     24.2912                 2.1561                 2.9863

                     43                     44                     45
                      A                      A                      A
 Frequencies --   1035.3204              1086.0284              1092.3530
 Red. masses --      1.9270                 2.1181                 2.2429
 Frc consts  --      1.2170                 1.4719                 1.5768
 IR Inten    --     11.4353                 4.6293                10.5666

                     46                     47                     48
                      A                      A                      A
 Frequencies --   1094.3809              1146.5730              1148.6927
 Red. masses --      2.4125                 1.8469                 1.7627
 Frc consts  --      1.7024                 1.4306                 1.3703
 IR Inten    --     14.1551                22.4943                21.7967

                     49                     50                     51
                      A                      A                      A
 Frequencies --   1164.3791              1180.5269              1189.7703
 Red. masses --      1.9640                 2.6600                 2.5242
 Frc consts  --      1.5688                 2.1842                 2.1053
 IR Inten    --     52.1757                22.0983                46.5812

                     52                     53                     54
                      A                      A                      A
 Frequencies --   1207.3215              1233.8204              1245.9897
 Red. masses --      1.3783                 1.3811                 1.4148
 Frc consts  --      1.1837                 1.2388                 1.2942
 IR Inten    --      9.6326                32.6523                 4.9568

                     55                     56                     57
                      A                      A                      A
 Frequencies --   1270.6847              1290.3320              1307.6916
 Red. masses --      1.9177                 1.4963                 1.2969
 Frc consts  --      1.8244                 1.4678                 1.3067
 IR Inten    --     50.0554                15.2906                13.1748

                     58                     59                     60
                      A                      A                      A
 Frequencies --   1312.4803              1336.2500              1343.4539
 Red. masses --      1.2026                 1.4116                 1.4219
 Frc consts  --      1.2205                 1.4851                 1.5120
 IR Inten    --     28.5413                 7.6571               106.1833

                     61                     62                     63
                      A                      A                      A
 Frequencies --   1358.6554              1371.4411              1382.5180
 Red. masses --      1.2538                 1.3189                 1.5257
 Frc consts  --      1.3637                 1.4616                 1.7181
 IR Inten    --     15.3428                26.8039                99.0815

                     64                     65                     66
                      A                      A                      A
 Frequencies --   1391.4148              1408.1772              1426.3894
 Red. masses --      1.3873                 1.5357                 2.9320
 Frc consts  --      1.5825                 1.7942                 3.5147
 IR Inten    --     19.2495                17.7822               167.4325

                     67                     68                     69
                      A                      A                      A
 Frequencies --   1433.8384              1441.4087              1446.9177
 Red. masses --      1.5326                 1.5186                 1.2731
 Frc consts  --      1.8564                 1.8589                 1.5704
 IR Inten    --     17.6884                46.7981                 7.9913

                     70                     71                     72
                      A                      A                      A
 Frequencies --   1450.8472              1489.9259              1508.6705
 Red. masses --      1.4827                 1.4598                 1.0927
 Frc consts  --      1.8389                 1.9093                 1.4654
 IR Inten    --      9.5506                22.3707                10.9298

                     73                     74                     75
                      A                      A                      A
 Frequencies --   1519.0808              1523.9085              1528.7816
 Red. masses --      1.0903                 1.0534                 1.0558
 Frc consts  --      1.4823                 1.4414                 1.4539
 IR Inten    --      1.7023                 5.2488                 0.1074

                     76                     77                     78
                      A                      A                      A
 Frequencies --   1537.5390              1543.0443              1549.7698
 Red. masses --      1.0834                 1.0862                 1.0895
 Frc consts  --      1.5090                 1.5238                 1.5417
 IR Inten    --      0.6378                 4.9461                 3.2461

                     79                     80                     81
                      A                      A                      A
 Frequencies --   1555.5727              1698.9229              1808.3065
 Red. masses --      1.1056                 1.0879                 8.7345
 Frc consts  --      1.5763                 1.8500                16.8279
 IR Inten    --     11.0546                33.5753               319.4080

                     82                     83                     84
                      A                      A                      A
 Frequencies --   1811.6056              2920.6180              2933.0755
 Red. masses --      7.7764                 1.0741                 1.0735
 Frc consts  --     15.0369                 5.3979                 5.4412
 IR Inten    --    364.9651                46.7059                84.9907

                     85                     86                     87
                      A                      A                      A
 Frequencies --   2952.3188              3023.6118              3025.4681
 Red. masses --      1.0725                 1.0683                 1.0728
 Frc consts  --      5.5075                 5.7544                 5.7854
 IR Inten    --     60.2741                21.4030                84.8342

                     88                     89                     90
                      A                      A                      A
 Frequencies --   3054.7342              3056.9842              3060.9664
 Red. masses --      1.0369                 1.0674                 1.0872
 Frc consts  --      5.7008                 5.8770                 6.0019
 IR Inten    --     17.8476                27.1108                14.8943

                     91                     92                     93
                      A                      A                      A
 Frequencies --   3073.0779              3083.6996              3116.9439
 Red. masses --      1.0879                 1.0873                 1.0988
 Frc consts  --      6.0533                 6.0919                 6.2899
 IR Inten    --     51.7013                35.6278                11.9373

                     94                     95                     96
                      A                      A                      A
 Frequencies --   3120.5280              3121.8155              3124.1533
 Red. masses --      1.0893                 1.0943                 1.0984
 Frc consts  --      6.2497                 6.2837                 6.3163
 IR Inten    --     15.4981                12.5233                34.2117

                     97                     98                     99
                      A                      A                      A
 Frequencies --   3137.0055              3151.2730              3464.1347
 Red. masses --      1.1030                 1.0916                 1.0499
 Frc consts  --      6.3951                 6.3869                 7.4232
 IR Inten    --     30.8048                24.4982                 2.4334

                    100                    101                    102
                      A                      A                      A
 Frequencies --   3546.9071              3576.7862              3579.8941
 Red. masses --      1.0917                 1.0750                 1.0754
 Frc consts  --      8.0922                 8.1028                 8.1200
 IR Inten    --      0.9636                26.0191                44.7164

 - Thermochemistry -
 -------------------
 Temperature   298.150 Kelvin.  Pressure   1.00000 Atm.
 Atom     1 has atomic number  6 and mass  12.00000

 Molecular mass:   228.15863 amu.
 Principal axes and moments of inertia in atomic units:
                           1         2         3
     Eigenvalues --  2132.895767049.405697179.94887
           X            0.99977   0.01937  -0.00908
           Y           -0.02080   0.97940  -0.20084
           Z            0.00500   0.20098   0.97958
 This molecule is an asymmetric top.
 Rotational symmetry number  1.
 Warning -- assumption of classical behavior for rotation
           may cause significant error
 Rotational temperatures (Kelvin)      0.04061     0.01229     0.01206
 Rotational constants (GHZ):           0.84615     0.25601     0.25136
 Zero-point vibrational energy     832229.9 (Joules/Mol)
                                  198.90772 (Kcal/Mol)
 Warning -- explicit consideration of  25 degrees of freedom as
           vibrations may cause significant error
 Vibrational temperatures:     28.87    43.17    60.12    86.86    95.26
          (Kelvin)            124.62   154.10   188.02   213.65   222.26
                              291.31   314.97   341.96   378.78   405.93
                              442.25   500.64   514.49   573.84   616.90
                              640.12   653.82   780.04   831.01   871.16
                              925.30   985.08  1017.23  1100.89  1128.50
                             1158.23  1170.27  1218.59  1236.60  1265.94
                             1319.52  1340.59  1374.30  1425.20  1437.76
                             1455.40  1483.89  1489.60  1562.55  1571.65
                             1574.57  1649.66  1652.71  1675.28  1698.51
                             1711.81  1737.07  1775.19  1792.70  1828.23
                             1856.50  1881.48  1888.37  1922.57  1932.93
                             1954.80  1973.20  1989.14  2001.94  2026.05
                             2052.26  2062.97  2073.87  2081.79  2087.45
                             2143.67  2170.64  2185.62  2192.56  2199.58
                             2212.18  2220.10  2229.77  2238.12  2444.37
                             2601.75  2606.50  4202.12  4220.04  4247.73
                             4350.30  4352.97  4395.08  4398.32  4404.05
                             4421.47  4436.76  4484.59  4489.74  4491.60
                             4494.96  4513.45  4533.98  4984.12  5103.21
                             5146.20  5150.67

 Zero-point correction=                           0.316980 (Hartree/Particle)
 Thermal correction to Energy=                    0.334367
 Thermal correction to Enthalpy=                  0.335311
 Thermal correction to Gibbs Free Energy=         0.269432
 Sum of electronic and zero-point Energies=           -762.307350
 Sum of electronic and thermal Energies=              -762.289962
 Sum of electronic and thermal Enthalpies=            -762.289018
 Sum of electronic and thermal Free Energies=         -762.354898

                     E (Thermal)             CV                S
                      KCal/Mol        Cal/Mol-Kelvin    Cal/Mol-Kelvin
 Total                  209.819             63.287            138.655
 Electronic               0.000              0.000              0.000
 Translational            0.889              2.981             42.177
 Rotational               0.889              2.981             33.045
 Vibrational            208.041             57.326             63.433
 Vibration     1          0.593              1.986              6.628
 Vibration     2          0.594              1.984              5.829
 Vibration     3          0.594              1.980              5.173
 Vibration     4          0.597              1.973              4.445
 Vibration     5          0.598              1.970              4.263
 Vibration     6          0.601              1.959              3.735
 Vibration     7          0.606              1.944              3.321
 Vibration     8          0.612              1.923              2.936
 Vibration     9          0.618              1.904              2.691
 Vibration    10          0.620              1.898              2.616
 Vibration    11          0.639              1.836              2.111
 Vibration    12          0.647              1.812              1.968
 Vibration    13          0.656              1.783              1.820
 Vibration    14          0.670              1.740              1.640
 Vibration    15          0.681              1.707              1.521
 Vibration    16          0.697              1.660              1.376
 Vibration    17          0.726              1.579              1.175
 Vibration    18          0.733              1.560              1.133
 Vibration    19          0.765              1.473              0.967
 Vibration    20          0.790              1.408              0.863
 Vibration    21          0.804              1.372              0.811
 Vibration    22          0.813              1.351              0.782
 Vibration    23          0.897              1.157              0.561
 Vibration    24          0.934              1.080              0.490
 Vibration    25          0.964              1.020              0.440

                           ! Non-Optimized Parameters !
 Normal termination of Gaussian 16 at Thu Dec 10 21:33:52 2020.

 ----------------------------------------------------------------------
 # B3LYP/6-311++G(d,p) empiricaldispersion=gd3bj scf=xqc pop=npa geom=c
 heck
 ----------------------------------------------------------------------

 --------------------------------------
 CID_62063416_JID_6090_Energie_neutraal
 --------------------------------------
 Structure from the checkpoint file:  "JID_6090.chk"
 Charge =  0 Multiplicity = 1

 SCF Done:  E(RB3LYP) =  -762.860119384     A.U. after   15 cycles
 Normal termination of Gaussian 16 at Thu Dec 10 21:39:27 2020.

 ----------------------------------------------------------------------
 # B3LYP/6-311++G(d,p) empiricaldispersion=gd3bj scf=xqc pop=npa geom=c
 heck
 ----------------------------------------------------------------------

 ------------------------------------
 CID_62063416_JID_6090_Energie_kation
 ------------------------------------
 Structure from the checkpoint file:  "JID_6090.chk"
 Charge =  1 Multiplicity = 2

 SCF Done:  E(UB3LYP) =  -762.564990554     A.U. after   26 cycles
 Normal termination of Gaussian 16 at Thu Dec 10 21:54:29 2020.
 Gaussian 16:  ES64L-G16RevA.03 25-Dec-2016

 ----------------------------------------------------------------------
 # B3LYP/6-311++G(d,p) empiricaldispersion=gd3bj scf=xqc pop=npa geom=c
 heck
 ----------------------------------------------------------------------

 -----------------------------------
 CID_62063416_JID_6090_Energie_anion
 -----------------------------------
 Structure from the checkpoint file:  "JID_6090.chk"
 Charge = -1 Multiplicity = 2

                         Standard orientation:
 ---------------------------------------------------------------------
 Center     Atomic      Atomic             Coordinates (Angstroms)
 Number     Number       Type             X           Y           Z
 ---------------------------------------------------------------------
      1          6           0        3.390194    2.570499   -0.251095
      2          6           0        3.537557    1.053449   -0.198885
      3          7           0        2.743641    0.494104    0.900173
      4          6           0        2.364002   -0.820361    1.016289
      5          8           0        2.297136   -1.404377    2.085822
      6          7           0        2.054507   -1.490809   -0.192651
      7          6           0        1.174433   -1.175485   -1.234654
      8          8           0        0.980389   -1.996005   -2.111142
      9          6           0        0.406425    0.146860   -1.199756
     10          7           0       -0.881866   -0.058103   -0.552587
     11          6           0       -0.852177   -0.136012    0.909184
     12          6           0       -2.340568   -0.106676    1.265663
     13          6           0       -2.978558    0.811174    0.182729
     14          6           0       -1.844762    1.003869   -0.851247
     15          6           0       -4.235939    0.204887   -0.440926
     16          7           0       -5.298907    0.075530    0.561281
     17          1           0        3.727214    3.032708    0.684296
     18          1           0        2.346261    2.857288   -0.413537
     19          1           0        3.996516    2.983087   -1.063757
     20          1           0        3.199360    0.604959   -1.133731
     21          1           0        4.595933    0.778888   -0.080590
     22          1           0        2.957528    0.875581    1.815285
     23          1           0        2.206121   -2.491791   -0.122879
     24          1           0        0.971675    0.964412   -0.727792
     25          1           0        0.227035    0.403817   -2.246611
     26          1           0       -0.326157    0.733217    1.351092
     27          1           0       -0.344387   -1.041220    1.251878
     28          1           0       -2.747121   -1.122127    1.187074
     29          1           0       -2.520104    0.248514    2.283754
     30          1           0       -3.256384    1.774360    0.622185
     31          1           0       -2.188601    0.917653   -1.888791
     32          1           0       -1.388710    2.006653   -0.733336
     33          1           0       -4.605211    0.874221   -1.227982
     34          1           0       -3.953687   -0.744577   -0.932918
     35          1           0       -6.139300   -0.296660    0.122090
     36          1           0       -5.023437   -0.614206    1.259505
 ---------------------------------------------------------------------

 SCF Done:  E(UB3LYP) =  -762.853596529     A.U. after   33 cycles
 SCF Done:  E(UB3LYP) =  -762.853596529     a.u. after    1 cycles

 The electronic state is 2-A.
 Alpha  occ. eigenvalues --  -19.00194 -19.00082 -14.25525 -14.24419 -14.21506
 Alpha  occ. eigenvalues --  -14.21061 -10.20885 -10.18308 -10.11946 -10.10837
 Alpha  occ. eigenvalues --  -10.10507 -10.10135 -10.09654 -10.08444 -10.07805
 Alpha  occ. eigenvalues --  -10.07101  -0.97013  -0.95010  -0.84893  -0.84273
 Alpha  occ. eigenvalues --   -0.81431  -0.80036  -0.70350  -0.66807  -0.64472
 Alpha  occ. eigenvalues --   -0.62011  -0.56043  -0.55359  -0.54181  -0.51035
 Alpha  occ. eigenvalues --   -0.48063  -0.47473  -0.43287  -0.41407  -0.41347
 Alpha  occ. eigenvalues --   -0.40769  -0.39051  -0.37991  -0.36631  -0.35953
 Alpha  occ. eigenvalues --   -0.35463  -0.34479  -0.33587  -0.32762  -0.31899
 Alpha  occ. eigenvalues --   -0.31385  -0.30532  -0.29448  -0.28738  -0.28572
 Alpha  occ. eigenvalues --   -0.27427  -0.27009  -0.26361  -0.24768  -0.23916
 Alpha  occ. eigenvalues --   -0.23632  -0.20728  -0.18245  -0.17364  -0.16495
 Alpha  occ. eigenvalues --   -0.16193  -0.12824   0.03875
 Alpha virt. eigenvalues --    0.05144   0.06457   0.07142   0.07558   0.08148
 Alpha virt. eigenvalues --    0.08280   0.08987   0.09757   0.10240   0.10437
 Alpha virt. eigenvalues --    0.10968   0.11533   0.11896   0.12096   0.12593

  Beta  occ. eigenvalues --  -19.00103 -19.00009 -14.25555 -14.24417 -14.21483
  Beta  occ. eigenvalues --  -14.21038 -10.20793 -10.18182 -10.11922 -10.10835
  Beta  occ. eigenvalues --  -10.10498 -10.10122 -10.09647 -10.08442 -10.07795
  Beta  occ. eigenvalues --  -10.07039  -0.96869  -0.94834  -0.84854  -0.84209
  Beta  occ. eigenvalues --   -0.81396  -0.80000  -0.70313  -0.66735  -0.64446
  Beta  occ. eigenvalues --   -0.61915  -0.55968  -0.55214  -0.54061  -0.50967
  Beta  occ. eigenvalues --   -0.48009  -0.47449  -0.43232  -0.41335  -0.41275
  Beta  occ. eigenvalues --   -0.40716  -0.38983  -0.37887  -0.36527  -0.35874
  Beta  occ. eigenvalues --   -0.35405  -0.34393  -0.33387  -0.32644  -0.31837
  Beta  occ. eigenvalues --   -0.31350  -0.30391  -0.29234  -0.28646  -0.28535
  Beta  occ. eigenvalues --   -0.27353  -0.26956  -0.26193  -0.24742  -0.23894
  Beta  occ. eigenvalues --   -0.23612  -0.20617  -0.18143  -0.17240  -0.16388
  Beta  occ. eigenvalues --   -0.16149  -0.12743
  Beta virt. eigenvalues --    0.05674   0.06513   0.07451   0.07518   0.07990
  Beta virt. eigenvalues --    0.08475   0.08703   0.09267   0.10012   0.10360
  Beta virt. eigenvalues --    0.10736   0.11230   0.11669   0.12077   0.12482

 Mulliken charges and spin densities:
               1          2
     1  C    1.326713  -1.821603
     2  C   -0.249197   0.062043
     3  N   -0.105828  -0.067253
     4  C   -0.119510   0.050685
     5  O   -0.310289   0.030589
     6  N   -0.186648  -0.008011
     7  C   -0.259235   0.208748
     8  O   -0.323873   0.039358
     9  C   -0.379900   0.259509
    10  N    0.237110   0.014402
    11  C   -0.030865  -0.162658
    12  C   -0.668936  -0.132843
    13  C   -0.055028   0.453702
    14  C   -0.011171  -0.439522
    15  C    0.026758  -0.659153
    16  N   -0.339283  -0.001476
    17  H   -0.424403   0.566241
    18  H   -0.743838   0.902788
    19  H   -0.347819   0.491222
    20  H    0.208072  -0.042192
    21  H   -0.590082   0.788369
    22  H    0.212681   0.096895
    23  H    0.336669  -0.003582
    24  H    1.228238  -1.188848
    25  H   -0.036213   0.243991
    26  H    0.047730   0.095851
    27  H    0.119661   0.073628
    28  H    0.089831   0.053099
    29  H    0.053498   0.114398
    30  H    0.113788   0.088568
    31  H    0.159141   0.010950
    32  H   -0.111601   0.253144
    33  H   -0.025988   0.174000
    34  H    0.086654   0.073186
    35  H   -0.002518   0.238991
    36  H    0.075683   0.142786
 Sum of Mulliken charges =  -1.00000   1.00000

 Dipole moment (field-independent basis, Debye):
    X=             -3.3904    Y=             -2.7961    Z=             -0.3798  Tot=              4.4110
 Quadrupole moment (field-independent basis, Debye-Ang):
   XX=           -191.0919   YY=           -145.7642   ZZ=           -136.5826
   XY=            -12.8393   XZ=              0.7663   YZ=             -3.7845

 Summary of Natural Population Analysis:

                                       Natural Population
                Natural  -----------------------------------------------
    Atom  No    Charge         Core      Valence    Rydberg      Total
 -----------------------------------------------------------------------
      C    1   -0.28858      0.99967     2.28339    0.00552     3.28858
      C    2   -0.08798      0.99962     2.07794    0.01042     3.08798
      N    3   -0.32924      0.99967     2.81960    0.00997     3.82924
      C    4    0.41907      0.99970     1.55722    0.02401     2.58093
      O    5   -0.31491      0.99987     3.30986    0.00518     4.31491
      N    6   -0.34898      0.99964     2.84067    0.00867     3.84898
      C    7    0.36246      0.99969     1.61512    0.02273     2.63754
      O    8   -0.29563      0.99987     3.28973    0.00603     4.29563
      C    9   -0.13146      0.99957     2.12048    0.01141     3.13146
      N   10   -0.27524      0.99970     2.76430    0.01124     3.77524
      C   11   -0.08977      0.99962     2.07912    0.01103     3.08977
      C   12   -0.19111      0.99962     2.18411    0.00738     3.19111
      C   13   -0.11970      0.99959     2.10902    0.01109     3.11970
      C   14   -0.07983      0.99961     2.06886    0.01136     3.07983
      C   15   -0.08549      0.99960     2.07421    0.01168     3.08549
      N   16   -0.42245      0.99977     2.91257    0.01010     3.92245
      H   17    0.10061      0.00000     0.39666    0.00273     0.39939
      H   18    0.10110      0.00000     0.39715    0.00174     0.39890
      H   19    0.10446      0.00000     0.39379    0.00176     0.39554
      H   20    0.09663      0.00000     0.40125    0.00212     0.40337
      H   21    0.09201      0.00000     0.40631    0.00168     0.40799
      H   22    0.19483      0.00000     0.30297    0.00219     0.30517
      H   23    0.20315      0.00000     0.29502    0.00183     0.29685
      H   24    0.09570      0.00000     0.40196    0.00234     0.40430
      H   25    0.10783      0.00000     0.39102    0.00115     0.39217
      H   26    0.08360      0.00000     0.41481    0.00160     0.41640
      H   27    0.10354      0.00000     0.39515    0.00131     0.39646
      H   28    0.09549      0.00000     0.40321    0.00130     0.40451
      H   29    0.10245      0.00000     0.39671    0.00084     0.39755
      H   30    0.10153      0.00000     0.39726    0.00121     0.39847
      H   31    0.09550      0.00000     0.40323    0.00127     0.40450
      H   32    0.08412      0.00000     0.41448    0.00140     0.41588
      H   33    0.08921      0.00000     0.40974    0.00105     0.41079
      H   34    0.08092      0.00000     0.41732    0.00175     0.41908
      H   35    0.17411      0.00000     0.32421    0.00168     0.32589
      H   36    0.17205      0.00000     0.32624    0.00171     0.32795
 =======================================================================
   * Total *    0.00000     15.99484    45.79468    0.21049    62.00000

 Normal termination of Gaussian 16 at Thu Dec 10 22:15:19 2020.
