 Gaussian 16, Revision A.03,

 -----------------------------------------------------------
 # opt freq B3LYP/6-31G(d) empiricaldispersion=gd3bj scf=xqc
 -----------------------------------------------------------

 -------------------------------
 CID_141444819_JID_6010_neutraal
 -------------------------------
 Symbolic Z-matrix:
 Charge =  0 Multiplicity = 1

 SCF Done:  E(RB3LYP) =  -757.716531458     A.U. after   15 cycles
 SCF Done:  E(RB3LYP) =  -757.730500272     A.U. after   12 cycles
 SCF Done:  E(RB3LYP) =  -757.731257604     A.U. after   12 cycles
 SCF Done:  E(RB3LYP) =  -757.731174332     A.U. after   12 cycles
 SCF Done:  E(RB3LYP) =  -757.731486073     A.U. after   11 cycles
 SCF Done:  E(RB3LYP) =  -757.731503893     A.U. after   10 cycles
 SCF Done:  E(RB3LYP) =  -757.731508509     A.U. after   10 cycles
 SCF Done:  E(RB3LYP) =  -757.731510652     A.U. after    8 cycles
 SCF Done:  E(RB3LYP) =  -757.731513844     A.U. after    9 cycles
 SCF Done:  E(RB3LYP) =  -757.731515603     A.U. after    9 cycles
 SCF Done:  E(RB3LYP) =  -757.731520249     A.U. after    8 cycles
 SCF Done:  E(RB3LYP) =  -757.731520677     A.U. after    8 cycles
 SCF Done:  E(RB3LYP) =  -757.731520826     A.U. after    8 cycles
 SCF Done:  E(RB3LYP) =  -757.731520915     A.U. after    8 cycles
 SCF Done:  E(RB3LYP) =  -757.731520944     A.U. after    7 cycles
 Optimization completed.
    -- Stationary point found.
 Normal termination of Gaussian 16 at Thu Dec 10 21:11:24 2020.

 --------------------------------------------------------------------
 #N Geom=AllCheck Guess=TCheck SCRF=Check GenChk RB3LYP/6-31G(d) Freq
 --------------------------------------------------------------------

 Structure from the checkpoint file:  "JID_6010.chk"
 -------------------------------
 CID_141444819_JID_6010_neutraal
 -------------------------------
 Charge =  0 Multiplicity = 1

 SCF Done:  E(RB3LYP) =  -757.731520944     A.U. after    1 cycles

  Exact polarizability: 183.051  -1.523 130.792  -2.251   1.294  85.442
 Approx polarizability: 252.763 -10.856 209.284  -2.788   4.055 131.781

                      1                      2                      3
                      A                      A                      A
 Frequencies --     28.8884                46.7461                53.7447
 Red. masses --      5.8466                 6.3123                 5.0344
 Frc consts  --      0.0029                 0.0081                 0.0086
 IR Inten    --      4.2314                 7.6333                 2.3259

                      4                      5                      6
                      A                      A                      A
 Frequencies --     68.0125                92.5169               108.1665
 Red. masses --      3.3564                 3.6654                 3.7224
 Frc consts  --      0.0091                 0.0185                 0.0257
 IR Inten    --      0.5216                 0.8871                 8.4109

                      7                      8                      9
                      A                      A                      A
 Frequencies --    153.1669               199.1830               219.3074
 Red. masses --      5.1960                 4.8624                 7.0327
 Frc consts  --      0.0718                 0.1137                 0.1993
 IR Inten    --      9.0346                 0.8868                 7.1856

                     10                     11                     12
                      A                      A                      A
 Frequencies --    276.2101               293.4875               351.9643
 Red. masses --      2.0069                 6.3997                 2.9271
 Frc consts  --      0.0902                 0.3248                 0.2136
 IR Inten    --      0.2762                 2.5653                 2.5867

                     13                     14                     15
                      A                      A                      A
 Frequencies --    370.1679               379.9098               386.2802
 Red. masses --      4.6497                 2.2431                 3.8659
 Frc consts  --      0.3754                 0.1908                 0.3399
 IR Inten    --      2.3981                 6.2499                 4.1785

                     16                     17                     18
                      A                      A                      A
 Frequencies --    428.4843               486.3350               521.4906
 Red. masses --      1.2558                 2.7441                 2.6123
 Frc consts  --      0.1358                 0.3824                 0.4186
 IR Inten    --    148.6310                17.5574                12.2831

                     19                     20                     21
                      A                      A                      A
 Frequencies --    556.9599               570.1985               615.5104
 Red. masses --      4.4771                 1.6687                 3.4662
 Frc consts  --      0.8183                 0.3197                 0.7737
 IR Inten    --      6.3872                34.2141                24.9972

                     22                     23                     24
                      A                      A                      A
 Frequencies --    678.1321               751.3948               778.2485
 Red. masses --      4.8601                 6.3538                 6.1004
 Frc consts  --      1.3168                 2.1136                 2.1769
 IR Inten    --     27.4663                22.1940                19.0582

                     25                     26                     27
                      A                      A                      A
 Frequencies --    811.3240               825.2358               859.1688
 Red. masses --      3.0804                 5.4966                 3.8677
 Frc consts  --      1.1947                 2.2054                 1.6821
 IR Inten    --      2.1290                 3.6123                14.8823

                     28                     29                     30
                      A                      A                      A
 Frequencies --    874.6416               888.5533               897.4939
 Red. masses --      1.8598                 2.0000                 1.9043
 Frc consts  --      0.8382                 0.9304                 0.9038
 IR Inten    --     16.6497                 2.1233                 1.2936

                     31                     32                     33
                      A                      A                      A
 Frequencies --    919.7304               936.9502               989.7268
 Red. masses --      1.2839                 4.1257                 4.2996
 Frc consts  --      0.6399                 2.1340                 2.4815
 IR Inten    --      0.2549                 1.8404                21.0428

                     34                     35                     36
                      A                      A                      A
 Frequencies --    993.4761              1000.4701              1026.7397
 Red. masses --      1.4828                 7.7316                 1.4421
 Frc consts  --      0.8623                 4.5596                 0.8957
 IR Inten    --      1.4827                32.5948                 0.1610

                     37                     38                     39
                      A                      A                      A
 Frequencies --   1048.5565              1083.4139              1107.2843
 Red. masses --     11.2779                 2.4304                 1.9618
 Frc consts  --      7.3057                 1.6808                 1.4172
 IR Inten    --     90.0670                 3.6132                 4.7500

                     40                     41                     42
                      A                      A                      A
 Frequencies --   1145.4455              1155.5263              1160.4211
 Red. masses --      1.0597                 1.4612                 1.7468
 Frc consts  --      0.8192                 1.1495                 1.3859
 IR Inten    --      0.0695                 0.6366                 2.0446

                     43                     44                     45
                      A                      A                      A
 Frequencies --   1165.5868              1166.7746              1175.4257
 Red. masses --      1.0652                 1.7699                 4.8235
 Frc consts  --      0.8527                 1.4196                 3.9265
 IR Inten    --      0.0816                24.7296                29.9387

                     46                     47                     48
                      A                      A                      A
 Frequencies --   1234.5959              1237.9019              1246.3628
 Red. masses --      2.3858                 2.4797                 2.2283
 Frc consts  --      2.1426                 2.2388                 2.0395
 IR Inten    --     11.2864                17.4748                19.2628

                     49                     50                     51
                      A                      A                      A
 Frequencies --   1275.6397              1310.3687              1319.4403
 Red. masses --      2.7221                 2.2197                 1.3025
 Frc consts  --      2.6098                 2.2456                 1.3360
 IR Inten    --      5.4579                 3.7632                 2.9921

                     52                     53                     54
                      A                      A                      A
 Frequencies --   1322.5514              1353.3305              1363.9084
 Red. masses --      2.2936                 4.0520                 1.8308
 Frc consts  --      2.3637                 4.3724                 2.0066
 IR Inten    --     10.9796                91.4342                57.8321

                     55                     56                     57
                      A                      A                      A
 Frequencies --   1388.0815              1405.3400              1493.0824
 Red. masses --      1.9840                 1.8051                 2.7843
 Frc consts  --      2.2523                 2.1005                 3.6571
 IR Inten    --     64.2437                34.8569                77.4971

                     58                     59                     60
                      A                      A                      A
 Frequencies --   1528.9824              1536.2777              1543.5268
 Red. masses --      1.0839                 1.0833                 1.5722
 Frc consts  --      1.4930                 1.5064                 2.2070
 IR Inten    --      4.4674                 3.2621               231.3392

                     61                     62                     63
                      A                      A                      A
 Frequencies --   1552.6454              1563.1990              1584.8836
 Red. masses --      2.3153                 1.1216                 8.9062
 Frc consts  --      3.2886                 1.6148                13.1806
 IR Inten    --     49.9118                 1.1146               129.4584

                     64                     65                     66
                      A                      A                      A
 Frequencies --   1638.8073              1645.4789              1819.5416
 Red. masses --      3.2200                 1.5148                 9.6138
 Frc consts  --      5.0952                 2.4165                18.7529
 IR Inten    --    631.8777               150.5375               253.9081

                     67                     68                     69
                      A                      A                      A
 Frequencies --   3016.0920              3022.7541              3035.2407
 Red. masses --      1.0609                 1.0524                 1.0575
 Frc consts  --      5.6859                 5.6653                 5.7399
 IR Inten    --     38.2615               115.2658                 5.2638

                     70                     71                     72
                      A                      A                      A
 Frequencies --   3052.2199              3069.5281              3072.4903
 Red. masses --      1.0590                 1.1093                 1.1103
 Frc consts  --      5.8129                 6.1583                 6.1757
 IR Inten    --     30.7209                32.4860                49.8052

                     73                     74                     75
                      A                      A                      A
 Frequencies --   3076.2658              3100.9150              3184.3327
 Red. masses --      1.1087                 1.1087                 1.0908
 Frc consts  --      6.1818                 6.2812                 6.5167
 IR Inten    --     47.7667                26.8892                37.9058

                     76                     77                     78
                      A                      A                      A
 Frequencies --   3221.3983              3570.6490              3691.4856
 Red. masses --      1.0913                 1.0459                 1.1027
 Frc consts  --      6.6724                 7.8565                 8.8534
 IR Inten    --      3.0454                30.8676                24.6057

 - Thermochemistry -
 -------------------
 Temperature   298.150 Kelvin.  Pressure   1.00000 Atm.
 Atom     1 has atomic number  6 and mass  12.00000

 Molecular mass:   220.09603 amu.
 Principal axes and moments of inertia in atomic units:
                           1         2         3
     Eigenvalues --  1278.537757842.641578721.48257
           X            0.99998   0.00510  -0.00333
           Y           -0.00512   0.99996  -0.00696
           Z            0.00329   0.00697   0.99997
 This molecule is an asymmetric top.
 Rotational symmetry number  1.
 Warning -- assumption of classical behavior for rotation
           may cause significant error
 Rotational temperatures (Kelvin)      0.06774     0.01104     0.00993
 Rotational constants (GHZ):           1.41157     0.23012     0.20693
 Zero-point vibrational energy     586910.5 (Joules/Mol)
                                  140.27497 (Kcal/Mol)
 Warning -- explicit consideration of  21 degrees of freedom as
           vibrations may cause significant error
 Vibrational temperatures:     41.56    67.26    77.33    97.85   133.11
          (Kelvin)            155.63   220.37   286.58   315.53   397.40
                              422.26   506.40   532.59   546.61   555.77
                              616.49   699.73   750.31   801.34   820.39
                              885.58   975.68  1081.09  1119.73  1167.31
                             1187.33  1236.15  1258.41  1278.43  1291.29
                             1323.29  1348.06  1424.00  1429.39  1439.45
                             1477.25  1508.64  1558.79  1593.14  1648.04
                             1662.54  1669.59  1677.02  1678.73  1691.18
                             1776.31  1781.06  1793.24  1835.36  1885.33
                             1898.38  1902.86  1947.14  1962.36  1997.14
                             2021.97  2148.21  2199.86  2210.36  2220.79
                             2233.91  2249.09  2280.29  2357.88  2367.48
                             2617.91  4339.48  4349.07  4367.03  4391.46
                             4416.37  4420.63  4426.06  4461.53  4581.54
                             4634.87  5137.37  5311.22

 Zero-point correction=                           0.223542 (Hartree/Particle)
 Thermal correction to Energy=                    0.237667
 Thermal correction to Enthalpy=                  0.238611
 Thermal correction to Gibbs Free Energy=         0.180405
 Sum of electronic and zero-point Energies=           -757.507979
 Sum of electronic and thermal Energies=              -757.493854
 Sum of electronic and thermal Enthalpies=            -757.492910
 Sum of electronic and thermal Free Energies=         -757.551116

                     E (Thermal)             CV                S
                      KCal/Mol        Cal/Mol-Kelvin    Cal/Mol-Kelvin
 Total                  149.138             52.452            122.505
 Electronic               0.000              0.000              0.000
 Translational            0.889              2.981             42.070
 Rotational               0.889              2.981             32.836
 Vibrational            147.361             46.491             47.600
 Vibration     1          0.593              1.984              5.904
 Vibration     2          0.595              1.979              4.951
 Vibration     3          0.596              1.976              4.675
 Vibration     4          0.598              1.969              4.210
 Vibration     5          0.602              1.955              3.606
 Vibration     6          0.606              1.943              3.302
 Vibration     7          0.619              1.899              2.633
 Vibration     8          0.637              1.841              2.141
 Vibration     9          0.647              1.812              1.965
 Vibration    10          0.678              1.717              1.557
 Vibration    11          0.688              1.686              1.454
 Vibration    12          0.729              1.571              1.157
 Vibration    13          0.742              1.533              1.079
 Vibration    14          0.750              1.513              1.040
 Vibration    15          0.755              1.499              1.014
 Vibration    16          0.790              1.408              0.864
 Vibration    17          0.842              1.280              0.693
 Vibration    18          0.876              1.202              0.607
 Vibration    19          0.912              1.124              0.530
 Vibration    20          0.926              1.096              0.504
 Vibration    21          0.975              0.999              0.424

                           ! Non-Optimized Parameters !
 Normal termination of Gaussian 16 at Thu Dec 10 21:20:00 2020.

 ----------------------------------------------------------------------
 # B3LYP/6-311++G(d,p) empiricaldispersion=gd3bj scf=xqc pop=npa geom=c
 heck
 ----------------------------------------------------------------------

 ---------------------------------------
 CID_141444819_JID_6010_Energie_neutraal
 ---------------------------------------
 Structure from the checkpoint file:  "JID_6010.chk"
 Charge =  0 Multiplicity = 1

 SCF Done:  E(RB3LYP) =  -757.945762488     A.U. after   16 cycles
 Normal termination of Gaussian 16 at Thu Dec 10 21:23:34 2020.

 ----------------------------------------------------------------------
 # B3LYP/6-311++G(d,p) empiricaldispersion=gd3bj scf=xqc pop=npa geom=c
 heck
 ----------------------------------------------------------------------

 -------------------------------------
 CID_141444819_JID_6010_Energie_kation
 -------------------------------------
 Structure from the checkpoint file:  "JID_6010.chk"
 Charge =  1 Multiplicity = 2

 SCF Done:  E(UB3LYP) =  -757.636277371     A.U. after   31 cycles
 Normal termination of Gaussian 16 at Thu Dec 10 21:33:36 2020.
 Gaussian 16:  ES64L-G16RevA.03 25-Dec-2016

 ----------------------------------------------------------------------
 # B3LYP/6-311++G(d,p) empiricaldispersion=gd3bj scf=xqc pop=npa geom=c
 heck
 ----------------------------------------------------------------------

 ------------------------------------
 CID_141444819_JID_6010_Energie_anion
 ------------------------------------
 Structure from the checkpoint file:  "JID_6010.chk"
 Charge = -1 Multiplicity = 2

                         Standard orientation:
 ---------------------------------------------------------------------
 Center     Atomic      Atomic             Coordinates (Angstroms)
 Number     Number       Type             X           Y           Z
 ---------------------------------------------------------------------
      1          6           0        2.128686    1.135254   -0.035644
      2          6           0        2.970253   -0.165499   -0.027760
      3          6           0        1.653718   -0.952748   -0.246272
      4          7           0        0.957420    0.327324   -0.385282
      5          6           0       -0.345532    0.626362   -0.154211
      6          7           0       -0.636908    1.915509    0.101772
      7          6           0       -1.929014    2.196511    0.290171
      8          7           0       -2.965906    1.359991    0.259158
      9          6           0       -2.654705    0.071939    0.018689
     10          6           0       -1.354326   -0.361981   -0.192846
     11          6           0       -3.820903   -0.891938   -0.051973
     12          8           0       -4.881828   -0.599072   -0.570661
     13          7           0       -3.553647   -2.141994    0.462326
     14          6           0        4.183845   -0.358321   -0.951757
     15          8           0        5.037502   -0.703500    0.161137
     16          6           0        3.955729   -0.511883    1.097726
     17          1           0        2.398980    1.882750   -0.789243
     18          1           0        2.036244    1.630952    0.938816
     19          1           0        1.328052   -1.538328    0.626232
     20          1           0        1.617544   -1.590236   -1.138258
     21          1           0       -2.160085    3.239967    0.496962
     22          1           0       -1.128873   -1.397483   -0.421049
     23          1           0       -2.831972   -2.247753    1.161649
     24          1           0       -4.351377   -2.760037    0.539708
     25          1           0        4.100589   -1.177261   -1.678501
     26          1           0        4.524462    0.549291   -1.467632
     27          1           0        4.159494    0.303990    1.804328
     28          1           0        3.728336   -1.427260    1.660637
 ---------------------------------------------------------------------

 SCF Done:  E(UB3LYP) =  -757.953353694     A.U. after   33 cycles
 SCF Done:  E(UB3LYP) =  -757.953353694     a.u. after    1 cycles

 The electronic state is 2-A.
 Alpha  occ. eigenvalues --  -19.04036 -18.95545 -14.22596 -14.20906 -14.16512
 Alpha  occ. eigenvalues --  -14.16484 -10.14049 -10.13650 -10.13439 -10.12283
 Alpha  occ. eigenvalues --  -10.11484 -10.11271 -10.10918 -10.09626 -10.06806
 Alpha  occ. eigenvalues --  -10.04547  -0.96655  -0.90872  -0.88066  -0.83495
 Alpha  occ. eigenvalues --   -0.78181  -0.75166  -0.69312  -0.64471  -0.61669
 Alpha  occ. eigenvalues --   -0.60572  -0.58222  -0.53299  -0.50356  -0.45984
 Alpha  occ. eigenvalues --   -0.45424  -0.43520  -0.41683  -0.40964  -0.40641
 Alpha  occ. eigenvalues --   -0.38297  -0.36954  -0.35013  -0.33808  -0.33766
 Alpha  occ. eigenvalues --   -0.33098  -0.31379  -0.30605  -0.30210  -0.29284
 Alpha  occ. eigenvalues --   -0.27620  -0.27008  -0.24800  -0.24571  -0.22622
 Alpha  occ. eigenvalues --   -0.20332  -0.17761  -0.16513  -0.16430  -0.15856
 Alpha  occ. eigenvalues --   -0.13399  -0.11705  -0.10880   0.03928
 Alpha virt. eigenvalues --    0.06024   0.07230   0.07706   0.08310   0.08714
 Alpha virt. eigenvalues --    0.09880   0.10494   0.10812   0.11027   0.11108
 Alpha virt. eigenvalues --    0.11862   0.12811   0.13495   0.14806   0.14927

  Beta  occ. eigenvalues --  -19.04034 -18.95356 -14.22602 -14.20863 -14.16494
  Beta  occ. eigenvalues --  -14.16172 -10.14038 -10.13629 -10.13337 -10.12264
  Beta  occ. eigenvalues --  -10.11447 -10.11263 -10.10920 -10.09577 -10.06457
  Beta  occ. eigenvalues --  -10.04497  -0.96646  -0.90534  -0.87976  -0.83224
  Beta  occ. eigenvalues --   -0.78016  -0.74837  -0.69113  -0.64230  -0.61634
  Beta  occ. eigenvalues --   -0.60508  -0.58054  -0.52824  -0.50190  -0.45878
  Beta  occ. eigenvalues --   -0.45325  -0.43395  -0.41630  -0.40897  -0.40590
  Beta  occ. eigenvalues --   -0.38150  -0.36839  -0.34954  -0.33768  -0.33608
  Beta  occ. eigenvalues --   -0.32931  -0.31141  -0.30492  -0.29936  -0.28772
  Beta  occ. eigenvalues --   -0.27130  -0.26563  -0.24773  -0.24435  -0.22592
  Beta  occ. eigenvalues --   -0.19874  -0.17747  -0.16212  -0.15303  -0.14992
  Beta  occ. eigenvalues --   -0.13126  -0.11453  -0.10400
  Beta virt. eigenvalues --    0.06154   0.07625   0.07803   0.08334   0.08726
  Beta virt. eigenvalues --    0.09081   0.10230   0.10425   0.10962   0.11116
  Beta virt. eigenvalues --    0.11350   0.11784   0.12946   0.13474   0.14850

 Mulliken charges and spin densities:
               1          2
     1  C   -0.131727  -0.318249
     2  C   -1.180692   1.695741
     3  C    0.872802  -1.497605
     4  N    0.114991   0.039300
     5  C   -0.922774   0.367400
     6  N   -0.234874   0.138807
     7  C    0.022462   0.108792
     8  N   -0.078403   0.018226
     9  C   -0.483807  -0.254401
    10  C    0.885591   0.105893
    11  C   -0.175830   0.091448
    12  O   -0.375217   0.060971
    13  N   -0.356858  -0.019186
    14  C    0.037516  -0.281577
    15  O   -0.200099   0.015497
    16  C    0.562361  -0.815900
    17  H    0.144002   0.034053
    18  H    0.083385   0.091333
    19  H   -0.407300   0.581252
    20  H    0.130318   0.034073
    21  H    0.154504   0.011207
    22  H    0.262728  -0.065542
    23  H    0.049431   0.175296
    24  H    0.270349   0.013848
    25  H    0.046929   0.103573
    26  H    0.084056   0.063301
    27  H    0.052225   0.102277
    28  H   -0.226070   0.400172
 Sum of Mulliken charges =  -1.00000   1.00000

 Dipole moment (field-independent basis, Debye):
    X=              6.6299    Y=             -0.7908    Z=             -0.9958  Tot=              6.7508
 Quadrupole moment (field-independent basis, Debye-Ang):
   XX=           -184.5275   YY=           -114.3189   ZZ=           -108.7465
   XY=             12.5727   XZ=            -10.9699   YZ=              2.7176

 Summary of Natural Population Analysis:

                                       Natural Population
                Natural  -----------------------------------------------
    Atom  No    Charge         Core      Valence    Rydberg      Total
 -----------------------------------------------------------------------
      C    1   -0.06459      0.99961     2.05618    0.00880     3.06459
      C    2   -0.07472      0.99956     2.06373    0.01143     3.07472
      C    3   -0.06700      0.99961     2.05733    0.01006     3.06700
      N    4   -0.25079      0.99963     2.74049    0.01066     3.75079
      C    5    0.21742      0.99952     1.76801    0.01504     2.78258
      N    6   -0.24025      0.99967     2.73073    0.00985     3.74025
      C    7    0.14926      0.99967     1.83247    0.01859     2.85074
      N    8   -0.25188      0.99969     2.74251    0.00969     3.75188
      C    9    0.13123      0.99949     1.85442    0.01485     2.86877
      C   10   -0.15667      0.99949     2.14919    0.00799     3.15667
      C   11    0.33815      0.99968     1.63717    0.02500     2.66185
      O   12   -0.29379      0.99987     3.28826    0.00565     4.29379
      N   13   -0.41177      0.99972     2.90412    0.00793     3.91177
      C   14    0.00477      0.99958     1.98539    0.01026     2.99523
      O   15   -0.30649      0.99991     3.29841    0.00817     4.30649
      C   16    0.00267      0.99958     1.98497    0.01278     2.99733
      H   17    0.09386      0.00000     0.40462    0.00151     0.40614
      H   18    0.09818      0.00000     0.39995    0.00187     0.40182
      H   19    0.09904      0.00000     0.39805    0.00291     0.40096
      H   20    0.09123      0.00000     0.40750    0.00127     0.40877
      H   21    0.07371      0.00000     0.42514    0.00115     0.42629
      H   22    0.10471      0.00000     0.39392    0.00137     0.39529
      H   23    0.19167      0.00000     0.30570    0.00264     0.30833
      H   24    0.18595      0.00000     0.31207    0.00199     0.31405
      H   25    0.08295      0.00000     0.41538    0.00167     0.41705
      H   26    0.08181      0.00000     0.41657    0.00162     0.41819
      H   27    0.08368      0.00000     0.41486    0.00146     0.41632
      H   28    0.08768      0.00000     0.41034    0.00199     0.41232
 =======================================================================
   * Total *    0.00000     15.99430    41.79749    0.20821    58.00000

 Normal termination of Gaussian 16 at Thu Dec 10 21:45:18 2020.
