 Gaussian 16, Revision A.03,

 -----------------------------------------------------------
 # opt freq B3LYP/6-31G(d) empiricaldispersion=gd3bj scf=xqc
 -----------------------------------------------------------

 ------------------------------
 CID_83106960_JID_8072_neutraal
 ------------------------------
 Symbolic Z-matrix:
 Charge =  0 Multiplicity = 1

 SCF Done:  E(RB3LYP) =  -885.733937349     A.U. after   15 cycles
 SCF Done:  E(RB3LYP) =  -885.744413212     A.U. after   13 cycles
 SCF Done:  E(RB3LYP) =  -885.748110126     A.U. after   13 cycles
 SCF Done:  E(RB3LYP) =  -885.750284924     A.U. after   12 cycles
 SCF Done:  E(RB3LYP) =  -885.751198332     A.U. after   12 cycles
 SCF Done:  E(RB3LYP) =  -885.751987008     A.U. after   12 cycles
 SCF Done:  E(RB3LYP) =  -885.753275895     A.U. after   13 cycles
 SCF Done:  E(RB3LYP) =  -885.753957920     A.U. after   13 cycles
 SCF Done:  E(RB3LYP) =  -885.754943796     A.U. after   13 cycles
 SCF Done:  E(RB3LYP) =  -885.755364320     A.U. after   11 cycles
 SCF Done:  E(RB3LYP) =  -885.755662686     A.U. after   11 cycles
 SCF Done:  E(RB3LYP) =  -885.755676695     A.U. after   11 cycles
 SCF Done:  E(RB3LYP) =  -885.755684068     A.U. after    9 cycles
 SCF Done:  E(RB3LYP) =  -885.755685405     A.U. after    8 cycles
 SCF Done:  E(RB3LYP) =  -885.755685707     A.U. after    8 cycles
 Optimization completed.
    -- Stationary point found.
 Normal termination of Gaussian 16 at Fri Dec 11 18:48:51 2020.

 --------------------------------------------------------------------
 #N Geom=AllCheck Guess=TCheck SCRF=Check GenChk RB3LYP/6-31G(d) Freq
 --------------------------------------------------------------------

 Structure from the checkpoint file:  "JID_8072.chk"
 ------------------------------
 CID_83106960_JID_8072_neutraal
 ------------------------------
 Charge =  0 Multiplicity = 1

 SCF Done:  E(RB3LYP) =  -885.755685707     A.U. after    1 cycles

  Exact polarizability: 197.164  -6.697 156.612   1.693  -7.783  92.705
 Approx polarizability: 266.519 -17.965 249.912   3.571 -18.735 141.249

                      1                      2                      3
                      A                      A                      A
 Frequencies --     36.4422                42.5694                75.6140
 Red. masses --      5.8296                 4.8710                 7.6345
 Frc consts  --      0.0046                 0.0052                 0.0257
 IR Inten    --      0.9624                 0.2011                 2.0217

                      4                      5                      6
                      A                      A                      A
 Frequencies --     98.3872               131.1340               148.8841
 Red. masses --      5.6848                 4.8895                 3.8730
 Frc consts  --      0.0324                 0.0495                 0.0506
 IR Inten    --      1.8152                 1.7434                 1.2145

                      7                      8                      9
                      A                      A                      A
 Frequencies --    160.8263               173.4524               196.2928
 Red. masses --      1.2129                 5.1475                 4.8161
 Frc consts  --      0.0185                 0.0912                 0.1093
 IR Inten    --      8.5202                 2.0513                 5.5763

                     10                     11                     12
                      A                      A                      A
 Frequencies --    211.6426               224.8199               231.5768
 Red. masses --      4.5195                 5.0734                 3.4985
 Frc consts  --      0.1193                 0.1511                 0.1105
 IR Inten    --     16.6304                 8.0503                 7.3395

                     13                     14                     15
                      A                      A                      A
 Frequencies --    271.2619               285.2936               317.0060
 Red. masses --      3.4856                 3.1320                 4.8406
 Frc consts  --      0.1511                 0.1502                 0.2866
 IR Inten    --     15.2920                 3.7706                14.1330

                     16                     17                     18
                      A                      A                      A
 Frequencies --    358.0873               376.2298               417.7441
 Red. masses --      3.5073                 3.2947                 2.7689
 Frc consts  --      0.2650                 0.2748                 0.2847
 IR Inten    --     11.7903                 0.7083                42.6489

                     19                     20                     21
                      A                      A                      A
 Frequencies --    429.8789               456.4018               473.8604
 Red. masses --      2.2056                 1.2949                 1.2344
 Frc consts  --      0.2401                 0.1589                 0.1633
 IR Inten    --     14.2533               132.6627               211.3466

                     22                     23                     24
                      A                      A                      A
 Frequencies --    481.8782               493.3271               520.5372
 Red. masses --      1.2752                 1.4942                 3.3899
 Frc consts  --      0.1745                 0.2143                 0.5412
 IR Inten    --    167.5426               194.8500                20.8892

                     25                     26                     27
                      A                      A                      A
 Frequencies --    537.6488               573.1949               586.0979
 Red. masses --      3.7866                 3.4419                 2.8243
 Frc consts  --      0.6449                 0.6663                 0.5716
 IR Inten    --     15.6384                24.8136                 4.5896

                     28                     29                     30
                      A                      A                      A
 Frequencies --    624.5183               681.0397               695.6908
 Red. masses --      4.9156                 1.2887                 7.7824
 Frc consts  --      1.1296                 0.3522                 2.2192
 IR Inten    --     11.0589                 9.9083                 2.6922

                     31                     32                     33
                      A                      A                      A
 Frequencies --    701.6713               726.2032               748.0612
 Red. masses --      3.4932                 3.5842                 2.8010
 Frc consts  --      1.0133                 1.1137                 0.9235
 IR Inten    --      7.7926                20.3804                 2.6583

                     34                     35                     36
                      A                      A                      A
 Frequencies --    787.4500               790.5803               814.2518
 Red. masses --      3.1569                 2.5914                 2.9116
 Frc consts  --      1.1533                 0.9543                 1.1374
 IR Inten    --      3.8360                 8.9898                62.9462

                     37                     38                     39
                      A                      A                      A
 Frequencies --    848.4064               858.2479               887.1294
 Red. masses --      3.3301                 3.1093                 3.5450
 Frc consts  --      1.4123                 1.3494                 1.6438
 IR Inten    --      5.5417                 6.8661                10.8519

                     40                     41                     42
                      A                      A                      A
 Frequencies --    965.3871               978.5556               993.6508
 Red. masses --      2.4261                 2.6273                 2.5754
 Frc consts  --      1.3322                 1.4823                 1.4982
 IR Inten    --     25.3215               105.1409                47.1404

                     43                     44                     45
                      A                      A                      A
 Frequencies --    997.3606              1045.9362              1069.7550
 Red. masses --      8.0559                 2.2783                 1.9337
 Frc consts  --      4.7214                 1.4685                 1.3038
 IR Inten    --      6.5826                28.0625                 2.6640

                     46                     47                     48
                      A                      A                      A
 Frequencies --   1079.1999              1129.4822              1144.5126
 Red. masses --      2.1021                 1.9361                 5.0556
 Frc consts  --      1.4424                 1.4553                 3.9018
 IR Inten    --     38.6221                16.9657                88.5822

                     49                     50                     51
                      A                      A                      A
 Frequencies --   1149.6021              1154.5519              1183.8899
 Red. masses --      3.3816                 2.0377                 1.9781
 Frc consts  --      2.6331                 1.6004                 1.6335
 IR Inten    --     12.1691                 4.9173                 4.4144

                     52                     53                     54
                      A                      A                      A
 Frequencies --   1221.0880              1232.6437              1258.3888
 Red. masses --      1.6710                 2.8975                 1.3208
 Frc consts  --      1.4680                 2.5939                 1.2323
 IR Inten    --     23.6781                32.5311               153.6901

                     55                     56                     57
                      A                      A                      A
 Frequencies --   1298.1759              1313.2759              1328.2682
 Red. masses --      1.8022                 1.5516                 1.6332
 Frc consts  --      1.7895                 1.5767                 1.6977
 IR Inten    --     94.9484                46.7305                14.7843

                     58                     59                     60
                      A                      A                      A
 Frequencies --   1347.5497              1354.8401              1367.2239
 Red. masses --      3.0231                 1.3780                 1.3192
 Frc consts  --      3.2344                 1.4903                 1.4529
 IR Inten    --     35.2182                16.0457                10.9799

                     61                     62                     63
                      A                      A                      A
 Frequencies --   1377.0947              1381.6129              1398.6537
 Red. masses --      1.9786                 1.2864                 1.4886
 Frc consts  --      2.2108                 1.4468                 1.7157
 IR Inten    --     67.5347                12.7906                 4.9958

                     64                     65                     66
                      A                      A                      A
 Frequencies --   1425.8023              1440.9042              1445.5690
 Red. masses --      1.4635                 1.3962                 2.1931
 Frc consts  --      1.7529                 1.7079                 2.7002
 IR Inten    --     71.5520                10.8168               101.0793

                     67                     68                     69
                      A                      A                      A
 Frequencies --   1501.3802              1511.1258              1515.3813
 Red. masses --      2.2920                 1.0886                 1.6912
 Frc consts  --      3.0440                 1.4646                 2.2882
 IR Inten    --    187.9897                 4.2099               175.6456

                     70                     71                     72
                      A                      A                      A
 Frequencies --   1525.8694              1530.1257              1536.6775
 Red. masses --      1.4131                 1.3146                 3.5623
 Frc consts  --      1.9385                 1.8134                 4.9562
 IR Inten    --     36.4242                20.1301               107.3869

                     73                     74                     75
                      A                      A                      A
 Frequencies --   1623.2773              1637.5593              1645.1858
 Red. masses --      4.3509                 2.5165                 1.6527
 Frc consts  --      6.7548                 3.9760                 2.6356
 IR Inten    --    207.9738               805.4500               216.7274

                     76                     77                     78
                      A                      A                      A
 Frequencies --   1664.9469              1748.6922              1796.3000
 Red. masses --      1.6293                 1.0637                 8.8609
 Frc consts  --      2.6610                 1.9165                16.8456
 IR Inten    --    403.2053                21.2764               304.1403

                     79                     80                     81
                      A                      A                      A
 Frequencies --   3008.9566              3022.1008              3026.5925
 Red. masses --      1.0735                 1.0691                 1.0690
 Frc consts  --      5.7267                 5.7526                 5.7695
 IR Inten    --     36.6084                 8.9758                98.6001

                     82                     83                     84
                      A                      A                      A
 Frequencies --   3118.4738              3125.4197              3127.0457
 Red. masses --      1.0856                 1.0962                 1.0978
 Frc consts  --      6.2201                 6.3089                 6.3249
 IR Inten    --      6.6805                31.5429                32.9376

                     85                     86                     87
                      A                      A                      A
 Frequencies --   3164.4818              3245.9311              3429.7304
 Red. masses --      1.0897                 1.0920                 1.0484
 Frc consts  --      6.4293                 6.7789                 7.2661
 IR Inten    --      7.8345                 4.9948                 5.1598

                     88                     89                     90
                      A                      A                      A
 Frequencies --   3501.5521              3540.4170              3592.4526
 Red. masses --      1.0929                 1.0471                 1.0458
 Frc consts  --      7.8947                 7.7331                 7.9519
 IR Inten    --      0.3099                62.0750                41.7895

                     91                     92                     93
                      A                      A                      A
 Frequencies --   3627.4833              3680.8240              3712.4976
 Red. masses --      1.0778                 1.1042                 1.1020
 Frc consts  --      8.3559                 8.8144                 8.9489
 IR Inten    --     43.9160                75.0986                25.1155

 - Thermochemistry -
 -------------------
 Temperature   298.150 Kelvin.  Pressure   1.00000 Atm.
 Atom     1 has atomic number  6 and mass  12.00000

 Molecular mass:   253.12872 amu.
 Principal axes and moments of inertia in atomic units:
                           1         2         3
     Eigenvalues --  2493.190296747.339178497.12106
           X            0.99998  -0.00649   0.00025
           Y            0.00649   0.99995  -0.00795
           Z           -0.00020   0.00795   0.99997
 This molecule is an asymmetric top.
 Rotational symmetry number  1.
 Warning -- assumption of classical behavior for rotation
           may cause significant error
 Rotational temperatures (Kelvin)      0.03474     0.01284     0.01019
 Rotational constants (GHZ):           0.72387     0.26747     0.21239
 Zero-point vibrational energy     716065.5 (Joules/Mol)
                                  171.14375 (Kcal/Mol)
 Warning -- explicit consideration of  27 degrees of freedom as
           vibrations may cause significant error
 Vibrational temperatures:     52.43    61.25   108.79   141.56   188.67
          (Kelvin)            214.21   231.39   249.56   282.42   304.51
                              323.47   333.19   390.29   410.47   456.10
                              515.21   541.31   601.04   618.50   656.66
                              681.78   693.32   709.79   748.94   773.56
                              824.70   843.26   898.54   979.86  1000.94
                             1009.55  1044.84  1076.29  1132.96  1137.47
                             1171.53  1220.67  1234.83  1276.38  1388.98
                             1407.92  1429.64  1434.98  1504.87  1539.14
                             1552.73  1625.07  1646.70  1654.02  1661.14
                             1703.35  1756.87  1773.50  1810.54  1867.79
                             1889.51  1911.08  1938.82  1949.31  1967.13
                             1981.33  1987.83  2012.35  2051.41  2073.14
                             2079.85  2160.15  2174.17  2180.30  2195.39
                             2201.51  2210.94  2335.53  2356.08  2367.06
                             2395.49  2515.98  2584.47  4329.22  4348.13
                             4354.59  4486.79  4496.78  4499.12  4552.98
                             4670.17  4934.62  5037.95  5093.87  5168.74
                             5219.14  5295.88  5341.46

 Zero-point correction=                           0.272735 (Hartree/Particle)
 Thermal correction to Energy=                    0.289416
 Thermal correction to Enthalpy=                  0.290361
 Thermal correction to Gibbs Free Energy=         0.228535
 Sum of electronic and zero-point Energies=           -885.482951
 Sum of electronic and thermal Energies=              -885.466269
 Sum of electronic and thermal Enthalpies=            -885.465325
 Sum of electronic and thermal Free Energies=         -885.527151

                     E (Thermal)             CV                S
                      KCal/Mol        Cal/Mol-Kelvin    Cal/Mol-Kelvin
 Total                  181.612             64.377            130.124
 Electronic               0.000              0.000              0.000
 Translational            0.889              2.981             42.486
 Rotational               0.889              2.981             33.324
 Vibrational            179.834             58.415             54.313
 Vibration     1          0.594              1.982              5.444
 Vibration     2          0.595              1.980              5.136
 Vibration     3          0.599              1.965              4.002
 Vibration     4          0.604              1.950              3.486
 Vibration     5          0.612              1.922              2.929
 Vibration     6          0.618              1.904              2.686
 Vibration     7          0.622              1.890              2.540
 Vibration     8          0.627              1.875              2.398
 Vibration     9          0.636              1.845              2.168
 Vibration    10          0.643              1.823              2.029
 Vibration    11          0.649              1.803              1.920
 Vibration    12          0.653              1.793              1.867
 Vibration    13          0.675              1.726              1.588
 Vibration    14          0.683              1.701              1.502
 Vibration    15          0.704              1.641              1.326
 Vibration    16          0.733              1.559              1.130
 Vibration    17          0.747              1.521              1.054
 Vibration    18          0.781              1.432              0.900
 Vibration    19          0.791              1.405              0.859
 Vibration    20          0.815              1.347              0.777
 Vibration    21          0.831              1.308              0.727
 Vibration    22          0.838              1.290              0.705
 Vibration    23          0.849              1.265              0.675
 Vibration    24          0.876              1.205              0.609
 Vibration    25          0.893              1.167              0.570
 Vibration    26          0.929              1.089              0.498
 Vibration    27          0.943              1.061              0.474

                           ! Non-Optimized Parameters !
 Normal termination of Gaussian 16 at Fri Dec 11 19:03:13 2020.

 ----------------------------------------------------------------------
 # B3LYP/6-311++G(d,p) empiricaldispersion=gd3bj scf=xqc pop=npa geom=c
 heck
 ----------------------------------------------------------------------

 --------------------------------------
 CID_83106960_JID_8072_Energie_neutraal
 --------------------------------------
 Structure from the checkpoint file:  "JID_8072.chk"
 Charge =  0 Multiplicity = 1

 SCF Done:  E(RB3LYP) =  -886.026081449     A.U. after   15 cycles
 Normal termination of Gaussian 16 at Fri Dec 11 19:10:01 2020.

 ----------------------------------------------------------------------
 # B3LYP/6-311++G(d,p) empiricaldispersion=gd3bj scf=xqc pop=npa geom=c
 heck
 ----------------------------------------------------------------------

 ------------------------------------
 CID_83106960_JID_8072_Energie_kation
 ------------------------------------
 Structure from the checkpoint file:  "JID_8072.chk"
 Charge =  1 Multiplicity = 2

 SCF Done:  E(UB3LYP) =  -885.756276664     A.U. after   23 cycles
 Normal termination of Gaussian 16 at Fri Dec 11 19:24:44 2020.
 Gaussian 16:  ES64L-G16RevA.03 25-Dec-2016

 ----------------------------------------------------------------------
 # B3LYP/6-311++G(d,p) empiricaldispersion=gd3bj scf=xqc pop=npa geom=c
 heck
 ----------------------------------------------------------------------

 -----------------------------------
 CID_83106960_JID_8072_Energie_anion
 -----------------------------------
 Structure from the checkpoint file:  "JID_8072.chk"
 Charge = -1 Multiplicity = 2

                         Standard orientation:
 ---------------------------------------------------------------------
 Center     Atomic      Atomic             Coordinates (Angstroms)
 Number     Number       Type             X           Y           Z
 ---------------------------------------------------------------------
      1          6           0       -1.746953    1.533302   -0.473600
      2          6           0       -3.025797    1.856627    0.281964
      3          8           0       -3.797027    0.673624    0.520250
      4          6           0       -3.050256   -0.233888    1.325134
      5          6           0       -1.760622   -0.694020    0.631321
      6          7           0       -1.001384    0.484266    0.220478
      7          6           0        0.379819    0.427267    0.083712
      8          7           0        0.983841    1.603270   -0.191689
      9          6           0        2.317217    1.576572   -0.266295
     10          7           0        3.128333    0.520989   -0.079049
     11          6           0        2.499508   -0.640474    0.158556
     12          6           0        1.101603   -0.756240    0.252408
     13          7           0        3.292624   -1.754012    0.286030
     14          7           0        4.693921   -1.662290    0.418309
     15          7           0        2.935248    2.759521   -0.595516
     16          6           0       -2.013111   -1.689365   -0.522513
     17          8           0       -1.327211   -2.694559   -0.660805
     18          7           0       -3.015753   -1.342688   -1.378288
     19          1           0       -1.993164    1.214582   -1.498142
     20          1           0       -1.101800    2.409208   -0.536182
     21          1           0       -2.790121    2.331557    1.246204
     22          1           0       -3.663051    2.527223   -0.300283
     23          1           0       -3.703772   -1.086688    1.526824
     24          1           0       -2.788012    0.249583    2.277753
     25          1           0       -1.166021   -1.241502    1.365574
     26          1           0        0.626808   -1.723809    0.340705
     27          1           0        2.896436   -2.559702    0.747681
     28          1           0        5.068703   -1.497172   -0.516420
     29          1           0        4.895239   -0.802069    0.932814
     30          1           0        3.918035    2.813968   -0.370598
     31          1           0        2.389067    3.594657   -0.442010
     32          1           0       -3.664928   -0.606788   -1.125387
     33          1           0       -3.255782   -1.997652   -2.110158
 ---------------------------------------------------------------------

 SCF Done:  E(UB3LYP) =  -886.014690461     A.U. after   33 cycles
 SCF Done:  E(UB3LYP) =  -886.014690461     a.u. after    1 cycles

 The electronic state is 2-A.
 Alpha  occ. eigenvalues --  -19.05360 -19.00501 -14.26657 -14.25035 -14.24994
 Alpha  occ. eigenvalues --  -14.24181 -14.22472 -14.20013 -14.19502 -10.18790
 Alpha  occ. eigenvalues --  -10.17494 -10.15808 -10.15644 -10.14262 -10.13434
 Alpha  occ. eigenvalues --  -10.13333 -10.10885 -10.06459  -0.96965  -0.95238
 Alpha  occ. eigenvalues --   -0.92297  -0.89645  -0.86459  -0.81791  -0.79967
 Alpha  occ. eigenvalues --   -0.77930  -0.72017  -0.70403  -0.66487  -0.62415
 Alpha  occ. eigenvalues --   -0.59123  -0.55452  -0.54378  -0.52886  -0.48823
 Alpha  occ. eigenvalues --   -0.47565  -0.46019  -0.44221  -0.42913  -0.41960
 Alpha  occ. eigenvalues --   -0.40644  -0.40309  -0.39312  -0.38767  -0.37919
 Alpha  occ. eigenvalues --   -0.37224  -0.36150  -0.36056  -0.34624  -0.33855
 Alpha  occ. eigenvalues --   -0.33494  -0.31510  -0.30914  -0.29251  -0.28491
 Alpha  occ. eigenvalues --   -0.26077  -0.25006  -0.24063  -0.21736  -0.19968
 Alpha  occ. eigenvalues --   -0.19425  -0.18887  -0.18274  -0.16351  -0.16239
 Alpha  occ. eigenvalues --   -0.13858  -0.11725   0.03986
 Alpha virt. eigenvalues --    0.05493   0.06607   0.06729   0.07492   0.08138
 Alpha virt. eigenvalues --    0.08565   0.08998   0.09353   0.09563   0.09742
 Alpha virt. eigenvalues --    0.10177   0.10722   0.11037   0.11819   0.12499

  Beta  occ. eigenvalues --  -19.05350 -19.00495 -14.26652 -14.25038 -14.24982
  Beta  occ. eigenvalues --  -14.24144 -14.22432 -14.19997 -14.19485 -10.18789
  Beta  occ. eigenvalues --  -10.17493 -10.15803 -10.15630 -10.14234 -10.13427
  Beta  occ. eigenvalues --  -10.13303 -10.10868 -10.06458  -0.96945  -0.95226
  Beta  occ. eigenvalues --   -0.92281  -0.89625  -0.86441  -0.81743  -0.79923
  Beta  occ. eigenvalues --   -0.77904  -0.71989  -0.70368  -0.66457  -0.62390
  Beta  occ. eigenvalues --   -0.59076  -0.55421  -0.54333  -0.52836  -0.48773
  Beta  occ. eigenvalues --   -0.47531  -0.45996  -0.44179  -0.42883  -0.41941
  Beta  occ. eigenvalues --   -0.40609  -0.40280  -0.39270  -0.38728  -0.37889
  Beta  occ. eigenvalues --   -0.37195  -0.36121  -0.36033  -0.34602  -0.33829
  Beta  occ. eigenvalues --   -0.33469  -0.31468  -0.30892  -0.29220  -0.28458
  Beta  occ. eigenvalues --   -0.26049  -0.24956  -0.24023  -0.21701  -0.19953
  Beta  occ. eigenvalues --   -0.19386  -0.18859  -0.18246  -0.16321  -0.16203
  Beta  occ. eigenvalues --   -0.13825  -0.11713
  Beta virt. eigenvalues --    0.06092   0.06530   0.07293   0.07380   0.08133
  Beta virt. eigenvalues --    0.08376   0.08765   0.09416   0.09583   0.09764
  Beta virt. eigenvalues --    0.10019   0.10404   0.11034   0.11463   0.12160

 Mulliken charges and spin densities:
               1          2
     1  C   -0.354016   0.037239
     2  C    0.687031  -1.033790
     3  O   -0.216089   0.085636
     4  C    1.318901  -2.206838
     5  C   -0.707587   0.972091
     6  N    0.220481  -0.008390
     7  C    0.098126  -0.931312
     8  N   -0.259991   0.009896
     9  C   -0.365599   0.398705
    10  N   -0.227249  -0.073979
    11  C    0.420932  -0.123322
    12  C   -0.029778   0.190159
    13  N   -0.129324   0.003901
    14  N   -0.263783  -0.054510
    15  N   -0.377454   0.113741
    16  C    0.337142  -0.410124
    17  O   -0.302745   0.016003
    18  N   -0.394417  -0.022089
    19  H    0.142050   0.056309
    20  H   -0.012236   0.217977
    21  H   -0.051717   0.215270
    22  H   -0.442530   0.642959
    23  H   -0.259835   0.484389
    24  H   -0.086093   0.240368
    25  H   -0.031902   0.296519
    26  H    0.188686   0.066991
    27  H    0.254358   0.019864
    28  H    0.192705   0.066312
    29  H    0.141635   0.101111
    30  H   -0.195460   0.462671
    31  H   -0.180410   0.450310
    32  H   -0.023160   0.307127
    33  H   -0.090671   0.408808
 Sum of Mulliken charges =  -1.00000   1.00000

 Dipole moment (field-independent basis, Debye):
    X=              1.6336    Y=             -2.2804    Z=              1.5491  Tot=              3.2045
 Quadrupole moment (field-independent basis, Debye-Ang):
   XX=           -188.4859   YY=           -163.2152   ZZ=           -135.4467
   XY=             -6.7851   XZ=             -2.4794   YZ=              0.2506

 Summary of Natural Population Analysis:

                                       Natural Population
                Natural  -----------------------------------------------
    Atom  No    Charge         Core      Valence    Rydberg      Total
 -----------------------------------------------------------------------
      C    1   -0.10365      0.99959     2.09302    0.01104     3.10365
      C    2   -0.01420      0.99957     2.00221    0.01242     3.01420
      O    3   -0.30416      0.99989     3.29426    0.01000     4.30416
      C    4   -0.01401      0.99956     2.00101    0.01344     3.01401
      C    5   -0.05646      0.99953     2.04318    0.01375     3.05646
      N    6   -0.25252      0.99964     2.74054    0.01235     3.75252
      C    7    0.23346      0.99951     1.75236    0.01466     2.76654
      N    8   -0.30626      0.99963     2.79657    0.01006     3.80626
      C    9    0.30942      0.99962     1.67244    0.01852     2.69058
      N   10   -0.31922      0.99964     2.80763    0.01195     3.81922
      C   11    0.21770      0.99954     1.76873    0.01402     2.78230
      C   12   -0.21274      0.99947     2.20647    0.00681     3.21274
      N   13   -0.22271      0.99965     2.71055    0.01251     3.72271
      N   14   -0.31647      0.99978     2.80681    0.00988     3.81647
      N   15   -0.38966      0.99970     2.88070    0.00926     3.88966
      C   16    0.33327      0.99967     1.64301    0.02405     2.66673
      O   17   -0.32085      0.99988     3.31483    0.00614     4.32085
      N   18   -0.40411      0.99970     2.89625    0.00816     3.90411
      H   19    0.09242      0.00000     0.40589    0.00169     0.40758
      H   20    0.12384      0.00000     0.37378    0.00238     0.37616
      H   21    0.08265      0.00000     0.41556    0.00179     0.41735
      H   22    0.09733      0.00000     0.40085    0.00182     0.40267
      H   23    0.09919      0.00000     0.39916    0.00164     0.40081
      H   24    0.08819      0.00000     0.41017    0.00164     0.41181
      H   25    0.11695      0.00000     0.38103    0.00202     0.38305
      H   26    0.12004      0.00000     0.37819    0.00177     0.37996
      H   27    0.18567      0.00000     0.31182    0.00251     0.31433
      H   28    0.17243      0.00000     0.32543    0.00213     0.32757
      H   29    0.17590      0.00000     0.32152    0.00258     0.32410
      H   30    0.19252      0.00000     0.30440    0.00308     0.30748
      H   31    0.19472      0.00000     0.30230    0.00299     0.30528
      H   32    0.20540      0.00000     0.29096    0.00364     0.29460
      H   33    0.19593      0.00000     0.30151    0.00256     0.30407
 =======================================================================
   * Total *    0.00000     17.99358    48.75315    0.25327    67.00000

 Normal termination of Gaussian 16 at Fri Dec 11 19:46:28 2020.
