 Gaussian 16, Revision A.03,

 -----------------------------------------------------------
 # opt freq B3LYP/6-31G(d) empiricaldispersion=gd3bj scf=xqc
 -----------------------------------------------------------

 -------------------------------
 CID_130046917_JID_3880_neutraal
 -------------------------------
 Symbolic Z-matrix:
 Charge =  0 Multiplicity = 1

 SCF Done:  E(RB3LYP) =  -627.584029217     A.U. after   15 cycles
 SCF Done:  E(RB3LYP) =  -627.588615359     A.U. after   12 cycles
 SCF Done:  E(RB3LYP) =  -627.589094104     A.U. after   12 cycles
 SCF Done:  E(RB3LYP) =  -627.589110986     A.U. after   11 cycles
 SCF Done:  E(RB3LYP) =  -627.589198835     A.U. after   12 cycles
 SCF Done:  E(RB3LYP) =  -627.589268071     A.U. after   10 cycles
 SCF Done:  E(RB3LYP) =  -627.589401357     A.U. after   11 cycles
 SCF Done:  E(RB3LYP) =  -627.589456970     A.U. after   10 cycles
 SCF Done:  E(RB3LYP) =  -627.589526671     A.U. after   11 cycles
 SCF Done:  E(RB3LYP) =  -627.589533420     A.U. after    9 cycles
 SCF Done:  E(RB3LYP) =  -627.589534888     A.U. after    9 cycles
 SCF Done:  E(RB3LYP) =  -627.589535145     A.U. after    8 cycles
 Optimization completed.
    -- Stationary point found.
 Normal termination of Gaussian 16 at Mon Dec 14 16:28:09 2020.

 --------------------------------------------------------------------
 #N Geom=AllCheck Guess=TCheck SCRF=Check GenChk RB3LYP/6-31G(d) Freq
 --------------------------------------------------------------------

 Structure from the checkpoint file:  "JID_3880.chk"
 -------------------------------
 CID_130046917_JID_3880_neutraal
 -------------------------------
 Charge =  0 Multiplicity = 1

 SCF Done:  E(RB3LYP) =  -627.589535145     A.U. after    1 cycles

  Exact polarizability: 192.343  -1.029 117.942   0.005   0.002  45.570
 Approx polarizability: 270.655 -15.851 223.946   0.017   0.002  70.506

                      1                      2                      3
                      A                      A                      A
 Frequencies --     58.3413                84.2489                95.2519
 Red. masses --      4.8156                 5.2711                 6.2419
 Frc consts  --      0.0097                 0.0220                 0.0334
 IR Inten    --      1.6406                 1.4056                 3.8011

                      4                      5                      6
                      A                      A                      A
 Frequencies --    103.6522               148.7818               178.1864
 Red. masses --      1.0763                 5.7055                 5.4186
 Frc consts  --      0.0068                 0.0744                 0.1014
 IR Inten    --      0.2740                 8.5845                 3.7998

                      7                      8                      9
                      A                      A                      A
 Frequencies --    228.6381               252.4301               294.2898
 Red. masses --      3.1696                 3.9014                 3.5806
 Frc consts  --      0.0976                 0.1465                 0.1827
 IR Inten    --      0.2216                 2.1595                 3.0247

                     10                     11                     12
                      A                      A                      A
 Frequencies --    372.6104               402.3275               466.1781
 Red. masses --      6.9465                 4.5980                 8.7093
 Frc consts  --      0.5682                 0.4385                 1.1152
 IR Inten    --      4.1765                 2.2612                 4.2707

                     13                     14                     15
                      A                      A                      A
 Frequencies --    569.9328               605.6702               650.4606
 Red. masses --      5.2442                 3.1059                 6.0868
 Frc consts  --      1.0036                 0.6713                 1.5173
 IR Inten    --      4.3867                 7.8368                 1.9113

                     16                     17                     18
                      A                      A                      A
 Frequencies --    660.4113               668.3705               743.5443
 Red. masses --      4.8469                 5.1914                 6.8713
 Frc consts  --      1.2455                 1.3664                 2.2382
 IR Inten    --     10.0108                 1.4610                 2.6193

                     19                     20                     21
                      A                      A                      A
 Frequencies --    761.7986               831.6762               835.1972
 Red. masses --      1.3054                 1.3141                 6.0924
 Frc consts  --      0.4463                 0.5355                 2.5039
 IR Inten    --     51.1507                 9.6532                62.9158

                     22                     23                     24
                      A                      A                      A
 Frequencies --    887.9100               908.5891               919.7416
 Red. masses --      1.3350                 6.4917                 6.2406
 Frc consts  --      0.6201                 3.1575                 3.1103
 IR Inten    --      0.9171                 6.8845                24.7352

                     25                     26                     27
                      A                      A                      A
 Frequencies --    987.9718               996.9510              1020.1736
 Red. masses --      5.4392                 1.6940                 1.8290
 Frc consts  --      3.1281                 0.9920                 1.1216
 IR Inten    --      7.6166                 0.1397                12.5313

                     28                     29                     30
                      A                      A                      A
 Frequencies --   1048.2046              1075.7577              1117.6370
 Red. masses --      1.3461                 1.5281                 2.4095
 Frc consts  --      0.8714                 1.0419                 1.7733
 IR Inten    --     29.7251                 3.0810                11.1605

                     31                     32                     33
                      A                      A                      A
 Frequencies --   1132.9953              1160.9444              1218.4587
 Red. masses --      4.3148                 3.8952                 2.9935
 Frc consts  --      3.2634                 3.0932                 2.6185
 IR Inten    --     11.1239                52.8654                 1.2047

                     34                     35                     36
                      A                      A                      A
 Frequencies --   1265.0058              1298.4905              1323.0737
 Red. masses --      1.8167                 5.4626                 5.4572
 Frc consts  --      1.7128                 5.4266                 5.6284
 IR Inten    --      1.5057                 7.7614               123.9986

                     37                     38                     39
                      A                      A                      A
 Frequencies --   1408.6379              1435.5210              1445.4193
 Red. masses --      2.9705                 1.3907                 1.6295
 Frc consts  --      3.4728                 1.6885                 2.0058
 IR Inten    --     78.4315                15.6491                38.7505

                     40                     41                     42
                      A                      A                      A
 Frequencies --   1459.7196              1481.2987              1502.3135
 Red. masses --      3.4956                 5.7516                 1.0433
 Frc consts  --      4.3884                 7.4358                 1.3873
 IR Inten    --     68.0863                43.0407                 6.2511

                     43                     44                     45
                      A                      A                      A
 Frequencies --   1509.4388              1566.7969              1631.8703
 Red. masses --      1.1186                 4.7141                 5.9674
 Frc consts  --      1.5016                 6.8183                 9.3628
 IR Inten    --     13.2953               103.7217                36.8008

                     46                     47                     48
                      A                      A                      A
 Frequencies --   1676.4703              1776.4966              2930.8555
 Red. masses --      9.1182                 9.3234                 1.0831
 Frc consts  --     15.0991                17.3362                 5.4814
 IR Inten    --    145.3878               374.4376               135.3769

                     49                     50                     51
                      A                      A                      A
 Frequencies --   3062.2753              3119.8144              3151.2918
 Red. masses --      1.0368                 1.1011                 1.1019
 Frc consts  --      5.7287                 6.3143                 6.4473
 IR Inten    --     13.6357                 7.4742                11.6566

                     52                     53                     54
                      A                      A                      A
 Frequencies --   3275.4343              3289.3974              3307.9686
 Red. masses --      1.0911                 1.0981                 1.1049
 Frc consts  --      6.8971                 7.0005                 7.1237
 IR Inten    --      3.5396                 0.2869                 0.0942

 - Thermochemistry -
 -------------------
 Temperature   298.150 Kelvin.  Pressure   1.00000 Atm.
 Atom     1 has atomic number  6 and mass  12.00000

 Molecular mass:   177.04259 amu.
 Principal axes and moments of inertia in atomic units:
                           1         2         3
     Eigenvalues --  1038.071273769.727104796.60210
           X            0.99946   0.03284   0.00000
           Y           -0.03284   0.99946  -0.00000
           Z           -0.00000   0.00000   1.00000
 This molecule is an asymmetric top.
 Rotational symmetry number  1.
 Warning -- assumption of classical behavior for rotation
           may cause significant error
 Rotational temperatures (Kelvin)      0.08344     0.02298     0.01806
 Rotational constants (GHZ):           1.73855     0.47875     0.37625
 Zero-point vibrational energy     385227.0 (Joules/Mol)
                                   92.07146 (Kcal/Mol)
 Warning -- explicit consideration of  14 degrees of freedom as
           vibrations may cause significant error
 Vibrational temperatures:     83.94   121.22   137.05   149.13   214.06
          (Kelvin)            256.37   328.96   363.19   423.42   536.10
                              578.86   670.73   820.01   871.42   935.87
                              950.18   961.64  1069.79  1096.06  1196.60
                             1201.66  1277.50  1307.26  1323.30  1421.47
                             1434.39  1467.80  1508.13  1547.78  1608.03
                             1630.13  1670.34  1753.09  1820.06  1868.24
                             1903.61  2026.72  2065.39  2079.64  2100.21
                             2131.26  2161.49  2171.75  2254.27  2347.90
                             2412.07  2555.98  4216.85  4405.93  4488.72
                             4534.01  4712.62  4732.71  4759.43

 Zero-point correction=                           0.146725 (Hartree/Particle)
 Thermal correction to Energy=                    0.157717
 Thermal correction to Enthalpy=                  0.158661
 Thermal correction to Gibbs Free Energy=         0.108799
 Sum of electronic and zero-point Energies=           -627.442810
 Sum of electronic and thermal Energies=              -627.431819
 Sum of electronic and thermal Enthalpies=            -627.430874
 Sum of electronic and thermal Free Energies=         -627.480736

                     E (Thermal)             CV                S
                      KCal/Mol        Cal/Mol-Kelvin    Cal/Mol-Kelvin
 Total                   98.969             40.030            104.943
 Electronic               0.000              0.000              0.000
 Translational            0.889              2.981             41.421
 Rotational               0.889              2.981             31.307
 Vibrational             97.191             34.068             32.215
 Vibration     1          0.596              1.974              4.513
 Vibration     2          0.601              1.960              3.789
 Vibration     3          0.603              1.953              3.549
 Vibration     4          0.605              1.946              3.384
 Vibration     5          0.618              1.904              2.688
 Vibration     6          0.629              1.869              2.347
 Vibration     7          0.651              1.797              1.890
 Vibration     8          0.664              1.759              1.714
 Vibration     9          0.689              1.684              1.449
 Vibration    10          0.744              1.528              1.069
 Vibration    11          0.768              1.465              0.954
 Vibration    12          0.824              1.325              0.748
 Vibration    13          0.926              1.096              0.504
 Vibration    14          0.964              1.020              0.440

                           ! Non-Optimized Parameters !
 Normal termination of Gaussian 16 at Mon Dec 14 16:32:04 2020.

 ----------------------------------------------------------------------
 # B3LYP/6-311++G(d,p) empiricaldispersion=gd3bj scf=xqc pop=npa geom=c
 heck
 ----------------------------------------------------------------------

 ---------------------------------------
 CID_130046917_JID_3880_Energie_neutraal
 ---------------------------------------
 Structure from the checkpoint file:  "JID_3880.chk"
 Charge =  0 Multiplicity = 1

 SCF Done:  E(RB3LYP) =  -627.762711025     A.U. after   15 cycles
 Normal termination of Gaussian 16 at Mon Dec 14 16:33:38 2020.

 ----------------------------------------------------------------------
 # B3LYP/6-311++G(d,p) empiricaldispersion=gd3bj scf=xqc pop=npa geom=c
 heck
 ----------------------------------------------------------------------

 -------------------------------------
 CID_130046917_JID_3880_Energie_kation
 -------------------------------------
 Structure from the checkpoint file:  "JID_3880.chk"
 Charge =  1 Multiplicity = 2

 SCF Done:  E(UB3LYP) =  -627.460243800     A.U. after   26 cycles
 Normal termination of Gaussian 16 at Mon Dec 14 16:37:29 2020.
 Gaussian 16:  ES64L-G16RevA.03 25-Dec-2016

 ----------------------------------------------------------------------
 # B3LYP/6-311++G(d,p) empiricaldispersion=gd3bj scf=xqc pop=npa geom=c
 heck
 ----------------------------------------------------------------------

 ------------------------------------
 CID_130046917_JID_3880_Energie_anion
 ------------------------------------
 Structure from the checkpoint file:  "JID_3880.chk"
 Charge = -1 Multiplicity = 2

                         Standard orientation:
 ---------------------------------------------------------------------
 Center     Atomic      Atomic             Coordinates (Angstroms)
 Number     Number       Type             X           Y           Z
 ---------------------------------------------------------------------
      1          6           0        2.739300    2.201115   -0.000421
      2          6           0        1.713543    1.118689   -0.000001
      3          6           0        1.879397   -0.249133    0.000762
      4          8           0        0.618272   -0.814973    0.000766
      5          6           0       -0.227821    0.241529    0.000162
      6          7           0        0.366336    1.412416   -0.000437
      7          6           0       -1.631684   -0.052960    0.000099
      8          6           0       -2.322304   -1.239435   -0.000476
      9          6           0       -3.705510   -0.893100   -0.000319
     10          6           0       -3.754559    0.472195    0.000071
     11          8           0       -2.503612    1.000030    0.000351
     12          6           0        3.043724   -1.109259    0.000245
     13          8           0        3.015120   -2.328223   -0.000556
     14          1           0        2.616128    2.837097   -0.883830
     15          1           0        2.612878    2.840653    0.879927
     16          1           0        3.755406    1.799381    0.002238
     17          1           0       -1.883938   -2.226674   -0.000838
     18          1           0       -4.549022   -1.568230   -0.000571
     19          1           0       -4.561635    1.188318    0.000282
     20          1           0        4.003074   -0.549968    0.000620
 ---------------------------------------------------------------------

 SCF Done:  E(UB3LYP) =  -627.792261408     A.U. after   24 cycles

 The electronic state is 2-A.
 Alpha  occ. eigenvalues --  -19.05534 -19.03095 -18.93338 -14.16047 -10.10413
 Alpha  occ. eigenvalues --  -10.09529 -10.09526 -10.07848 -10.06868 -10.06360
 Alpha  occ. eigenvalues --  -10.05501 -10.05392 -10.03771  -0.98777  -0.97583
 Alpha  occ. eigenvalues --   -0.86915  -0.77576  -0.67966  -0.66735  -0.62281
 Alpha  occ. eigenvalues --   -0.58270  -0.51387  -0.48258  -0.45825  -0.43222
 Alpha  occ. eigenvalues --   -0.41808  -0.40724  -0.34999  -0.34525  -0.32227
 Alpha  occ. eigenvalues --   -0.31467  -0.30497  -0.29472  -0.29259  -0.28135
 Alpha  occ. eigenvalues --   -0.27286  -0.26623  -0.24736  -0.23536  -0.23339
 Alpha  occ. eigenvalues --   -0.17515  -0.16470  -0.15141  -0.13994  -0.09514
 Alpha  occ. eigenvalues --   -0.08220   0.03070
 Alpha virt. eigenvalues --    0.08225   0.08823   0.10080   0.10508   0.11763
 Alpha virt. eigenvalues --    0.12145   0.12786   0.13902   0.15057   0.15552
 Alpha virt. eigenvalues --    0.15616   0.16349   0.17096   0.17158   0.18395

  Beta  occ. eigenvalues --  -19.05341 -19.02805 -18.92830 -14.16123 -10.10060
  Beta  occ. eigenvalues --  -10.09550 -10.09336 -10.07621 -10.06814 -10.06223
  Beta  occ. eigenvalues --  -10.05510 -10.05477 -10.03557  -0.98452  -0.97139
  Beta  occ. eigenvalues --   -0.86009  -0.77379  -0.67694  -0.66353  -0.62118
  Beta  occ. eigenvalues --   -0.57928  -0.50583  -0.48152  -0.45568  -0.42982
  Beta  occ. eigenvalues --   -0.41478  -0.40478  -0.34726  -0.33549  -0.31532
  Beta  occ. eigenvalues --   -0.31329  -0.30232  -0.29142  -0.28920  -0.28010
  Beta  occ. eigenvalues --   -0.26772  -0.26521  -0.24564  -0.23283  -0.20986
  Beta  occ. eigenvalues --   -0.16548  -0.15620  -0.15139  -0.12752  -0.09071
  Beta  occ. eigenvalues --   -0.06833
  Beta virt. eigenvalues --    0.08194   0.08792   0.08850   0.10048   0.11717
  Beta virt. eigenvalues --    0.11817   0.12125   0.13301   0.13864   0.15486
  Beta virt. eigenvalues --    0.15596   0.15975   0.16321   0.17140   0.17239

 Mulliken charges and spin densities:
               1          2
     1  C   -0.564109   0.035098
     2  C    0.312764   0.089381
     3  C    0.563697   0.049998
     4  O   -0.097983   0.067567
     5  C   -0.423787   0.220579
     6  N   -0.114959  -0.044042
     7  C   -0.240390  -0.016498
     8  C   -0.049077   0.155924
     9  C   -0.393151  -0.054821
    10  C    0.061630   0.153794
    11  O   -0.042191   0.034378
    12  C   -0.492396   0.178667
    13  O   -0.383751   0.168587
    14  H    0.140578  -0.000873
    15  H    0.140587  -0.000897
    16  H    0.131686  -0.000385
    17  H    0.172487  -0.012387
    18  H    0.122519   0.004098
    19  H    0.136780  -0.011158
    20  H    0.019066  -0.017011
 Sum of Mulliken charges =  -1.00000   1.00000

 Dipole moment (field-independent basis, Debye):
    X=             -3.2638    Y=              3.1906    Z=              0.0007  Tot=              4.5642
 Quadrupole moment (field-independent basis, Debye-Ang):
   XX=           -104.2616   YY=            -98.4758   ZZ=            -81.5514
   XY=             16.9927   XZ=              0.0028   YZ=              0.0005

 Summary of Natural Population Analysis:

                                       Natural Population
                Natural  -----------------------------------------------
    Atom  No    Charge         Core      Valence    Rydberg      Total
 -----------------------------------------------------------------------
      C    1   -0.29780      0.99964     2.29319    0.00496     3.29780
      C    2    0.08455      0.99951     1.90307    0.01287     2.91545
      C    3    0.08473      0.99938     1.90353    0.01236     2.91527
      O    4   -0.20540      0.99985     3.19552    0.01002     4.20540
      C    5    0.30408      0.99956     1.67905    0.01731     2.69592
      N    6   -0.27889      0.99968     2.76968    0.00953     3.77889
      C    7    0.11717      0.99934     1.86933    0.01416     2.88283
      C    8   -0.09101      0.99943     2.08223    0.00935     3.09101
      C    9   -0.18611      0.99960     2.17715    0.00935     3.18611
      C   10    0.09086      0.99954     1.89491    0.01469     2.90914
      O   11   -0.21073      0.99986     3.19918    0.01170     4.21073
      C   12    0.20107      0.99968     1.77871    0.02054     2.79893
      O   13   -0.24377      0.99988     3.23526    0.00863     4.24377
      H   14    0.10096      0.00000     0.39774    0.00130     0.39904
      H   15    0.10097      0.00000     0.39772    0.00130     0.39903
      H   16    0.10002      0.00000     0.39881    0.00117     0.39998
      H   17    0.10946      0.00000     0.38979    0.00075     0.39054
      H   18    0.10054      0.00000     0.39849    0.00097     0.39946
      H   19    0.08511      0.00000     0.41391    0.00098     0.41489
      H   20    0.03428      0.00000     0.46309    0.00264     0.46572
 =======================================================================
   * Total *    0.00010     12.99497    32.84035    0.16458    45.99990

 Normal termination of Gaussian 16 at Mon Dec 14 16:41:05 2020.
