 Gaussian 16, Revision A.03,

 -----------------------------------------------------------
 # opt freq B3LYP/6-31G(d) empiricaldispersion=gd3bj scf=xqc
 -----------------------------------------------------------

 -------------------------------
 CID_154537963_JID_8544_neutraal
 -------------------------------
 Symbolic Z-matrix:
 Charge =  0 Multiplicity = 1

 SCF Done:  E(RB3LYP) =  -753.606088068     A.U. after   14 cycles
 SCF Done:  E(RB3LYP) =  -753.610046000     A.U. after   12 cycles
 SCF Done:  E(RB3LYP) =  -753.610469646     A.U. after   11 cycles
 SCF Done:  E(RB3LYP) =  -753.610577509     A.U. after   10 cycles
 SCF Done:  E(RB3LYP) =  -753.610628011     A.U. after   10 cycles
 SCF Done:  E(RB3LYP) =  -753.610648206     A.U. after   10 cycles
 SCF Done:  E(RB3LYP) =  -753.610661932     A.U. after    9 cycles
 SCF Done:  E(RB3LYP) =  -753.610669416     A.U. after    9 cycles
 SCF Done:  E(RB3LYP) =  -753.610672198     A.U. after    9 cycles
 SCF Done:  E(RB3LYP) =  -753.610672822     A.U. after    8 cycles
 SCF Done:  E(RB3LYP) =  -753.610672890     A.U. after    6 cycles
 Optimization completed.
    -- Stationary point found.
 Normal termination of Gaussian 16 at Fri Dec 11 21:02:15 2020.

 --------------------------------------------------------------------
 #N Geom=AllCheck Guess=TCheck SCRF=Check GenChk RB3LYP/6-31G(d) Freq
 --------------------------------------------------------------------

 Structure from the checkpoint file:  "JID_8544.chk"
 -------------------------------
 CID_154537963_JID_8544_neutraal
 -------------------------------
 Charge =  0 Multiplicity = 1

 SCF Done:  E(RB3LYP) =  -753.610672890     A.U. after    1 cycles

  Exact polarizability: 223.674 -19.031 189.653  10.774  14.862 120.621
 Approx polarizability: 301.674 -31.108 311.232  23.203  39.144 182.668

                      1                      2                      3
                      A                      A                      A
 Frequencies --     29.9979                33.4227                57.0073
 Red. masses --      2.7955                 3.4805                 3.8472
 Frc consts  --      0.0015                 0.0023                 0.0074
 IR Inten    --      0.0118                 0.1255                 0.7476

                      4                      5                      6
                      A                      A                      A
 Frequencies --     68.0667                78.5393               115.4626
 Red. masses --      3.1039                 2.9933                 3.3256
 Frc consts  --      0.0085                 0.0109                 0.0261
 IR Inten    --      2.9928                 0.9197                 0.1156

                      7                      8                      9
                      A                      A                      A
 Frequencies --    124.4010               148.1278               195.4051
 Red. masses --      2.9567                 2.6471                 1.7792
 Frc consts  --      0.0270                 0.0342                 0.0400
 IR Inten    --      0.0923                 0.2143                 0.7995

                     10                     11                     12
                      A                      A                      A
 Frequencies --    201.5756               220.3490               234.7800
 Red. masses --      1.2898                 2.4435                 1.8210
 Frc consts  --      0.0309                 0.0699                 0.0591
 IR Inten    --      0.1181                 1.2045                 1.9569

                     13                     14                     15
                      A                      A                      A
 Frequencies --    236.1697               255.3804               272.2461
 Red. masses --      1.6892                 1.3547                 1.8667
 Frc consts  --      0.0555                 0.0521                 0.0815
 IR Inten    --      1.5894                 5.9210                 0.4347

                     16                     17                     18
                      A                      A                      A
 Frequencies --    284.8038               301.6094               314.4103
 Red. masses --      2.3282                 1.7999                 1.8853
 Frc consts  --      0.1113                 0.0965                 0.1098
 IR Inten    --     28.5032                38.5512                 0.1268

                     19                     20                     21
                      A                      A                      A
 Frequencies --    347.2070               362.1351               388.1256
 Red. masses --      2.8831                 2.6513                 3.0764
 Frc consts  --      0.2048                 0.2049                 0.2730
 IR Inten    --      1.7169                 0.4730                 2.9960

                     22                     23                     24
                      A                      A                      A
 Frequencies --    398.4293               428.2773               450.3872
 Red. masses --      2.6678                 2.4039                 2.7516
 Frc consts  --      0.2495                 0.2598                 0.3289
 IR Inten    --      5.7667                 3.0983                 4.7559

                     25                     26                     27
                      A                      A                      A
 Frequencies --    462.7750               498.1196               539.8924
 Red. masses --      3.3449                 2.6478                 2.9043
 Frc consts  --      0.4221                 0.3871                 0.4988
 IR Inten    --      0.0158                20.1595                 0.9401

                     28                     29                     30
                      A                      A                      A
 Frequencies --    554.8660               638.1310               651.2689
 Red. masses --      4.3701                 3.5095                 4.4757
 Frc consts  --      0.7927                 0.8420                 1.1185
 IR Inten    --      9.9251                 0.4608                13.9505

                     31                     32                     33
                      A                      A                      A
 Frequencies --    657.3428               677.3066               753.5456
 Red. masses --      2.5735                 3.6308                 1.5937
 Frc consts  --      0.6552                 0.9813                 0.5332
 IR Inten    --      0.6164                 1.5957                 4.7446

                     34                     35                     36
                      A                      A                      A
 Frequencies --    761.9171               781.3573               784.5286
 Red. masses --      2.1171                 4.5707                 1.5710
 Frc consts  --      0.7241                 1.6441                 0.5697
 IR Inten    --      0.6718                 3.0309                26.8278

                     37                     38                     39
                      A                      A                      A
 Frequencies --    808.9833               821.2694               839.2616
 Red. masses --      2.0143                 4.7298                 1.5329
 Frc consts  --      0.7767                 1.8796                 0.6361
 IR Inten    --     12.1218                 4.5540                28.1977

                     40                     41                     42
                      A                      A                      A
 Frequencies --    846.1631               870.7859               891.2646
 Red. masses --      1.6809                 1.9985                 1.6121
 Frc consts  --      0.7091                 0.8928                 0.7545
 IR Inten    --      0.6746                 0.9039                 0.7732

                     43                     44                     45
                      A                      A                      A
 Frequencies --    925.7138               930.7454               957.6952
 Red. masses --      1.2752                 1.7765                 3.4055
 Frc consts  --      0.6438                 0.9068                 1.8403
 IR Inten    --      0.1017                 9.2217                 3.2976

                     46                     47                     48
                      A                      A                      A
 Frequencies --    984.2972              1002.7694              1038.7261
 Red. masses --      1.4874                 1.5847                 1.9204
 Frc consts  --      0.8490                 0.9388                 1.2208
 IR Inten    --      6.0680                12.1102                 4.1445

                     49                     50                     51
                      A                      A                      A
 Frequencies --   1044.3556              1075.4850              1082.1893
 Red. masses --      1.3026                 2.9673                 2.6150
 Frc consts  --      0.8371                 2.0222                 1.8044
 IR Inten    --      6.7661                21.4978                 1.7708

                     52                     53                     54
                      A                      A                      A
 Frequencies --   1088.1711              1113.1162              1126.6993
 Red. masses --      2.5191                 1.5692                 2.3018
 Frc consts  --      1.7575                 1.1456                 1.7216
 IR Inten    --      1.3835                59.3266                14.9554

                     55                     56                     57
                      A                      A                      A
 Frequencies --   1160.1248              1186.5895              1188.1129
 Red. masses --      2.1184                 1.2697                 1.7738
 Frc consts  --      1.6799                 1.0533                 1.4752
 IR Inten    --      1.9541                 0.7469                13.4295

                     58                     59                     60
                      A                      A                      A
 Frequencies --   1190.6962              1192.8117              1204.7223
 Red. masses --      1.8289                 1.7865                 1.7603
 Frc consts  --      1.5277                 1.4976                 1.5052
 IR Inten    --     13.8930                 9.1222               102.4815

                     61                     62                     63
                      A                      A                      A
 Frequencies --   1226.4542              1250.9392              1271.5190
 Red. masses --      1.4720                 1.5448                 1.8504
 Frc consts  --      1.3046                 1.4243                 1.7626
 IR Inten    --     14.6513                34.1811                 3.6300

                     64                     65                     66
                      A                      A                      A
 Frequencies --   1294.6424              1300.5329              1330.0395
 Red. masses --      1.7439                 1.2974                 1.4533
 Frc consts  --      1.7222                 1.2930                 1.5147
 IR Inten    --     75.3354                16.3651                27.2368

                     67                     68                     69
                      A                      A                      A
 Frequencies --   1339.2151              1359.3279              1371.5105
 Red. masses --      2.0808                 2.0270                 1.8066
 Frc consts  --      2.1987                 2.2068                 2.0022
 IR Inten    --     63.1158                21.5648                 8.7114

                     70                     71                     72
                      A                      A                      A
 Frequencies --   1377.2380              1383.8332              1401.0072
 Red. masses --      1.8841                 1.7449                 2.0324
 Frc consts  --      2.1056                 1.9687                 2.3504
 IR Inten    --     19.2862                20.9284                47.9049

                     73                     74                     75
                      A                      A                      A
 Frequencies --   1402.0386              1414.2894              1434.8545
 Red. masses --      1.3614                 1.4572                 1.4194
 Frc consts  --      1.5767                 1.7173                 1.7218
 IR Inten    --      5.7784                 4.1092                 7.2444

                     76                     77                     78
                      A                      A                      A
 Frequencies --   1438.2315              1441.4827              1443.9169
 Red. masses --      1.5370                 1.5607                 1.3056
 Frc consts  --      1.8732                 1.9106                 1.6038
 IR Inten    --     13.2537                 5.0873                 3.4469

                     79                     80                     81
                      A                      A                      A
 Frequencies --   1493.3612              1504.2201              1511.4652
 Red. masses --      2.0802                 1.5381                 1.0778
 Frc consts  --      2.7333                 2.0505                 1.4507
 IR Inten    --     37.3201                 2.1932                 0.2110

                     82                     83                     84
                      A                      A                      A
 Frequencies --   1520.5618              1522.2609              1524.1789
 Red. masses --      1.0484                 1.0612                 1.0518
 Frc consts  --      1.4281                 1.4489                 1.4397
 IR Inten    --      4.7670                 2.0832                 3.5955

                     85                     86                     87
                      A                      A                      A
 Frequencies --   1527.0274              1533.7095              1536.3316
 Red. masses --      1.0603                 1.0482                 1.0594
 Frc consts  --      1.4568                 1.4526                 1.4733
 IR Inten    --      0.9044                 7.6652                10.2138

                     88                     89                     90
                      A                      A                      A
 Frequencies --   1536.5798              1538.3263              1546.6090
 Red. masses --      1.0812                 1.0518                 1.0690
 Frc consts  --      1.5041                 1.4665                 1.5066
 IR Inten    --     44.4665                 4.2359                 8.2102

                     91                     92                     93
                      A                      A                      A
 Frequencies --   1561.3822              1615.3252              1628.8247
 Red. masses --      2.7516                 6.0583                 6.2088
 Frc consts  --      3.9524                 9.3137                 9.7053
 IR Inten    --     31.0224                51.1951                 0.5524

                     94                     95                     96
                      A                      A                      A
 Frequencies --   1693.7222              3002.6078              3015.6262
 Red. masses --      6.5776                 1.0822                 1.0666
 Frc consts  --     11.1174                 5.7485                 5.7151
 IR Inten    --    104.4843                17.5592                22.0867

                     97                     98                     99
                      A                      A                      A
 Frequencies --   3020.9279              3037.3097              3041.4545
 Red. masses --      1.0349                 1.0599                 1.0590
 Frc consts  --      5.5645                 5.7610                 5.7719
 IR Inten    --     67.4508                10.0690                26.2795

                    100                    101                    102
                      A                      A                      A
 Frequencies --   3044.2101              3047.8253              3056.0037
 Red. masses --      1.0442                 1.0616                 1.0419
 Frc consts  --      5.7017                 5.8103                 5.7332
 IR Inten    --     13.7424                67.3153                16.1665

                    103                    104                    105
                      A                      A                      A
 Frequencies --   3064.5140              3077.4238              3082.2485
 Red. masses --      1.0929                 1.1064                 1.0961
 Frc consts  --      6.0472                 6.1737                 6.1355
 IR Inten    --      9.9318                47.2686                56.6391

                    106                    107                    108
                      A                      A                      A
 Frequencies --   3107.8339              3112.7307              3116.9602
 Red. masses --      1.1008                 1.0942                 1.1012
 Frc consts  --      6.2642                 6.2461                 6.3032
 IR Inten    --     42.1435                50.0356                54.3703

                    109                    110                    111
                      A                      A                      A
 Frequencies --   3122.6639              3132.3217              3140.0644
 Red. masses --      1.1014                 1.1019                 1.1005
 Frc consts  --      6.3277                 6.3698                 6.3933
 IR Inten    --     31.7583                47.8566                32.6014

                    112                    113                    114
                      A                      A                      A
 Frequencies --   3152.0562              3201.8441              3211.2623
 Red. masses --      1.0993                 1.0882                 1.0912
 Frc consts  --      6.4353                 6.5732                 6.6301
 IR Inten    --     34.2431                15.8991                 6.0260

                    115                    116                    117
                      A                      A                      A
 Frequencies --   3231.8266              3264.1396              3676.6251
 Red. masses --      1.0914                 1.0964                 1.0800
 Frc consts  --      6.7163                 6.8827                 8.6011
 IR Inten    --     13.3924                 2.4409                59.7874

 - Thermochemistry -
 -------------------
 Temperature   298.150 Kelvin.  Pressure   1.00000 Atm.
 Atom     1 has atomic number  6 and mass  12.00000

 Molecular mass:   245.17796 amu.
 Principal axes and moments of inertia in atomic units:
                           1         2         3
     Eigenvalues --  2713.626718189.316979714.19928
           X            1.00000   0.00146  -0.00258
           Y           -0.00146   1.00000   0.00049
           Z            0.00258  -0.00049   1.00000
 This molecule is an asymmetric top.
 Rotational symmetry number  1.
 Warning -- assumption of classical behavior for rotation
           may cause significant error
 Rotational temperatures (Kelvin)      0.03192     0.01058     0.00892
 Rotational constants (GHZ):           0.66507     0.22038     0.18578
 Zero-point vibrational energy     951710.4 (Joules/Mol)
                                  227.46425 (Kcal/Mol)
 Warning -- explicit consideration of  28 degrees of freedom as
           vibrations may cause significant error
 Vibrational temperatures:     43.16    48.09    82.02    97.93   113.00
          (Kelvin)            166.12   178.99   213.12   281.14   290.02
                              317.03   337.80   339.80   367.44   391.70
                              409.77   433.95   452.37   499.55   521.03
                              558.43   573.25   616.20   648.01   665.83
                              716.68   776.78   798.33   918.13   937.03
                              945.77   974.49  1084.18  1096.23  1124.20
                             1128.76  1163.95  1181.62  1207.51  1217.44
                             1252.87  1282.33  1331.90  1339.13  1377.91
                             1416.18  1442.76  1494.50  1502.59  1547.38
                             1557.03  1565.64  1601.53  1621.07  1669.16
                             1707.24  1709.43  1713.15  1716.19  1733.33
                             1764.59  1799.82  1829.43  1862.70  1871.18
                             1913.63  1926.83  1955.77  1973.30  1981.54
                             1991.03  2015.74  2017.22  2034.85  2064.44
                             2069.29  2073.97  2077.47  2148.61  2164.24
                             2174.66  2187.75  2190.19  2192.95  2197.05
                             2206.67  2210.44  2210.80  2213.31  2225.23
                             2246.48  2324.09  2343.52  2436.89  4320.08
                             4338.81  4346.44  4370.01  4375.97  4379.94
                             4385.14  4396.91  4409.15  4427.73  4434.67
                             4471.48  4478.53  4484.61  4492.82  4506.71
                             4517.85  4535.11  4606.74  4620.29  4649.88
                             4696.37  5289.84

 Zero-point correction=                           0.362487 (Hartree/Particle)
 Thermal correction to Energy=                    0.381136
 Thermal correction to Enthalpy=                  0.382080
 Thermal correction to Gibbs Free Energy=         0.315403
 Sum of electronic and zero-point Energies=           -753.248186
 Sum of electronic and thermal Energies=              -753.229537
 Sum of electronic and thermal Enthalpies=            -753.228593
 Sum of electronic and thermal Free Energies=         -753.295270

                     E (Thermal)             CV                S
                      KCal/Mol        Cal/Mol-Kelvin    Cal/Mol-Kelvin
 Total                  239.166             71.596            140.334
 Electronic               0.000              0.000              0.000
 Translational            0.889              2.981             42.391
 Rotational               0.889              2.981             33.734
 Vibrational            237.389             65.634             64.209
 Vibration     1          0.594              1.984              5.830
 Vibration     2          0.594              1.983              5.615
 Vibration     3          0.596              1.975              4.558
 Vibration     4          0.598              1.969              4.208
 Vibration     5          0.600              1.964              3.927
 Vibration     6          0.608              1.937              3.175
 Vibration     7          0.610              1.929              3.031
 Vibration     8          0.618              1.905              2.696
 Vibration     9          0.636              1.846              2.176
 Vibration    10          0.638              1.838              2.119
 Vibration    11          0.647              1.810              1.956
 Vibration    12          0.655              1.788              1.842
 Vibration    13          0.655              1.785              1.832
 Vibration    14          0.666              1.754              1.693
 Vibration    15          0.675              1.724              1.582
 Vibration    16          0.683              1.702              1.505
 Vibration    17          0.694              1.671              1.408
 Vibration    18          0.702              1.646              1.339
 Vibration    19          0.725              1.581              1.179
 Vibration    20          0.736              1.550              1.113
 Vibration    21          0.756              1.496              1.007
 Vibration    22          0.765              1.473              0.968
 Vibration    23          0.790              1.409              0.864
 Vibration    24          0.809              1.360              0.795
 Vibration    25          0.820              1.333              0.758
 Vibration    26          0.854              1.254              0.663
 Vibration    27          0.895              1.162              0.566
 Vibration    28          0.910              1.129              0.534

 Optimization completed.
    -- Stationary point found.
 Normal termination of Gaussian 16 at Fri Dec 11 21:21:04 2020.

 ----------------------------------------------------------------------
 # B3LYP/6-311++G(d,p) empiricaldispersion=gd3bj scf=xqc pop=npa geom=c
 heck
 ----------------------------------------------------------------------

 ---------------------------------------
 CID_154537963_JID_8544_Energie_neutraal
 ---------------------------------------
 Structure from the checkpoint file:  "JID_8544.chk"
 Charge =  0 Multiplicity = 1

 SCF Done:  E(RB3LYP) =  -753.813634966     A.U. after   15 cycles
 Normal termination of Gaussian 16 at Fri Dec 11 21:30:25 2020.

 ----------------------------------------------------------------------
 # B3LYP/6-311++G(d,p) empiricaldispersion=gd3bj scf=xqc pop=npa geom=c
 heck
 ----------------------------------------------------------------------

 -------------------------------------
 CID_154537963_JID_8544_Energie_kation
 -------------------------------------
 Structure from the checkpoint file:  "JID_8544.chk"
 Charge =  1 Multiplicity = 2

 SCF Done:  E(UB3LYP) =  -753.558902053     A.U. after   22 cycles
 Normal termination of Gaussian 16 at Fri Dec 11 21:49:57 2020.
 Gaussian 16:  ES64L-G16RevA.03 25-Dec-2016

 ----------------------------------------------------------------------
 # B3LYP/6-311++G(d,p) empiricaldispersion=gd3bj scf=xqc pop=npa geom=c
 heck
 ----------------------------------------------------------------------

 ------------------------------------
 CID_154537963_JID_8544_Energie_anion
 ------------------------------------
 Structure from the checkpoint file:  "JID_8544.chk"
 Charge = -1 Multiplicity = 2

                         Standard orientation:
 ---------------------------------------------------------------------
 Center     Atomic      Atomic             Coordinates (Angstroms)
 Number     Number       Type             X           Y           Z
 ---------------------------------------------------------------------
      1          6           0        3.877642    2.737918   -0.472809
      2          6           0        4.600096    1.387487   -0.449592
      3          6           0        3.852830    0.299398    0.337244
      4          6           0        2.431578   -0.027174   -0.159438
      5          6           0        2.426655   -0.392363   -1.648988
      6          6           0        1.779454   -1.161028    0.684163
      7          6           0        1.777645   -0.867279    2.197710
      8          6           0        0.382770   -1.476040    0.214862
      9          6           0       -0.048617   -2.675268   -0.287100
     10          7           0       -1.398594   -2.603534   -0.607902
     11          6           0       -1.866646   -1.341070   -0.315828
     12          6           0       -0.768968   -0.596868    0.208797
     13          6           0       -1.000533    0.733848    0.583566
     14          6           0       -2.267184    1.290662    0.438327
     15          6           0       -3.332465    0.526332   -0.085518
     16          6           0       -3.142239   -0.800849   -0.468236
     17          8           0       -4.604099    1.008823   -0.256697
     18          6           0       -4.862760    2.350746    0.110890
     19          1           0        2.923434    2.677756   -1.007803
     20          1           0        4.485665    3.503931   -0.966950
     21          1           0        3.663577    3.086259    0.545502
     22          1           0        4.784404    1.052367   -1.477672
     23          1           0        5.590836    1.518587    0.005437
     24          1           0        4.450184   -0.624796    0.322693
     25          1           0        3.805306    0.618298    1.385465
     26          1           0        1.810383    0.869606   -0.031613
     27          1           0        3.070465   -1.262496   -1.836210
     28          1           0        1.418257   -0.643282   -1.987693
     29          1           0        2.793631    0.431910   -2.268218
     30          1           0        2.386658   -2.065274    0.524018
     31          1           0        1.285025    0.087015    2.415991
     32          1           0        1.228741   -1.650310    2.730148
     33          1           0        2.790715   -0.826448    2.608200
     34          1           0        0.505452   -3.589751   -0.448019
     35          1           0       -1.948856   -3.354465   -0.992048
     36          1           0       -0.198592    1.341440    0.990614
     37          1           0       -2.426942    2.320400    0.733423
     38          1           0       -3.976824   -1.367661   -0.867900
     39          1           0       -4.681601    2.521199    1.180754
     40          1           0       -4.253889    3.055956   -0.470858
     41          1           0       -5.918627    2.523199   -0.106657
 ---------------------------------------------------------------------

 SCF Done:  E(UB3LYP) =  -753.800886867     A.U. after   33 cycles
 SCF Done:  E(UB3LYP) =  -753.800886867     a.u. after    1 cycles

 The electronic state is 2-A.
 Alpha  occ. eigenvalues --  -19.06052 -14.25453 -10.13851 -10.13454 -10.11284
 Alpha  occ. eigenvalues --  -10.10236 -10.08812 -10.08268 -10.08146 -10.08071
 Alpha  occ. eigenvalues --  -10.07547 -10.07523 -10.07506 -10.07483 -10.07345
 Alpha  occ. eigenvalues --  -10.06949 -10.06937 -10.06238  -0.97605  -0.88108
 Alpha  occ. eigenvalues --   -0.75011  -0.74031  -0.70364  -0.67417  -0.65048
 Alpha  occ. eigenvalues --   -0.64406  -0.63372  -0.59705  -0.59205  -0.54770
 Alpha  occ. eigenvalues --   -0.53650  -0.52075  -0.49413  -0.46791  -0.46289
 Alpha  occ. eigenvalues --   -0.44559  -0.41968  -0.39158  -0.38682  -0.38027
 Alpha  occ. eigenvalues --   -0.37604  -0.36920  -0.35239  -0.34450  -0.34236
 Alpha  occ. eigenvalues --   -0.33485  -0.33329  -0.32420  -0.31499  -0.31476
 Alpha  occ. eigenvalues --   -0.30438  -0.28703  -0.28555  -0.27645  -0.27341
 Alpha  occ. eigenvalues --   -0.27091  -0.26261  -0.25863  -0.24830  -0.23941
 Alpha  occ. eigenvalues --   -0.23005  -0.22387  -0.22006  -0.21631  -0.17084
 Alpha  occ. eigenvalues --   -0.13030  -0.10210   0.03904
 Alpha virt. eigenvalues --    0.05292   0.05377   0.06781   0.06990   0.07213
 Alpha virt. eigenvalues --    0.07617   0.08468   0.08641   0.09134   0.09453
 Alpha virt. eigenvalues --    0.09811   0.10478   0.10635   0.11351   0.11440

  Beta  occ. eigenvalues --  -19.06046 -14.25411 -10.13852 -10.13423 -10.11285
  Beta  occ. eigenvalues --  -10.10219 -10.08807 -10.08266 -10.08144 -10.08059
  Beta  occ. eigenvalues --  -10.07539 -10.07514 -10.07498 -10.07465 -10.07340
  Beta  occ. eigenvalues --  -10.06951 -10.06931 -10.06228  -0.97592  -0.88063
  Beta  occ. eigenvalues --   -0.74992  -0.74020  -0.70343  -0.67396  -0.65020
  Beta  occ. eigenvalues --   -0.64380  -0.63349  -0.59672  -0.59172  -0.54741
  Beta  occ. eigenvalues --   -0.53615  -0.52040  -0.49374  -0.46763  -0.46252
  Beta  occ. eigenvalues --   -0.44519  -0.41938  -0.39131  -0.38661  -0.38006
  Beta  occ. eigenvalues --   -0.37569  -0.36899  -0.35215  -0.34417  -0.34221
  Beta  occ. eigenvalues --   -0.33466  -0.33307  -0.32403  -0.31478  -0.31450
  Beta  occ. eigenvalues --   -0.30419  -0.28687  -0.28535  -0.27623  -0.27324
  Beta  occ. eigenvalues --   -0.27073  -0.26242  -0.25846  -0.24809  -0.23919
  Beta  occ. eigenvalues --   -0.22989  -0.22374  -0.21991  -0.21616  -0.17078
  Beta  occ. eigenvalues --   -0.13016  -0.10200
  Beta virt. eigenvalues --    0.05604   0.06012   0.06733   0.06972   0.07296
  Beta virt. eigenvalues --    0.07415   0.08079   0.08862   0.08942   0.09299
  Beta virt. eigenvalues --    0.09661   0.09974   0.10625   0.10892   0.11370

 Mulliken charges and spin densities:
               1          2
     1  C   -0.006800  -0.553779
     2  C   -0.123395  -0.283389
     3  C   -0.253627   0.083891
     4  C   -0.188598   0.435284
     5  C   -0.575927  -0.282653
     6  C    0.296218  -0.203988
     7  C   -0.652640  -0.153270
     8  C    1.796713  -0.977305
     9  C    0.091391   0.124413
    10  N   -0.232718   0.144923
    11  C   -0.305008   0.160860
    12  C    1.634216  -0.970095
    13  C    0.018265  -0.560604
    14  C   -0.717988   0.550718
    15  C   -0.187975  -0.491302
    16  C   -0.745576   0.055399
    17  O   -0.192416   0.033267
    18  C    0.503294  -0.838751
    19  H   -0.011393   0.181105
    20  H   -0.172434   0.316699
    21  H    0.022909   0.106709
    22  H    0.091559   0.042214
    23  H   -0.138915   0.296695
    24  H   -0.028393   0.173792
    25  H    0.121191   0.005023
    26  H    0.434107  -0.440900
    27  H   -0.051648   0.206826
    28  H    0.167111   0.015753
    29  H    0.104402   0.022094
    30  H    0.349957  -0.162004
    31  H    0.170355  -0.001675
    32  H    0.075912   0.079928
    33  H   -0.027398   0.164964
    34  H   -0.985646   1.164124
    35  H   -0.494604   0.828155
    36  H   -0.153671   0.256313
    37  H   -0.068950   0.264874
    38  H   -0.139467   0.311585
    39  H   -0.047874   0.192200
    40  H   -0.100820   0.252263
    41  H   -0.273720   0.449644
 Sum of Mulliken charges =  -1.00000   1.00000

 Dipole moment (field-independent basis, Debye):
    X=              2.7999    Y=              2.5030    Z=              1.8394  Tot=              4.1818
 Quadrupole moment (field-independent basis, Debye-Ang):
   XX=           -202.6690   YY=           -182.9113   ZZ=           -143.3546
   XY=             -6.0339   XZ=             -1.7846   YZ=             -6.8901

 Summary of Natural Population Analysis:

                                       Natural Population
                Natural  -----------------------------------------------
    Atom  No    Charge         Core      Valence    Rydberg      Total
 -----------------------------------------------------------------------
      C    1   -0.28707      0.99967     2.28301    0.00439     3.28707
      C    2   -0.19037      0.99964     2.18279    0.00794     3.19037
      C    3   -0.18893      0.99961     2.17934    0.00998     3.18893
      C    4   -0.11022      0.99959     2.10080    0.00983     3.11022
      C    5   -0.28712      0.99965     2.28230    0.00517     3.28712
      C    6   -0.11122      0.99956     2.10056    0.01110     3.11122
      C    7   -0.28120      0.99965     2.27681    0.00475     3.28120
      C    8   -0.05054      0.99948     2.03791    0.01315     3.05054
      C    9    0.00367      0.99947     1.98436    0.01250     2.99633
      N   10   -0.27316      0.99966     2.76272    0.01078     3.77316
      C   11    0.08881      0.99949     1.89962    0.01208     2.91119
      C   12   -0.05531      0.99945     2.04655    0.00931     3.05531
      C   13   -0.08571      0.99954     2.07857    0.00760     3.08571
      C   14   -0.15468      0.99953     2.14669    0.00846     3.15468
      C   15    0.15834      0.99940     1.83008    0.01218     2.84166
      C   16   -0.13805      0.99948     2.12885    0.00972     3.13805
      O   17   -0.27643      0.99986     3.26691    0.00966     4.27643
      C   18   -0.10117      0.99960     2.09230    0.00927     3.10117
      H   19    0.09780      0.00000     0.40119    0.00101     0.40220
      H   20    0.09792      0.00000     0.40115    0.00092     0.40208
      H   21    0.09557      0.00000     0.40329    0.00114     0.40443
      H   22    0.09383      0.00000     0.40512    0.00105     0.40617
      H   23    0.09464      0.00000     0.40432    0.00104     0.40536
      H   24    0.09537      0.00000     0.40363    0.00100     0.40463
      H   25    0.09653      0.00000     0.40238    0.00108     0.40347
      H   26    0.09442      0.00000     0.40283    0.00275     0.40558
      H   27    0.09517      0.00000     0.40379    0.00104     0.40483
      H   28    0.10846      0.00000     0.39061    0.00093     0.39154
      H   29    0.09718      0.00000     0.40206    0.00076     0.40282
      H   30    0.09661      0.00000     0.40161    0.00178     0.40339
      H   31    0.09715      0.00000     0.40183    0.00101     0.40285
      H   32    0.10241      0.00000     0.39678    0.00081     0.39759
      H   33    0.09680      0.00000     0.40244    0.00076     0.40320
      H   34    0.10250      0.00000     0.39546    0.00205     0.39750
      H   35    0.20594      0.00000     0.28025    0.01381     0.29406
      H   36    0.09918      0.00000     0.39911    0.00171     0.40082
      H   37    0.10408      0.00000     0.39468    0.00124     0.39592
      H   38    0.10826      0.00000     0.38997    0.00177     0.39174
      H   39    0.08358      0.00000     0.41497    0.00145     0.41642
      H   40    0.08417      0.00000     0.41436    0.00147     0.41583
      H   41    0.09280      0.00000     0.40617    0.00103     0.40720
 =======================================================================
   * Total *    0.00000     17.99234    48.79818    0.20948    67.00000

 Normal termination of Gaussian 16 at Fri Dec 11 22:20:04 2020.
