 Gaussian 16, Revision A.03,

 -----------------------------------------------------------
 # opt freq B3LYP/6-31G(d) empiricaldispersion=gd3bj scf=xqc
 -----------------------------------------------------------

 ------------------------------
 CID_20393662_JID_1821_neutraal
 ------------------------------
 Symbolic Z-matrix:
 Charge =  0 Multiplicity = 1

 SCF Done:  E(RB3LYP) =  -837.061859325     A.U. after   15 cycles
 SCF Done:  E(RB3LYP) =  -837.065279330     A.U. after   12 cycles
 SCF Done:  E(RB3LYP) =  -837.066051224     A.U. after   12 cycles
 SCF Done:  E(RB3LYP) =  -837.066335249     A.U. after   11 cycles
 SCF Done:  E(RB3LYP) =  -837.066595053     A.U. after   12 cycles
 SCF Done:  E(RB3LYP) =  -837.066678748     A.U. after   12 cycles
 SCF Done:  E(RB3LYP) =  -837.066638883     A.U. after    9 cycles
 SCF Done:  E(RB3LYP) =  -837.067191001     A.U. after   12 cycles
 SCF Done:  E(RB3LYP) =  -837.018760929     A.U. after   14 cycles
 SCF Done:  E(RB3LYP) =  -837.068279794     A.U. after   13 cycles
 SCF Done:  E(RB3LYP) =  -837.069144139     A.U. after    7 cycles
 SCF Done:  E(RB3LYP) =  -837.069146157     A.U. after    9 cycles
 SCF Done:  E(RB3LYP) =  -837.069147328     A.U. after    8 cycles
 SCF Done:  E(RB3LYP) =  -837.069148474     A.U. after    8 cycles
 SCF Done:  E(RB3LYP) =  -837.069148583     A.U. after    7 cycles
 Optimization completed.
    -- Stationary point found.
 Normal termination of Gaussian 16 at Tue Dec  8 21:29:24 2020.

 --------------------------------------------------------------------
 #N Geom=AllCheck Guess=TCheck SCRF=Check GenChk RB3LYP/6-31G(d) Freq
 --------------------------------------------------------------------

 Structure from the checkpoint file:  "JID_1821.chk"
 ------------------------------
 CID_20393662_JID_1821_neutraal
 ------------------------------
 Charge =  0 Multiplicity = 1

 SCF Done:  E(RB3LYP) =  -837.069148583     A.U. after    1 cycles

  Exact polarizability: 140.679   7.880 105.814   9.877  -4.543  77.756
 Approx polarizability: 186.509   8.109 181.928  23.383 -17.792 122.283

                      1                      2                      3
                      A                      A                      A
 Frequencies --     29.5821                43.0068                61.4668
 Red. masses --      3.8193                 4.0441                 2.7984
 Frc consts  --      0.0020                 0.0044                 0.0062
 IR Inten    --      0.1833                 1.5672                 0.5503

                      4                      5                      6
                      A                      A                      A
 Frequencies --    124.9456               126.9291               168.8626
 Red. masses --      1.7614                 1.4307                 2.3974
 Frc consts  --      0.0162                 0.0136                 0.0403
 IR Inten    --      0.1793                 0.7533                 0.7005

                      7                      8                      9
                      A                      A                      A
 Frequencies --    201.8617               256.5295               272.8268
 Red. masses --      2.2232                 3.4908                 1.6155
 Frc consts  --      0.0534                 0.1353                 0.0708
 IR Inten    --      1.0364                 2.4485                 0.8480

                     10                     11                     12
                      A                      A                      A
 Frequencies --    302.6994               328.6044               393.8803
 Red. masses --      3.7264                 2.5222                 2.2190
 Frc consts  --      0.2012                 0.1605                 0.2028
 IR Inten    --      3.6379                 1.8326                 0.5140

                     13                     14                     15
                      A                      A                      A
 Frequencies --    434.3462               477.7126               546.1215
 Red. masses --      1.5671                 2.0976                 2.9327
 Frc consts  --      0.1742                 0.2820                 0.5154
 IR Inten    --     59.3952                44.9617                 1.1720

                     16                     17                     18
                      A                      A                      A
 Frequencies --    573.2172               594.7720               606.3951
 Red. masses --      5.6997                 4.5806                 4.6442
 Frc consts  --      1.1034                 0.9547                 1.0062
 IR Inten    --      3.8140                 8.0081                16.9774

                     19                     20                     21
                      A                      A                      A
 Frequencies --    674.6142               706.1119               747.4964
 Red. masses --      5.8365                 5.5475                 1.2676
 Frc consts  --      1.5650                 1.6296                 0.4173
 IR Inten    --     14.7019                14.9513                 6.1202

                     22                     23                     24
                      A                      A                      A
 Frequencies --    780.3502               819.5638               871.9914
 Red. masses --      8.9520                 2.4868                 1.4776
 Frc consts  --      3.2118                 0.9841                 0.6619
 IR Inten    --     16.8061                 5.1621                 3.1159

                     25                     26                     27
                      A                      A                      A
 Frequencies --    957.9087               973.8623              1002.1417
 Red. masses --      1.9568                 1.7130                 3.3863
 Frc consts  --      1.0579                 0.9572                 2.0037
 IR Inten    --      4.2129                 3.2629                 5.4244

                     28                     29                     30
                      A                      A                      A
 Frequencies --   1042.9345              1064.7537              1076.3985
 Red. masses --      1.6481                 1.6369                 1.5550
 Frc consts  --      1.0562                 1.0934                 1.0615
 IR Inten    --     11.5933                 8.4713                 3.0256

                     31                     32                     33
                      A                      A                      A
 Frequencies --   1095.8535              1146.2093              1167.8384
 Red. masses --      2.4107                 1.8462                 2.5659
 Frc consts  --      1.7057                 1.4291                 2.0619
 IR Inten    --     10.7197                 8.1562                 9.4374

                     34                     35                     36
                      A                      A                      A
 Frequencies --   1247.7870              1285.1282              1330.9146
 Red. masses --      1.6864                 1.3563                 1.7182
 Frc consts  --      1.5470                 1.3198                 1.7932
 IR Inten    --     18.2126                12.7544                28.5916

                     37                     38                     39
                      A                      A                      A
 Frequencies --   1347.2744              1365.2794              1389.4112
 Red. masses --      1.6710                 2.5418                 1.4198
 Frc consts  --      1.7871                 2.7914                 1.6149
 IR Inten    --     20.1325               166.3182                10.5073

                     40                     41                     42
                      A                      A                      A
 Frequencies --   1405.7449              1420.5300              1437.4261
 Red. masses --      1.5107                 1.3311                 1.4390
 Frc consts  --      1.7589                 1.5825                 1.7518
 IR Inten    --      9.3450                24.2162                33.5049

                     43                     44                     45
                      A                      A                      A
 Frequencies --   1445.8111              1459.4588              1493.8712
 Red. masses --      1.2651                 1.4976                 1.3694
 Frc consts  --      1.5581                 1.8794                 1.8006
 IR Inten    --      4.0587                26.1110                38.5653

                     46                     47                     48
                      A                      A                      A
 Frequencies --   1506.7299              1510.0966              1519.8345
 Red. masses --      1.0453                 1.0797                 1.1010
 Frc consts  --      1.3982                 1.4507                 1.4984
 IR Inten    --      6.7920                 3.4551                 8.0160

                     49                     50                     51
                      A                      A                      A
 Frequencies --   1523.3724              1535.2576              1539.7421
 Red. masses --      1.0630                 1.0625                 1.0663
 Frc consts  --      1.4534                 1.4755                 1.4894
 IR Inten    --      2.7214                10.9808                 2.5525

                     52                     53                     54
                      A                      A                      A
 Frequencies --   1562.4567              1631.2897              3039.8677
 Red. masses --      2.9687                 5.0534                 1.0632
 Frc consts  --      4.2701                 7.9232                 5.7886
 IR Inten    --     43.0392               423.3479                17.3127

                     55                     56                     57
                      A                      A                      A
 Frequencies --   3043.1820              3046.2029              3061.2778
 Red. masses --      1.0470                 1.0538                 1.0662
 Frc consts  --      5.7129                 5.7616                 5.8872
 IR Inten    --      6.9018                30.3289                28.0826

                     58                     59                     60
                      A                      A                      A
 Frequencies --   3062.1384              3076.0806              3086.3264
 Red. masses --      1.0375                 1.0989                 1.1008
 Frc consts  --      5.7318                 6.1263                 6.1777
 IR Inten    --     16.4504                 9.8607                14.6693

                     61                     62                     63
                      A                      A                      A
 Frequencies --   3106.5089              3117.2915              3118.2145
 Red. masses --      1.1025                 1.1004                 1.1009
 Frc consts  --      6.2686                 6.3000                 6.3070
 IR Inten    --     82.1419                35.2926                12.9575

                     64                     65                     66
                      A                      A                      A
 Frequencies --   3120.2146              3169.0927              3605.2079
 Red. masses --      1.1000                 1.1015                 1.0759
 Frc consts  --      6.3098                 6.5180                 8.2395
 IR Inten    --     34.8900                 8.1665                34.8828

 - Thermochemistry -
 -------------------
 Temperature   298.150 Kelvin.  Pressure   1.00000 Atm.
 Atom     1 has atomic number  6 and mass  12.00000

 Molecular mass:   171.08302 amu.
 Principal axes and moments of inertia in atomic units:
                           1         2         3
     Eigenvalues --   870.165993761.698464163.91164
           X            0.99995   0.00976  -0.00082
           Y           -0.00974   0.99968   0.02355
           Z            0.00105  -0.02354   0.99972
 This molecule is an asymmetric top.
 Rotational symmetry number  1.
 Warning -- assumption of classical behavior for rotation
           may cause significant error
 Rotational temperatures (Kelvin)      0.09954     0.02303     0.02080
 Rotational constants (GHZ):           2.07402     0.47977     0.43342
 Zero-point vibrational energy     534017.8 (Joules/Mol)
                                  127.63333 (Kcal/Mol)
 Warning -- explicit consideration of  18 degrees of freedom as
           vibrations may cause significant error
 Vibrational temperatures:     42.56    61.88    88.44   179.77   182.62
          (Kelvin)            242.96   290.43   369.09   392.54   435.52
                              472.79   566.71   624.93   687.32   785.75
                              824.73   855.74   872.47   970.62  1015.94
                             1075.48  1122.75  1179.17  1254.60  1378.22
                             1401.17  1441.86  1500.55  1531.94  1548.70
                             1576.69  1649.14  1680.26  1795.29  1849.01
                             1914.89  1938.43  1964.33  1999.05  2022.55
                             2043.83  2068.14  2080.20  2099.84  2149.35
                             2167.85  2172.69  2186.70  2191.79  2208.89
                             2215.35  2248.03  2347.06  4373.69  4378.46
                             4382.81  4404.50  4405.73  4425.79  4440.54
                             4469.57  4485.09  4486.42  4489.29  4559.62
                             5187.09

 Zero-point correction=                           0.203397 (Hartree/Particle)
 Thermal correction to Energy=                    0.215516
 Thermal correction to Enthalpy=                  0.216460
 Thermal correction to Gibbs Free Energy=         0.163642
 Sum of electronic and zero-point Energies=           -836.865752
 Sum of electronic and thermal Energies=              -836.853632
 Sum of electronic and thermal Enthalpies=            -836.852688
 Sum of electronic and thermal Free Energies=         -836.905507

                     E (Thermal)             CV                S
                      KCal/Mol        Cal/Mol-Kelvin    Cal/Mol-Kelvin
 Total                  135.238             43.787            111.166
 Electronic               0.000              0.000              0.000
 Translational            0.889              2.981             41.319
 Rotational               0.889              2.981             30.989
 Vibrational            133.461             37.826             38.859
 Vibration     1          0.593              1.984              5.857
 Vibration     2          0.595              1.980              5.116
 Vibration     3          0.597              1.973              4.410
 Vibration     4          0.610              1.928              3.022
 Vibration     5          0.611              1.926              2.992
 Vibration     6          0.625              1.881              2.448
 Vibration     7          0.639              1.837              2.116
 Vibration     8          0.666              1.752              1.685
 Vibration     9          0.676              1.723              1.578
 Vibration    10          0.694              1.669              1.402
 Vibration    11          0.712              1.618              1.267
 Vibration    12          0.761              1.483              0.985
 Vibration    13          0.795              1.395              0.845
 Vibration    14          0.834              1.299              0.716
 Vibration    15          0.901              1.148              0.552
 Vibration    16          0.929              1.089              0.498
 Vibration    17          0.952              1.043              0.459
 Vibration    18          0.965              1.018              0.439

                           ! Non-Optimized Parameters !
 Normal termination of Gaussian 16 at Tue Dec  8 21:34:03 2020.

 ----------------------------------------------------------------------
 # B3LYP/6-311++G(d,p) empiricaldispersion=gd3bj scf=xqc pop=npa geom=c
 heck
 ----------------------------------------------------------------------

 --------------------------------------
 CID_20393662_JID_1821_Energie_neutraal
 --------------------------------------
 Structure from the checkpoint file:  "JID_1821.chk"
 Charge =  0 Multiplicity = 1

 SCF Done:  E(RB3LYP) =  -837.219022056     A.U. after   14 cycles
 Normal termination of Gaussian 16 at Tue Dec  8 21:37:58 2020.

 ----------------------------------------------------------------------
 # B3LYP/6-311++G(d,p) empiricaldispersion=gd3bj scf=xqc pop=npa geom=c
 heck
 ----------------------------------------------------------------------

 ------------------------------------
 CID_20393662_JID_1821_Energie_kation
 ------------------------------------
 Structure from the checkpoint file:  "JID_1821.chk"
 Charge =  1 Multiplicity = 2

 SCF Done:  E(UB3LYP) =  -836.917501570     A.U. after   20 cycles
 Normal termination of Gaussian 16 at Tue Dec  8 21:44:00 2020.
 Gaussian 16:  ES64L-G16RevA.03 25-Dec-2016

 ----------------------------------------------------------------------
 # B3LYP/6-311++G(d,p) empiricaldispersion=gd3bj scf=xqc pop=npa geom=c
 heck
 ----------------------------------------------------------------------

 -----------------------------------
 CID_20393662_JID_1821_Energie_anion
 -----------------------------------
 Structure from the checkpoint file:  "JID_1821.chk"
 Charge = -1 Multiplicity = 2

                         Standard orientation:
 ---------------------------------------------------------------------
 Center     Atomic      Atomic             Coordinates (Angstroms)
 Number     Number       Type             X           Y           Z
 ---------------------------------------------------------------------
      1          6           0       -4.083264    1.115650    0.073761
      2          6           0       -2.962073    0.583507    0.971897
      3          6           0       -2.399747   -0.776008    0.536405
      4          6           0       -1.773174   -0.778491   -0.866782
      5          7           0       -0.702090    0.193202   -1.047791
      6          6           0        0.532437    0.056416   -0.508994
      7          7           0        1.420308    1.022776   -0.450471
      8          6           0        2.581059    0.531072    0.101385
      9          7           0        2.660483   -0.723896    0.482650
     10         16           0        1.162521   -1.456177    0.148878
     11          6           0        3.756423    1.444926    0.268079
     12          1           0       -3.733508    1.322816   -0.944928
     13          1           0       -4.494988    2.049689    0.470403
     14          1           0       -4.905206    0.393354   -0.002417
     15          1           0       -2.143929    1.314390    1.016812
     16          1           0       -3.336199    0.489045    1.998582
     17          1           0       -1.644410   -1.103667    1.260512
     18          1           0       -3.197185   -1.531764    0.549064
     19          1           0       -1.370046   -1.772233   -1.097181
     20          1           0       -2.527938   -0.567623   -1.629656
     21          1           0       -0.951450    1.149150   -1.266697
     22          1           0        4.068574    1.841966   -0.704137
     23          1           0        3.485767    2.299348    0.898164
     24          1           0        4.589320    0.907366    0.724205
 ---------------------------------------------------------------------

 SCF Done:  E(UB3LYP) =  -837.206671988     A.U. after   33 cycles
 SCF Done:  E(UB3LYP) =  -837.206671988     a.u. after    1 cycles

 The electronic state is 2-A.
 Alpha  occ. eigenvalues --  -88.79537 -14.24838 -14.22542 -14.20882 -10.17900
 Alpha  occ. eigenvalues --  -10.14780 -10.10910 -10.08903 -10.06423 -10.05866
 Alpha  occ. eigenvalues --  -10.04421  -7.88022  -5.84415  -5.83973  -5.83481
 Alpha  occ. eigenvalues --   -0.91364  -0.85114  -0.76808  -0.69862  -0.68265
 Alpha  occ. eigenvalues --   -0.62267  -0.61181  -0.55580  -0.50557  -0.48585
 Alpha  occ. eigenvalues --   -0.46343  -0.41219  -0.38935  -0.36956  -0.35731
 Alpha  occ. eigenvalues --   -0.35665  -0.34247  -0.31877  -0.31315  -0.29472
 Alpha  occ. eigenvalues --   -0.29084  -0.28084  -0.27270  -0.24257  -0.22939
 Alpha  occ. eigenvalues --   -0.22600  -0.22182  -0.21941  -0.18308  -0.18183
 Alpha  occ. eigenvalues --   -0.13080   0.04699
 Alpha virt. eigenvalues --    0.06652   0.07340   0.07935   0.08280   0.09117
 Alpha virt. eigenvalues --    0.09379   0.10246   0.10498   0.10908   0.11184
 Alpha virt. eigenvalues --    0.11993   0.12322   0.12932   0.13702   0.14181

  Beta  occ. eigenvalues --  -88.79530 -14.24808 -14.22513 -14.20878 -10.17872
  Beta  occ. eigenvalues --  -10.14774 -10.10873 -10.08901 -10.06399 -10.05843
  Beta  occ. eigenvalues --  -10.04350  -7.88013  -5.84411  -5.83968  -5.83468
  Beta  occ. eigenvalues --   -0.91326  -0.85061  -0.76772  -0.69817  -0.68220
  Beta  occ. eigenvalues --   -0.62192  -0.61143  -0.55485  -0.50465  -0.48534
  Beta  occ. eigenvalues --   -0.46246  -0.41171  -0.38854  -0.36904  -0.35680
  Beta  occ. eigenvalues --   -0.35627  -0.34200  -0.31825  -0.31301  -0.29401
  Beta  occ. eigenvalues --   -0.29026  -0.28017  -0.27231  -0.24176  -0.22881
  Beta  occ. eigenvalues --   -0.22540  -0.22131  -0.21861  -0.18280  -0.18140
  Beta  occ. eigenvalues --   -0.13016
  Beta virt. eigenvalues --    0.06558   0.07433   0.07767   0.08844   0.09101
  Beta virt. eigenvalues --    0.09258   0.09993   0.10315   0.10717   0.11513
  Beta virt. eigenvalues --    0.11864   0.12544   0.12644   0.13337   0.13814

 Mulliken charges and spin densities:
               1          2
     1  C    2.779703  -3.357350
     2  C   -1.350267   1.065008
     3  C   -0.457034   0.579951
     4  C    1.894735  -2.264240
     5  N   -0.160568   0.161199
     6  C    0.290878  -0.280887
     7  N   -0.149398   0.053222
     8  C   -0.356313  -0.058646
     9  N   -0.122482   0.034089
    10  S    0.542059  -0.319107
    11  C   -0.581146  -0.084383
    12  H   -0.531229   0.663881
    13  H   -0.524978   0.664207
    14  H   -0.341587   0.486906
    15  H    0.047477   0.105903
    16  H   -0.569318   0.716120
    17  H   -0.182249   0.288034
    18  H   -0.545037   0.708243
    19  H   -0.242645   0.400369
    20  H   -0.655087   0.866819
    21  H   -0.172463   0.500375
    22  H    0.129627   0.025959
    23  H    0.120361   0.038686
    24  H    0.136961   0.005642
 Sum of Mulliken charges =  -1.00000   1.00000

 Dipole moment (field-independent basis, Debye):
    X=             10.9086    Y=             -0.7053    Z=              1.0139  Tot=             10.9783
 Quadrupole moment (field-independent basis, Debye-Ang):
   XX=           -162.6115   YY=           -111.1584   ZZ=           -107.9380
   XY=              9.5371   XZ=             -2.2931   YZ=              1.9330

 Summary of Natural Population Analysis:

                                       Natural Population
                Natural  -----------------------------------------------
    Atom  No    Charge         Core      Valence    Rydberg      Total
 -----------------------------------------------------------------------
      C    1   -0.28823      0.99967     2.28317    0.00539     3.28823
      C    2   -0.19270      0.99964     2.18401    0.00905     3.19270
      C    3   -0.19717      0.99962     2.18874    0.00880     3.19717
      C    4   -0.09068      0.99961     2.07916    0.01191     3.09068
      N    5   -0.30561      0.99964     2.79302    0.01295     3.80561
      C    6    0.14889      0.99960     1.83038    0.02113     2.85111
      N    7   -0.29475      0.99963     2.78359    0.01154     3.79475
      C    8    0.19893      0.99965     1.78400    0.01741     2.80107
      N    9   -0.33246      0.99969     2.82170    0.01108     3.83246
      S   10    0.23728      4.99947     2.73911    0.02415     7.76272
      C   11   -0.30028      0.99962     2.29539    0.00528     3.30028
      H   12    0.09644      0.00000     0.40072    0.00284     0.40356
      H   13    0.10159      0.00000     0.39655    0.00186     0.39841
      H   14    0.09937      0.00000     0.39804    0.00259     0.40063
      H   15    0.09317      0.00000     0.40528    0.00155     0.40683
      H   16    0.09842      0.00000     0.40034    0.00124     0.40158
      H   17    0.09722      0.00000     0.40114    0.00164     0.40278
      H   18    0.10268      0.00000     0.39530    0.00202     0.39732
      H   19    0.09805      0.00000     0.40026    0.00169     0.40195
      H   20    0.10782      0.00000     0.38951    0.00267     0.39218
      H   21    0.20254      0.00000     0.29360    0.00386     0.29746
      H   22    0.10606      0.00000     0.39282    0.00112     0.39394
      H   23    0.10698      0.00000     0.39190    0.00112     0.39302
      H   24    0.10643      0.00000     0.39250    0.00107     0.39357
 =======================================================================
   * Total *   -0.00000     14.99584    30.84020    0.16396    46.00000

 Normal termination of Gaussian 16 at Tue Dec  8 21:52:28 2020.
