 Gaussian 16, Revision A.03,

 -----------------------------------------------------------
 # opt freq B3LYP/6-31G(d) empiricaldispersion=gd3bj scf=xqc
 -----------------------------------------------------------

 ------------------------------
 CID_84022992_JID_3792_neutraal
 ------------------------------
 Symbolic Z-matrix:
 Charge =  0 Multiplicity = 1

 SCF Done:  E(RB3LYP) =  -593.918348442     A.U. after   14 cycles
 SCF Done:  E(RB3LYP) =  -593.912420412     A.U. after   13 cycles
 SCF Done:  E(RB3LYP) =  -593.924364537     A.U. after   12 cycles
 SCF Done:  E(RB3LYP) =  -593.924578751     A.U. after   11 cycles
 SCF Done:  E(RB3LYP) =  -593.924437644     A.U. after   12 cycles
 SCF Done:  E(RB3LYP) =  -593.925000318     A.U. after   11 cycles
 SCF Done:  E(RB3LYP) =  -593.925471677     A.U. after   11 cycles
 SCF Done:  E(RB3LYP) =  -593.925548183     A.U. after   11 cycles
 SCF Done:  E(RB3LYP) =  -593.925553474     A.U. after   10 cycles
 SCF Done:  E(RB3LYP) =  -593.925600743     A.U. after   10 cycles
 SCF Done:  E(RB3LYP) =  -593.925605357     A.U. after    8 cycles
 SCF Done:  E(RB3LYP) =  -593.925606252     A.U. after    8 cycles
 SCF Done:  E(RB3LYP) =  -593.925606422     A.U. after    7 cycles
 Optimization completed.
    -- Stationary point found.
 Normal termination of Gaussian 16 at Mon Dec 14 16:33:01 2020.

 --------------------------------------------------------------------
 #N Geom=AllCheck Guess=TCheck SCRF=Check GenChk RB3LYP/6-31G(d) Freq
 --------------------------------------------------------------------

 Structure from the checkpoint file:  "JID_3792.chk"
 ------------------------------
 CID_84022992_JID_3792_neutraal
 ------------------------------
 Charge =  0 Multiplicity = 1

 SCF Done:  E(RB3LYP) =  -593.925606422     A.U. after    1 cycles

  Exact polarizability: 123.744  -5.883 119.363  -0.762   1.927  97.748
 Approx polarizability: 157.603  -9.364 178.544  -2.251   3.517 146.728

                      1                      2                      3
                      A                      A                      A
 Frequencies --     52.5339                82.9288               107.7676
 Red. masses --      4.0727                 3.7268                 4.9738
 Frc consts  --      0.0066                 0.0151                 0.0340
 IR Inten    --      2.3731                 2.4918                 3.2007

                      4                      5                      6
                      A                      A                      A
 Frequencies --    146.1433               167.2240               172.5460
 Red. masses --      2.6269                 3.2032                 2.7163
 Frc consts  --      0.0331                 0.0528                 0.0476
 IR Inten    --      3.1194                 4.0975                 1.3778

                      7                      8                      9
                      A                      A                      A
 Frequencies --    211.8743               223.1070               245.1888
 Red. masses --      1.2889                 1.8666                 2.8616
 Frc consts  --      0.0341                 0.0547                 0.1014
 IR Inten    --      0.1875                 2.1274                11.5242

                     10                     11                     12
                      A                      A                      A
 Frequencies --    274.9307               310.1284               335.6575
 Red. masses --      1.1993                 1.7900                 2.4298
 Frc consts  --      0.0534                 0.1014                 0.1613
 IR Inten    --      2.2387                14.5592                 1.1219

                     13                     14                     15
                      A                      A                      A
 Frequencies --    351.1666               378.1192               408.2978
 Red. masses --      2.0496                 1.2838                 2.0082
 Frc consts  --      0.1489                 0.1081                 0.1972
 IR Inten    --      0.5908                71.9778                 2.8623

                     16                     17                     18
                      A                      A                      A
 Frequencies --    435.7373               452.5813               478.6114
 Red. masses --      3.2761                 4.2318                 3.1782
 Frc consts  --      0.3665                 0.5107                 0.4289
 IR Inten    --      2.7118                24.5753                 3.0854

                     19                     20                     21
                      A                      A                      A
 Frequencies --    509.0850               523.4835               550.9105
 Red. masses --      2.5311                 3.2184                 3.5369
 Frc consts  --      0.3865                 0.5196                 0.6325
 IR Inten    --      3.4029                 7.7284                 7.0918

                     22                     23                     24
                      A                      A                      A
 Frequencies --    573.3157               691.2311               719.7556
 Red. masses --      1.6627                 1.8270                 2.4393
 Frc consts  --      0.3220                 0.5143                 0.7445
 IR Inten    --     23.8719                82.7546                 7.4177

                     25                     26                     27
                      A                      A                      A
 Frequencies --    769.9405               828.1977               859.2463
 Red. masses --      3.1044                 2.6668                 3.3115
 Frc consts  --      1.0843                 1.0777                 1.4405
 IR Inten    --      5.1123                 1.4678                21.2761

                     28                     29                     30
                      A                      A                      A
 Frequencies --    879.6606               892.7595               911.3314
 Red. masses --      1.8893                 1.5008                 2.4422
 Frc consts  --      0.8614                 0.7048                 1.1950
 IR Inten    --      2.0086                49.8001                 8.2281

                     31                     32                     33
                      A                      A                      A
 Frequencies --    941.8864               950.3224               964.8278
 Red. masses --      2.0421                 1.7099                 1.4498
 Frc consts  --      1.0674                 0.9098                 0.7952
 IR Inten    --      4.9745                46.3499                 1.2210

                     34                     35                     36
                      A                      A                      A
 Frequencies --    967.9966              1026.3141              1043.3284
 Red. masses --      2.1826                 1.7731                 2.0498
 Frc consts  --      1.2050                 1.1004                 1.3147
 IR Inten    --     20.6674                 6.4572                30.1720

                     37                     38                     39
                      A                      A                      A
 Frequencies --   1055.3561              1077.3074              1108.9623
 Red. masses --      1.5236                 2.0844                 2.0455
 Frc consts  --      0.9998                 1.4253                 1.4821
 IR Inten    --      1.4318                33.6707                 8.1865

                     40                     41                     42
                      A                      A                      A
 Frequencies --   1112.7991              1158.5479              1168.1488
 Red. masses --      2.4951                 2.4365                 1.9197
 Frc consts  --      1.8204                 1.9269                 1.5434
 IR Inten    --     14.0036                27.1610                 8.0788

                     43                     44                     45
                      A                      A                      A
 Frequencies --   1181.0318              1209.7001              1243.9964
 Red. masses --      1.5700                 2.3566                 1.8179
 Frc consts  --      1.2903                 2.0319                 1.6575
 IR Inten    --      6.3644                 9.6471                 5.2390

                     46                     47                     48
                      A                      A                      A
 Frequencies --   1266.1141              1284.0256              1304.6950
 Red. masses --      1.1858                 1.7885                 1.9764
 Frc consts  --      1.1200                 1.7373                 1.9822
 IR Inten    --      4.8018                 8.6674                10.3406

                     49                     50                     51
                      A                      A                      A
 Frequencies --   1349.4658              1354.3419              1369.7455
 Red. masses --      1.9380                 1.4369                 1.3267
 Frc consts  --      2.0794                 1.5529                 1.4665
 IR Inten    --     98.7902                 8.3070                11.4380

                     52                     53                     54
                      A                      A                      A
 Frequencies --   1387.7993              1399.8931              1404.7382
 Red. masses --      1.2295                 1.4488                 1.2904
 Frc consts  --      1.3952                 1.6728                 1.5002
 IR Inten    --      8.3176                15.7437                 6.4943

                     55                     56                     57
                      A                      A                      A
 Frequencies --   1421.5164              1426.9412              1433.9512
 Red. masses --      1.4387                 1.2484                 1.2599
 Frc consts  --      1.7129                 1.4976                 1.5264
 IR Inten    --     17.7740                 1.6327                 5.0042

                     58                     59                     60
                      A                      A                      A
 Frequencies --   1439.0995              1469.8579              1500.1800
 Red. masses --      1.2474                 1.2803                 1.5340
 Frc consts  --      1.5221                 1.6297                 2.0341
 IR Inten    --      6.4852                11.0034                19.3587

                     61                     62                     63
                      A                      A                      A
 Frequencies --   1507.8882              1511.0388              1512.1141
 Red. masses --      1.0647                 1.1084                 1.2121
 Frc consts  --      1.4263                 1.4911                 1.6329
 IR Inten    --      2.4054                 5.2222                 3.0126

                     64                     65                     66
                      A                      A                      A
 Frequencies --   1521.2252              1527.1640              1530.4274
 Red. masses --      1.0602                 1.0730                 1.0794
 Frc consts  --      1.4455                 1.4744                 1.4895
 IR Inten    --      2.0432                12.6976                 0.7025

                     67                     68                     69
                      A                      A                      A
 Frequencies --   1534.9206              1543.5669              1555.6902
 Red. masses --      1.0630                 1.0626                 1.1377
 Frc consts  --      1.4755                 1.4917                 1.6223
 IR Inten    --      5.8545                14.9565                11.6702

                     70                     71                     72
                      A                      A                      A
 Frequencies --   1730.1411              1779.8459              2926.8846
 Red. masses --      1.0913                 7.1038                 1.0727
 Frc consts  --      1.9247                13.2589                 5.4144
 IR Inten    --     42.4437               315.6403                35.9779

                     73                     74                     75
                      A                      A                      A
 Frequencies --   2961.2653              3023.6391              3036.9533
 Red. masses --      1.0718                 1.0654                 1.0363
 Frc consts  --      5.5374                 5.7388                 5.6314
 IR Inten    --     82.6227                46.6747                29.5639

                     76                     77                     78
                      A                      A                      A
 Frequencies --   3045.9988              3051.6337              3052.9548
 Red. masses --      1.0701                 1.0443                 1.0695
 Frc consts  --      5.8495                 5.7298                 5.8734
 IR Inten    --     20.3210                19.6123                22.0286

                     79                     80                     81
                      A                      A                      A
 Frequencies --   3060.7450              3068.4473              3069.6827
 Red. masses --      1.0871                 1.0905                 1.0893
 Frc consts  --      6.0005                 6.0492                 6.0478
 IR Inten    --     20.3652                90.7283                32.4365

                     82                     83                     84
                      A                      A                      A
 Frequencies --   3101.8444              3103.6724              3111.8835
 Red. masses --      1.1003                 1.1060                 1.1012
 Frc consts  --      6.2375                 6.2768                 6.2829
 IR Inten    --     41.5338                36.5143                 2.8680

                     85                     86                     87
                      A                      A                      A
 Frequencies --   3117.7702              3160.8728              3166.1951
 Red. masses --      1.0995                 1.0972                 1.0950
 Frc consts  --      6.2968                 6.4589                 6.4678
 IR Inten    --     68.4432                11.2558                22.4571

                     88                     89                     90
                      A                      A                      A
 Frequencies --   3475.0774              3561.4277              3572.3895
 Red. masses --      1.0530                 1.0920                 1.0757
 Frc consts  --      7.4919                 8.1604                 8.0880
 IR Inten    --     28.2762                12.9116                13.1184

 - Thermochemistry -
 -------------------
 Temperature   298.150 Kelvin.  Pressure   1.00000 Atm.
 Atom     1 has atomic number  6 and mass  12.00000

 Molecular mass:   185.15281 amu.
 Principal axes and moments of inertia in atomic units:
                           1         2         3
     Eigenvalues --  1558.513052909.321523673.93260
           X            0.99969  -0.02483   0.00256
           Y            0.02480   0.99962   0.01219
           Z           -0.00286  -0.01212   0.99992
 This molecule is an asymmetric top.
 Rotational symmetry number  1.
 Warning -- assumption of classical behavior for rotation
           may cause significant error
 Rotational temperatures (Kelvin)      0.05557     0.02977     0.02358
 Rotational constants (GHZ):           1.15799     0.62033     0.49123
 Zero-point vibrational energy     762557.8 (Joules/Mol)
                                  182.25569 (Kcal/Mol)
 Warning -- explicit consideration of  22 degrees of freedom as
           vibrations may cause significant error
 Vibrational temperatures:     75.58   119.32   155.05   210.27   240.60
          (Kelvin)            248.26   304.84   321.00   352.77   395.56
                              446.21   482.94   505.25   544.03   587.45
                              626.93   651.16   688.62   732.46   753.18
                              792.64   824.87   994.53  1035.57  1107.77
                             1191.59  1236.26  1265.64  1284.48  1311.20
                             1355.16  1367.30  1388.17  1392.73  1476.64
                             1501.12  1518.42  1550.01  1595.55  1601.07
                             1666.89  1680.71  1699.24  1740.49  1789.83
                             1821.66  1847.43  1877.17  1941.58  1948.60
                             1970.76  1996.73  2014.13  2021.10  2045.24
                             2053.05  2063.14  2070.54  2114.80  2158.42
                             2169.51  2174.05  2175.59  2188.70  2197.25
                             2201.94  2208.41  2220.85  2238.29  2489.29
                             2560.80  4211.13  4260.60  4350.34  4369.50
                             4382.51  4390.62  4392.52  4403.73  4414.81
                             4416.59  4462.86  4465.49  4477.31  4485.78
                             4547.79  4555.45  4999.86  5124.10  5139.87

 Zero-point correction=                           0.290443 (Hartree/Particle)
 Thermal correction to Energy=                    0.304023
 Thermal correction to Enthalpy=                  0.304968
 Thermal correction to Gibbs Free Energy=         0.251312
 Sum of electronic and zero-point Energies=           -593.635163
 Sum of electronic and thermal Energies=              -593.621583
 Sum of electronic and thermal Enthalpies=            -593.620639
 Sum of electronic and thermal Free Energies=         -593.674295

                     E (Thermal)             CV                S
                      KCal/Mol        Cal/Mol-Kelvin    Cal/Mol-Kelvin
 Total                  190.778             53.132            112.929
 Electronic               0.000              0.000              0.000
 Translational            0.889              2.981             41.554
 Rotational               0.889              2.981             31.188
 Vibrational            189.000             47.170             40.186
 Vibration     1          0.596              1.977              4.720
 Vibration     2          0.600              1.961              3.820
 Vibration     3          0.606              1.943              3.309
 Vibration     4          0.617              1.907              2.722
 Vibration     5          0.624              1.883              2.466
 Vibration     6          0.626              1.876              2.408
 Vibration     7          0.643              1.823              2.027
 Vibration     8          0.649              1.806              1.934
 Vibration     9          0.660              1.771              1.765
 Vibration    10          0.677              1.720              1.565
 Vibration    11          0.699              1.654              1.362
 Vibration    12          0.717              1.604              1.233
 Vibration    13          0.728              1.573              1.161
 Vibration    14          0.748              1.517              1.047
 Vibration    15          0.773              1.452              0.933
 Vibration    16          0.796              1.392              0.840
 Vibration    17          0.811              1.355              0.788
 Vibration    18          0.835              1.297              0.714
 Vibration    19          0.864              1.230              0.636
 Vibration    20          0.878              1.198              0.602
 Vibration    21          0.906              1.138              0.542
 Vibration    22          0.930              1.089              0.498

 Optimization completed.
    -- Stationary point found.
 Normal termination of Gaussian 16 at Mon Dec 14 16:42:36 2020.

 ----------------------------------------------------------------------
 # B3LYP/6-311++G(d,p) empiricaldispersion=gd3bj scf=xqc pop=npa geom=c
 heck
 ----------------------------------------------------------------------

 --------------------------------------
 CID_84022992_JID_3792_Energie_neutraal
 --------------------------------------
 Structure from the checkpoint file:  "JID_3792.chk"
 Charge =  0 Multiplicity = 1

 SCF Done:  E(RB3LYP) =  -594.104935823     A.U. after   14 cycles
 Normal termination of Gaussian 16 at Mon Dec 14 16:46:56 2020.

 ----------------------------------------------------------------------
 # B3LYP/6-311++G(d,p) empiricaldispersion=gd3bj scf=xqc pop=npa geom=c
 heck
 ----------------------------------------------------------------------

 ------------------------------------
 CID_84022992_JID_3792_Energie_kation
 ------------------------------------
 Structure from the checkpoint file:  "JID_3792.chk"
 Charge =  1 Multiplicity = 2

 SCF Done:  E(UB3LYP) =  -593.816768568     A.U. after   24 cycles
 Normal termination of Gaussian 16 at Mon Dec 14 16:57:22 2020.
 Gaussian 16:  ES64L-G16RevA.03 25-Dec-2016

 ----------------------------------------------------------------------
 # B3LYP/6-311++G(d,p) empiricaldispersion=gd3bj scf=xqc pop=npa geom=c
 heck
 ----------------------------------------------------------------------

 -----------------------------------
 CID_84022992_JID_3792_Energie_anion
 -----------------------------------
 Structure from the checkpoint file:  "JID_3792.chk"
 Charge = -1 Multiplicity = 2

                         Standard orientation:
 ---------------------------------------------------------------------
 Center     Atomic      Atomic             Coordinates (Angstroms)
 Number     Number       Type             X           Y           Z
 ---------------------------------------------------------------------
      1          6           0       -2.328924   -0.509142    1.321210
      2          6           0       -1.901138   -0.362355   -0.143466
      3          6           0       -2.836011   -1.213126   -1.030204
      4          6           0       -2.083299    1.101801   -0.631544
      5          7           0       -1.398384    2.132509    0.153581
      6          6           0       -0.463040   -0.917400   -0.386257
      7          7           0        0.462890   -0.915407    0.753493
      8          6           0        1.623032   -1.771967    0.519962
      9          6           0        2.510285   -1.293420   -0.642817
     10          7           0        2.653669    0.162840   -0.620524
     11          6           0        1.837867    1.036304    0.046370
     12          8           0        1.838429    2.240435   -0.201099
     13          6           0        0.953724    0.410587    1.122713
     14          1           0       -3.395115   -0.271741    1.423742
     15          1           0       -1.772415    0.167906    1.971015
     16          1           0       -2.168305   -1.532619    1.674731
     17          1           0       -3.867984   -0.847585   -0.979867
     18          1           0       -2.522989   -1.187110   -2.082014
     19          1           0       -2.834256   -2.259418   -0.704352
     20          1           0       -1.818430    1.132440   -1.703533
     21          1           0       -3.157423    1.315081   -0.574877
     22          1           0       -1.914288    3.006585    0.098879
     23          1           0       -0.465539    2.330231   -0.207116
     24          1           0       -0.560202   -1.972312   -0.667982
     25          1           0       -0.043551   -0.403678   -1.273291
     26          1           0        2.209918   -1.791175    1.445857
     27          1           0        1.293204   -2.796541    0.316301
     28          1           0        3.499304   -1.763208   -0.576257
     29          1           0        2.068394   -1.600187   -1.601372
     30          1           0        3.171763    0.594882   -1.377657
     31          1           0        1.544239    0.320158    2.044220
     32          1           0        0.124041    1.087524    1.320719
 ---------------------------------------------------------------------

 SCF Done:  E(UB3LYP) =  -594.094100979     A.U. after   30 cycles

 The electronic state is 2-A.
 Alpha  occ. eigenvalues --  -18.99011 -14.23533 -14.20919 -14.19273 -10.16978
 Alpha  occ. eigenvalues --  -10.10412 -10.09767 -10.09316 -10.09249 -10.09083
 Alpha  occ. eigenvalues --  -10.08387 -10.06125 -10.05161  -0.93862  -0.84782
 Alpha  occ. eigenvalues --   -0.80608  -0.78432  -0.70801  -0.65649  -0.61429
 Alpha  occ. eigenvalues --   -0.58624  -0.56265  -0.56058  -0.52393  -0.46673
 Alpha  occ. eigenvalues --   -0.43413  -0.40711  -0.40045  -0.38886  -0.37347
 Alpha  occ. eigenvalues --   -0.36431  -0.35814  -0.35017  -0.34472  -0.33249
 Alpha  occ. eigenvalues --   -0.31408  -0.30471  -0.29893  -0.28706  -0.27949
 Alpha  occ. eigenvalues --   -0.26937  -0.26410  -0.25827  -0.25406  -0.23441
 Alpha  occ. eigenvalues --   -0.22511  -0.22254  -0.17669  -0.15574  -0.14493
 Alpha  occ. eigenvalues --   -0.11472   0.04272
 Alpha virt. eigenvalues --    0.06324   0.07578   0.07686   0.08868   0.09058
 Alpha virt. eigenvalues --    0.09249   0.10334   0.10625   0.10892   0.11470
 Alpha virt. eigenvalues --    0.12258   0.12540   0.12719   0.12921   0.14420

  Beta  occ. eigenvalues --  -18.99002 -14.23516 -14.20921 -14.19265 -10.16976
  Beta  occ. eigenvalues --  -10.10363 -10.09740 -10.09299 -10.09240 -10.09055
  Beta  occ. eigenvalues --  -10.08386 -10.06100 -10.05146  -0.93846  -0.84761
  Beta  occ. eigenvalues --   -0.80578  -0.78417  -0.70781  -0.65595  -0.61388
  Beta  occ. eigenvalues --   -0.58587  -0.56206  -0.56009  -0.52342  -0.46619
  Beta  occ. eigenvalues --   -0.43362  -0.40662  -0.40008  -0.38859  -0.37308
  Beta  occ. eigenvalues --   -0.36388  -0.35780  -0.34989  -0.34438  -0.33225
  Beta  occ. eigenvalues --   -0.31384  -0.30422  -0.29838  -0.28674  -0.27922
  Beta  occ. eigenvalues --   -0.26911  -0.26379  -0.25798  -0.25377  -0.23420
  Beta  occ. eigenvalues --   -0.22482  -0.22226  -0.17655  -0.15541  -0.14477
  Beta  occ. eigenvalues --   -0.11457
  Beta virt. eigenvalues --    0.06445   0.07459   0.08020   0.08295   0.09516
  Beta virt. eigenvalues --    0.09585   0.09741   0.10759   0.10852   0.11158
  Beta virt. eigenvalues --    0.11946   0.12504   0.12812   0.13046   0.13410

 Mulliken charges and spin densities:
               1          2
     1  C    0.032378  -0.590062
     2  C   -0.530189   1.234913
     3  C    0.473883  -1.082789
     4  C    0.161525  -0.699105
     5  N   -0.492518   0.082737
     6  C    0.051094  -0.936067
     7  N    0.255963   0.090336
     8  C   -0.709600   0.581911
     9  C    2.219458  -2.582619
    10  N   -0.291604   0.133024
    11  C   -0.459694   0.551452
    12  O   -0.336790   0.009196
    13  C    0.151336  -0.826077
    14  H    0.024260   0.118145
    15  H    0.113727   0.037001
    16  H   -0.009817   0.181707
    17  H   -0.074106   0.206480
    18  H   -0.160437   0.300923
    19  H   -0.121386   0.264344
    20  H   -0.024082   0.178491
    21  H   -0.111335   0.267966
    22  H    0.170173   0.085959
    23  H    0.222749   0.019293
    24  H    0.053418   0.187949
    25  H    0.261086  -0.097635
    26  H   -0.024040   0.195834
    27  H   -0.497263   0.647570
    28  H   -1.021044   1.232897
    29  H   -0.405070   0.596531
    30  H   -0.165963   0.463932
    31  H   -0.150436   0.313120
    32  H    0.394325  -0.167357
 Sum of Mulliken charges =  -1.00000   1.00000

 Dipole moment (field-independent basis, Debye):
    X=             -4.1826    Y=              3.3200    Z=              2.7246  Tot=              5.9950
 Quadrupole moment (field-independent basis, Debye-Ang):
   XX=           -147.4194   YY=           -131.5349   ZZ=           -116.1525
   XY=              4.9711   XZ=              5.3420   YZ=             -4.9362

 Summary of Natural Population Analysis:

                                       Natural Population
                Natural  -----------------------------------------------
    Atom  No    Charge         Core      Valence    Rydberg      Total
 -----------------------------------------------------------------------
      C    1   -0.28557      0.99962     2.27929    0.00666     3.28557
      C    2   -0.05559      0.99958     2.04331    0.01271     3.05559
      C    3   -0.28232      0.99963     2.27535    0.00734     3.28232
      C    4   -0.08531      0.99957     2.07374    0.01200     3.08531
      N    5   -0.43603      0.99976     2.92623    0.01004     3.93603
      C    6   -0.08700      0.99955     2.07309    0.01435     3.08700
      N    7   -0.27558      0.99974     2.76256    0.01328     3.77558
      C    8   -0.08655      0.99961     2.07445    0.01249     3.08655
      C    9   -0.09395      0.99961     2.08328    0.01106     3.09395
      N   10   -0.31761      0.99967     2.80684    0.01110     3.81761
      C   11    0.33584      0.99966     1.64157    0.02294     2.66416
      O   12   -0.33462      0.99988     3.32889    0.00586     4.33462
      C   13   -0.14023      0.99955     2.12967    0.01101     3.14023
      H   14    0.09479      0.00000     0.40436    0.00085     0.40521
      H   15    0.10728      0.00000     0.39160    0.00111     0.39272
      H   16    0.10188      0.00000     0.39698    0.00114     0.39812
      H   17    0.09779      0.00000     0.40118    0.00103     0.40221
      H   18    0.10098      0.00000     0.39786    0.00116     0.39902
      H   19    0.10087      0.00000     0.39818    0.00095     0.39913
      H   20    0.08334      0.00000     0.41527    0.00140     0.41666
      H   21    0.08991      0.00000     0.40902    0.00106     0.41009
      H   22    0.17538      0.00000     0.32326    0.00136     0.32462
      H   23    0.18814      0.00000     0.30980    0.00207     0.31186
      H   24    0.10026      0.00000     0.39775    0.00199     0.39974
      H   25    0.08492      0.00000     0.41253    0.00255     0.41508
      H   26    0.09504      0.00000     0.40357    0.00139     0.40496
      H   27    0.10370      0.00000     0.39470    0.00160     0.39630
      H   28    0.10152      0.00000     0.39389    0.00459     0.39848
      H   29    0.09512      0.00000     0.40127    0.00361     0.40488
      H   30    0.19520      0.00000     0.30158    0.00322     0.30480
      H   31    0.10509      0.00000     0.39389    0.00103     0.39491
      H   32    0.12331      0.00000     0.37498    0.00172     0.37669
 =======================================================================
   * Total *    0.00000     12.99543    37.81992    0.18465    51.00000

 Normal termination of Gaussian 16 at Mon Dec 14 17:10:33 2020.
