 Gaussian 16, Revision A.03,

 -----------------------------------------------------------
 # opt freq B3LYP/6-31G(d) empiricaldispersion=gd3bj scf=xqc
 -----------------------------------------------------------

 -------------------------------
 CID_133628089_JID_2216_neutraal
 -------------------------------
 Symbolic Z-matrix:
 Charge =  0 Multiplicity = 1

 SCF Done:  E(RB3LYP) =  -642.624998144     A.U. after   16 cycles
 SCF Done:  E(RB3LYP) =  -642.633519427     A.U. after   13 cycles
 SCF Done:  E(RB3LYP) =  -642.633909464     A.U. after   12 cycles
 SCF Done:  E(RB3LYP) =  -642.634011027     A.U. after   13 cycles
 SCF Done:  E(RB3LYP) =  -642.634587860     A.U. after   12 cycles
 SCF Done:  E(RB3LYP) =  -642.634735731     A.U. after   12 cycles
 SCF Done:  E(RB3LYP) =  -642.634727584     A.U. after   13 cycles
 SCF Done:  E(RB3LYP) =  -642.634868510     A.U. after   12 cycles
 SCF Done:  E(RB3LYP) =  -642.634952434     A.U. after   11 cycles
 SCF Done:  E(RB3LYP) =  -642.635187714     A.U. after   14 cycles
 SCF Done:  E(RB3LYP) =  -642.635222729     A.U. after   12 cycles
 SCF Done:  E(RB3LYP) =  -642.635303023     A.U. after   13 cycles
 SCF Done:  E(RB3LYP) =  -642.635307544     A.U. after   10 cycles
 SCF Done:  E(RB3LYP) =  -642.635308510     A.U. after   11 cycles
 Optimization completed.
    -- Stationary point found.
 Normal termination of Gaussian 16 at Wed Dec  9 16:55:16 2020.

 --------------------------------------------------------------------
 #N Geom=AllCheck Guess=TCheck SCRF=Check GenChk RB3LYP/6-31G(d) Freq
 --------------------------------------------------------------------

 Structure from the checkpoint file:  "JID_2216.chk"
 -------------------------------
 CID_133628089_JID_2216_neutraal
 -------------------------------
 Charge =  0 Multiplicity = 1

 SCF Done:  E(RB3LYP) =  -642.635308510     A.U. after    1 cycles

  Exact polarizability: 121.444  -5.600  86.845  -1.106   2.367  48.594
 Approx polarizability: 178.517 -32.455 166.227   0.787   8.808  77.880

                      1                      2                      3
                      A                      A                      A
 Frequencies --     31.3453                68.2511                77.9220
 Red. masses --     11.2608                 7.0314                 3.5632
 Frc consts  --      0.0065                 0.0193                 0.0127
 IR Inten    --      1.3612                 0.6054                10.7456

                      4                      5                      6
                      A                      A                      A
 Frequencies --    141.0319               181.9968               216.9744
 Red. masses --      6.3163                 4.9020                 6.6171
 Frc consts  --      0.0740                 0.0957                 0.1835
 IR Inten    --      1.1793                 2.6732                 2.9602

                      7                      8                      9
                      A                      A                      A
 Frequencies --    242.1851               331.1297               353.5932
 Red. masses --      4.4304                 6.0201                 4.7959
 Frc consts  --      0.1531                 0.3889                 0.3533
 IR Inten    --      9.7688                 9.7356                14.2997

                     10                     11                     12
                      A                      A                      A
 Frequencies --    407.7204               434.3408               466.3800
 Red. masses --      1.4011                 6.6407                 4.4862
 Frc consts  --      0.1372                 0.7381                 0.5749
 IR Inten    --    125.2516                18.1657                 6.5594

                     13                     14                     15
                      A                      A                      A
 Frequencies --    535.4275               561.0315               588.8520
 Red. masses --      3.5090                 7.5467                 4.6583
 Frc consts  --      0.5927                 1.3995                 0.9517
 IR Inten    --     20.1096                39.2408                17.5811

                     16                     17                     18
                      A                      A                      A
 Frequencies --    611.7544               647.0659               687.7436
 Red. masses --      1.5449                 4.1630                 1.4295
 Frc consts  --      0.3407                 1.0270                 0.3984
 IR Inten    --     92.2263                11.4066                33.4217

                     19                     20                     21
                      A                      A                      A
 Frequencies --    726.4707               762.1241               767.4717
 Red. masses --      4.1234                 5.2469                 3.7881
 Frc consts  --      1.2822                 1.7956                 1.3146
 IR Inten    --     46.5891                22.9045                48.9642

                     22                     23                     24
                      A                      A                      A
 Frequencies --    820.4162               878.9866               984.6225
 Red. masses --      4.4975                 1.5225                 1.5710
 Frc consts  --      1.7836                 0.6931                 0.8974
 IR Inten    --      6.2168                35.6974                19.8971

                     25                     26                     27
                      A                      A                      A
 Frequencies --   1013.8774              1081.6198              1108.4363
 Red. masses --      4.6763                 4.5461                 7.8288
 Frc consts  --      2.8322                 3.1336                 5.6671
 IR Inten    --     18.3655                57.1870               110.3776

                     28                     29                     30
                      A                      A                      A
 Frequencies --   1164.7938              1188.5446              1209.7705
 Red. masses --      3.9959                 2.0117                 1.1889
 Frc consts  --      3.1942                 1.6743                 1.0252
 IR Inten    --    177.4288                34.5751                39.9532

                     31                     32                     33
                      A                      A                      A
 Frequencies --   1253.0679              1311.1592              1386.1325
 Red. masses --      2.1356                 3.3286                 1.7302
 Frc consts  --      1.9757                 3.3715                 1.9587
 IR Inten    --     28.6877                 2.1548                 1.6818

                     34                     35                     36
                      A                      A                      A
 Frequencies --   1396.4189              1412.2572              1418.6702
 Red. masses --      1.4849                 2.8949                 1.2566
 Frc consts  --      1.7061                 3.4018                 1.4900
 IR Inten    --      1.3219                56.0021                54.6643

                     37                     38                     39
                      A                      A                      A
 Frequencies --   1518.2092              1531.9247              1618.4717
 Red. masses --      1.1676                 2.9131                 3.8618
 Frc consts  --      1.5856                 4.0278                 5.9600
 IR Inten    --     32.0589               105.2648                 2.7468

                     40                     41                     42
                      A                      A                      A
 Frequencies --   1671.7350              1754.8337              1844.2427
 Red. masses --      6.2739                11.1348                10.4960
 Frc consts  --     10.3305                20.2025                21.0333
 IR Inten    --     19.4327               376.8555               291.2817

                     43                     44                     45
                      A                      A                      A
 Frequencies --   3055.4762              3106.1169              3224.0792
 Red. masses --      1.0615                 1.1046                 1.0922
 Frc consts  --      5.8387                 6.2790                 6.6890
 IR Inten    --     24.9555                12.7990                 1.3428

                     46                     47                     48
                      A                      A                      A
 Frequencies --   3609.5906              3683.3512              3735.1603
 Red. masses --      1.0787                 1.0638                 1.0664
 Frc consts  --      8.2806                 8.5036                 8.7661
 IR Inten    --    144.4357                62.7531                28.4362

 - Thermochemistry -
 -------------------
 Temperature   298.150 Kelvin.  Pressure   1.00000 Atm.
 Atom     1 has atomic number  6 and mass  12.00000

 Molecular mass:   170.03276 amu.
 Principal axes and moments of inertia in atomic units:
                           1         2         3
     Eigenvalues --   859.094363269.566063900.22114
           X            0.99998   0.00484  -0.00277
           Y           -0.00486   0.99996  -0.00784
           Z            0.00274   0.00786   0.99997
 This molecule is an asymmetric top.
 Rotational symmetry number  1.
 Warning -- assumption of classical behavior for rotation
           may cause significant error
 Rotational temperatures (Kelvin)      0.10082     0.02649     0.02221
 Rotational constants (GHZ):           2.10075     0.55198     0.46273
 Zero-point vibrational energy     339875.7 (Joules/Mol)
                                   81.23224 (Kcal/Mol)
 Warning -- explicit consideration of  16 degrees of freedom as
           vibrations may cause significant error
 Vibrational temperatures:     45.10    98.20   112.11   202.91   261.85
          (Kelvin)            312.18   348.45   476.42   508.74   586.62
                              624.92   671.02   770.36   807.20   847.23
                              880.18   930.98   989.51  1045.23  1096.53
                             1104.22  1180.40  1264.67  1416.65  1458.74
                             1556.21  1594.79  1675.88  1710.05  1740.59
                             1802.89  1886.47  1994.34  2009.14  2031.92
                             2041.15  2184.36  2204.10  2328.62  2405.25
                             2524.81  2653.45  4396.15  4469.01  4638.73
                             5193.40  5299.52  5374.06

 Zero-point correction=                           0.129452 (Hartree/Particle)
 Thermal correction to Energy=                    0.140200
 Thermal correction to Enthalpy=                  0.141144
 Thermal correction to Gibbs Free Energy=         0.091652
 Sum of electronic and zero-point Energies=           -642.505857
 Sum of electronic and thermal Energies=              -642.495109
 Sum of electronic and thermal Enthalpies=            -642.494164
 Sum of electronic and thermal Free Energies=         -642.543657

                     E (Thermal)             CV                S
                      KCal/Mol        Cal/Mol-Kelvin    Cal/Mol-Kelvin
 Total                   87.977             39.063            104.166
 Electronic               0.000              0.000              0.000
 Translational            0.889              2.981             41.300
 Rotational               0.889              2.981             30.772
 Vibrational             86.199             33.101             32.093
 Vibration     1          0.594              1.983              5.742
 Vibration     2          0.598              1.969              4.203
 Vibration     3          0.599              1.964              3.943
 Vibration     4          0.615              1.912              2.790
 Vibration     5          0.630              1.864              2.308
 Vibration     6          0.646              1.815              1.984
 Vibration     7          0.658              1.776              1.787
 Vibration     8          0.713              1.613              1.255
 Vibration     9          0.730              1.568              1.150
 Vibration    10          0.772              1.453              0.935
 Vibration    11          0.795              1.395              0.845
 Vibration    12          0.824              1.325              0.748
 Vibration    13          0.890              1.172              0.575
 Vibration    14          0.917              1.116              0.522
 Vibration    15          0.946              1.056              0.469
 Vibration    16          0.971              1.007              0.430

                           ! Non-Optimized Parameters !
 Normal termination of Gaussian 16 at Wed Dec  9 16:58:51 2020.

 ----------------------------------------------------------------------
 # B3LYP/6-311++G(d,p) empiricaldispersion=gd3bj scf=xqc pop=npa geom=c
 heck
 ----------------------------------------------------------------------

 ---------------------------------------
 CID_133628089_JID_2216_Energie_neutraal
 ---------------------------------------
 Structure from the checkpoint file:  "JID_2216.chk"
 Charge =  0 Multiplicity = 1

 SCF Done:  E(RB3LYP) =  -642.842251175     A.U. after   17 cycles
 Normal termination of Gaussian 16 at Wed Dec  9 17:00:36 2020.

 ----------------------------------------------------------------------
 # B3LYP/6-311++G(d,p) empiricaldispersion=gd3bj scf=xqc pop=npa geom=c
 heck
 ----------------------------------------------------------------------

 -------------------------------------
 CID_133628089_JID_2216_Energie_kation
 -------------------------------------
 Structure from the checkpoint file:  "JID_2216.chk"
 Charge =  1 Multiplicity = 2

 SCF Done:  E(UB3LYP) =  -642.513898164     A.U. after   33 cycles
 SCF Done:  E(UB3LYP) =  -642.513898164     a.u. after    1 cycles
 Normal termination of Gaussian 16 at Wed Dec  9 17:05:35 2020.
 Gaussian 16:  ES64L-G16RevA.03 25-Dec-2016

 ----------------------------------------------------------------------
 # B3LYP/6-311++G(d,p) empiricaldispersion=gd3bj scf=xqc pop=npa geom=c
 heck
 ----------------------------------------------------------------------

 ------------------------------------
 CID_133628089_JID_2216_Energie_anion
 ------------------------------------
 Structure from the checkpoint file:  "JID_2216.chk"
 Charge = -1 Multiplicity = 2

                         Standard orientation:
 ---------------------------------------------------------------------
 Center     Atomic      Atomic             Coordinates (Angstroms)
 Number     Number       Type             X           Y           Z
 ---------------------------------------------------------------------
      1          6           0        0.903784    1.367728   -0.119171
      2          6           0        1.711680    0.274201   -0.125393
      3          7           0        1.157375   -0.973782   -0.109415
      4          7           0       -0.152283   -1.234009   -0.055847
      5          6           0       -0.962065   -0.211963   -0.042597
      6          6           0       -0.543473    1.214530   -0.122531
      7          8           0       -1.344708    2.142831   -0.198473
      8          6           0       -2.419606   -0.577943    0.001504
      9          8           0       -2.939862   -1.403898   -0.712331
     10          8           0       -3.074853    0.111501    0.955127
     11          6           0        3.222107    0.293436   -0.206281
     12          8           0        3.804664   -0.836374    0.432135
     13          1           0        1.319229    2.369682   -0.132130
     14          1           0        1.767130   -1.780477   -0.059041
     15          1           0       -4.009556   -0.162605    0.893201
     16          1           0        3.532844    0.227707   -1.254500
     17          1           0        3.598080    1.243738    0.192805
     18          1           0        3.720126   -0.715921    1.391653
 ---------------------------------------------------------------------

 SCF Done:  E(UB3LYP) =  -642.855098484     A.U. after   33 cycles
 SCF Done:  E(UB3LYP) =  -642.855098484     a.u. after    1 cycles

 The electronic state is 2-A.
 Alpha  occ. eigenvalues --  -19.04109 -19.03567 -18.97716 -18.93759 -14.25763
 Alpha  occ. eigenvalues --  -14.19734 -10.16559 -10.13158 -10.11073 -10.10303
 Alpha  occ. eigenvalues --  -10.06112 -10.04441  -0.98015  -0.94000  -0.90968
 Alpha  occ. eigenvalues --   -0.88819  -0.87349  -0.73338  -0.67329  -0.59966
 Alpha  occ. eigenvalues --   -0.56570  -0.50024  -0.48714  -0.44606  -0.42380
 Alpha  occ. eigenvalues --   -0.38287  -0.36447  -0.35866  -0.35447  -0.33307
 Alpha  occ. eigenvalues --   -0.31850  -0.30735  -0.29468  -0.27742  -0.26731
 Alpha  occ. eigenvalues --   -0.25060  -0.24050  -0.20475  -0.19814  -0.17698
 Alpha  occ. eigenvalues --   -0.16965  -0.14976  -0.10409  -0.09523   0.04007
 Alpha virt. eigenvalues --    0.06198   0.08971   0.09040   0.09447   0.10593
 Alpha virt. eigenvalues --    0.11786   0.13025   0.14440   0.15092   0.15614
 Alpha virt. eigenvalues --    0.16198   0.16673   0.17579   0.18844   0.19214

  Beta  occ. eigenvalues --  -19.04085 -19.03523 -18.97616 -18.93643 -14.25641
  Beta  occ. eigenvalues --  -14.19027 -10.16479 -10.13133 -10.11117 -10.10251
  Beta  occ. eigenvalues --  -10.05990 -10.04360  -0.97902  -0.93873  -0.90368
  Beta  occ. eigenvalues --   -0.88664  -0.87120  -0.72747  -0.67102  -0.59811
  Beta  occ. eigenvalues --   -0.56059  -0.49866  -0.48428  -0.44475  -0.42160
  Beta  occ. eigenvalues --   -0.38076  -0.36285  -0.35701  -0.35311  -0.33083
  Beta  occ. eigenvalues --   -0.31384  -0.29890  -0.29179  -0.27542  -0.26579
  Beta  occ. eigenvalues --   -0.24947  -0.23285  -0.20246  -0.19446  -0.16572
  Beta  occ. eigenvalues --   -0.16294  -0.14491  -0.09497  -0.09171
  Beta virt. eigenvalues --    0.07115   0.09067   0.09270   0.09474   0.10267
  Beta virt. eigenvalues --    0.11072   0.11758   0.13335   0.14977   0.15456
  Beta virt. eigenvalues --    0.15760   0.16205   0.16599   0.17588   0.19078

 Mulliken charges and spin densities:
               1          2
     1  C    0.942086  -0.231338
     2  C   -0.991563   0.742936
     3  N   -0.068840  -0.048632
     4  N   -0.163378   0.467625
     5  C   -0.039656   0.111271
     6  C   -0.451793  -0.126537
     7  O   -0.394509   0.042696
     8  C    0.119738   0.045523
     9  O   -0.338365   0.030681
    10  O   -0.130171   0.003811
    11  C    0.469253  -1.041884
    12  O   -0.207486  -0.072679
    13  H    0.156813  -0.001543
    14  H    0.242312   0.074980
    15  H    0.245653   0.006107
    16  H    0.101526   0.065504
    17  H   -0.306314   0.488983
    18  H   -0.185308   0.442496
 Sum of Mulliken charges =  -1.00000   1.00000

 Dipole moment (field-independent basis, Debye):
    X=              0.5445    Y=             -0.3952    Z=             -0.3364  Tot=              0.7522
 Quadrupole moment (field-independent basis, Debye-Ang):
   XX=           -109.3722   YY=            -95.5010   ZZ=            -80.7022
   XY=              3.3879   XZ=            -12.8235   YZ=             -3.0503

 Summary of Natural Population Analysis:

                                       Natural Population
                Natural  -----------------------------------------------
    Atom  No    Charge         Core      Valence    Rydberg      Total
 -----------------------------------------------------------------------
      C    1   -0.14757      0.99948     2.13621    0.01189     3.14757
      C    2    0.07442      0.99951     1.91424    0.01183     2.92558
      N    3   -0.16427      0.99964     2.65107    0.01356     3.66427
      N    4   -0.01231      0.99966     2.49970    0.01295     3.51231
      C    5    0.01776      0.99952     1.96492    0.01780     2.98224
      C    6    0.22475      0.99958     1.75537    0.02030     2.77525
      O    7   -0.31344      0.99988     3.30715    0.00640     4.31344
      C    8    0.40871      0.99970     1.56502    0.02658     2.59129
      O    9   -0.30330      0.99987     3.29699    0.00644     4.30330
      O   10   -0.33511      0.99987     3.32922    0.00602     4.33511
      C   11   -0.02092      0.99956     2.00760    0.01375     3.02092
      O   12   -0.37083      0.99990     3.36362    0.00730     4.37083
      H   13    0.10208      0.00000     0.39649    0.00143     0.39792
      H   14    0.19661      0.00000     0.30016    0.00323     0.30339
      H   15    0.22861      0.00000     0.26727    0.00412     0.27139
      H   16    0.09137      0.00000     0.40749    0.00114     0.40863
      H   17    0.08885      0.00000     0.40932    0.00183     0.41115
      H   18    0.23460      0.00000     0.25470    0.01070     0.26540
 =======================================================================
   * Total *    0.00000     11.99618    31.82654    0.17729    44.00000

 Normal termination of Gaussian 16 at Wed Dec  9 17:10:22 2020.
