 Gaussian 16, Revision A.03,

 -----------------------------------------------------------
 # opt freq B3LYP/6-31G(d) empiricaldispersion=gd3bj scf=xqc
 -----------------------------------------------------------

 ------------------------------
 CID_7422903_JID_10323_neutraal
 ------------------------------
 Symbolic Z-matrix:
 Charge =  0 Multiplicity = 1

 SCF Done:  E(RB3LYP) =  -911.438833052     A.U. after   15 cycles
 SCF Done:  E(RB3LYP) =  -911.445803879     A.U. after   12 cycles
 SCF Done:  E(RB3LYP) =  -911.447008425     A.U. after   12 cycles
 SCF Done:  E(RB3LYP) =  -911.447330023     A.U. after   12 cycles
 SCF Done:  E(RB3LYP) =  -911.447593515     A.U. after   11 cycles
 SCF Done:  E(RB3LYP) =  -911.447671511     A.U. after   11 cycles
 SCF Done:  E(RB3LYP) =  -911.447722126     A.U. after   11 cycles
 SCF Done:  E(RB3LYP) =  -911.447752251     A.U. after   10 cycles
 SCF Done:  E(RB3LYP) =  -911.447770305     A.U. after   10 cycles
 SCF Done:  E(RB3LYP) =  -911.447773648     A.U. after    8 cycles
 SCF Done:  E(RB3LYP) =  -911.447774604     A.U. after    8 cycles
 SCF Done:  E(RB3LYP) =  -911.447774737     A.U. after    7 cycles
 SCF Done:  E(RB3LYP) =  -911.447774787     A.U. after    7 cycles
 SCF Done:  E(RB3LYP) =  -911.447774791     A.U. after    7 cycles
 SCF Done:  E(RB3LYP) =  -911.447774778     A.U. after    7 cycles
 Optimization completed.
    -- Stationary point found.
 Normal termination of Gaussian 16 at Sat Dec 12 15:05:59 2020.

 --------------------------------------------------------------------
 #N Geom=AllCheck Guess=TCheck SCRF=Check GenChk RB3LYP/6-31G(d) Freq
 --------------------------------------------------------------------

 Structure from the checkpoint file:  "JID_10323.chk"
 ------------------------------
 CID_7422903_JID_10323_neutraal
 ------------------------------
 Charge =  0 Multiplicity = 1

 SCF Done:  E(RB3LYP) =  -911.447774778     A.U. after    1 cycles

  Exact polarizability: 230.033  -8.258 165.010   1.394 -14.099 123.772
 Approx polarizability: 304.835 -10.128 302.955  12.930 -29.495 207.019

                      1                      2                      3
                      A                      A                      A
 Frequencies --     23.5307                25.4002                37.8747
 Red. masses --      6.4672                 4.3977                 5.1768
 Frc consts  --      0.0021                 0.0017                 0.0044
 IR Inten    --      0.4388                 0.4042                 1.0499

                      4                      5                      6
                      A                      A                      A
 Frequencies --     49.5882                97.5055               115.3111
 Red. masses --      5.2449                 4.1297                 7.6981
 Frc consts  --      0.0076                 0.0231                 0.0603
 IR Inten    --      0.3544                 0.1578                 3.1971

                      7                      8                      9
                      A                      A                      A
 Frequencies --    137.5667               184.2085               203.2161
 Red. masses --      4.9462                 5.1910                 3.7730
 Frc consts  --      0.0552                 0.1038                 0.0918
 IR Inten    --      2.8754                 4.2745                 3.9220

                     10                     11                     12
                      A                      A                      A
 Frequencies --    230.1231               242.0144               260.5436
 Red. masses --      5.8628                 5.5451                 5.0399
 Frc consts  --      0.1829                 0.1914                 0.2016
 IR Inten    --      1.0015                 0.2464                 0.2844

                     13                     14                     15
                      A                      A                      A
 Frequencies --    309.7264               350.9349               372.2701
 Red. masses --      4.3832                 6.8433                 2.9353
 Frc consts  --      0.2477                 0.4966                 0.2397
 IR Inten    --      2.1339                 5.9401                 5.1832

                     16                     17                     18
                      A                      A                      A
 Frequencies --    401.2492               417.9110               447.8914
 Red. masses --      2.2621                 3.0070                 3.6562
 Frc consts  --      0.2146                 0.3094                 0.4321
 IR Inten    --      3.4417                 0.3026                 3.3856

                     19                     20                     21
                      A                      A                      A
 Frequencies --    471.5426               524.4730               539.1396
 Red. masses --      3.4968                 5.3113                 4.0768
 Frc consts  --      0.4581                 0.8608                 0.6982
 IR Inten    --      4.5324                20.1872                 1.2292

                     22                     23                     24
                      A                      A                      A
 Frequencies --    576.7531               595.8187               607.5143
 Red. masses --      3.7477                 1.1308                 4.3121
 Frc consts  --      0.7345                 0.2365                 0.9377
 IR Inten    --      3.0164               147.6574                 3.7691

                     25                     26                     27
                      A                      A                      A
 Frequencies --    637.5591               648.0601               659.1091
 Red. masses --      6.2583                 4.5710                 5.8527
 Frc consts  --      1.4988                 1.1311                 1.4980
 IR Inten    --      0.2723                12.0254                 4.7228

                     28                     29                     30
                      A                      A                      A
 Frequencies --    694.6273               709.9474               721.3108
 Red. masses --      5.4596                 6.4457                 2.4293
 Frc consts  --      1.5521                 1.9141                 0.7447
 IR Inten    --     35.9542                 1.3199                26.6538

                     31                     32                     33
                      A                      A                      A
 Frequencies --    723.4413               771.6414               784.8944
 Red. masses --      3.4022                 2.1932                 6.7942
 Frc consts  --      1.0491                 0.7694                 2.4661
 IR Inten    --     28.2296                13.6994                22.2582

                     34                     35                     36
                      A                      A                      A
 Frequencies --    838.7320               851.8066               867.6083
 Red. masses --      3.8203                 4.8743                 1.2545
 Frc consts  --      1.5834                 2.0837                 0.5564
 IR Inten    --      8.1082                 2.4164                 0.6207

                     37                     38                     39
                      A                      A                      A
 Frequencies --    879.6134               897.5094               933.3113
 Red. masses --      1.3804                 2.5730                 1.4307
 Frc consts  --      0.6293                 1.2211                 0.7343
 IR Inten    --      5.6977                17.2728                 4.8176

                     40                     41                     42
                      A                      A                      A
 Frequencies --    942.4075               953.3746               966.8989
 Red. masses --      1.4585                 2.1855                 1.9344
 Frc consts  --      0.7632                 1.1704                 1.0655
 IR Inten    --      2.1726                15.9829                 8.8178

                     43                     44                     45
                      A                      A                      A
 Frequencies --    978.3776               982.2348              1007.2744
 Red. masses --      1.4172                 3.9203                 1.2756
 Frc consts  --      0.7993                 2.2284                 0.7625
 IR Inten    --      1.5474                 3.9340                 1.9637

                     46                     47                     48
                      A                      A                      A
 Frequencies --   1022.5530              1050.8242              1061.5926
 Red. masses --      6.2755                 3.2527                 2.2347
 Frc consts  --      3.8661                 2.1162                 1.4838
 IR Inten    --      0.5260                31.1613                 3.0264

                     49                     50                     51
                      A                      A                      A
 Frequencies --   1101.7454              1108.0781              1124.4811
 Red. masses --      2.2565                 2.3454                 2.4120
 Frc consts  --      1.6138                 1.6967                 1.7969
 IR Inten    --     40.6382                56.6091                50.2276

                     52                     53                     54
                      A                      A                      A
 Frequencies --   1150.0902              1195.6389              1202.4023
 Red. masses --      2.8142                 1.1056                 2.3616
 Frc consts  --      2.1932                 0.9312                 2.0117
 IR Inten    --     17.5159                 0.1735                37.2166

                     55                     56                     57
                      A                      A                      A
 Frequencies --   1217.7400              1226.2697              1240.9374
 Red. masses --      1.1770                 2.5009                 2.8416
 Frc consts  --      1.0283                 2.2157                 2.5782
 IR Inten    --     11.0818                30.1528                10.8398

                     58                     59                     60
                      A                      A                      A
 Frequencies --   1241.5819              1254.9440              1297.7048
 Red. masses --      1.4829                 1.2942                 2.3832
 Frc consts  --      1.3469                 1.2009                 2.3646
 IR Inten    --     67.3202                 4.3080                 5.9516

                     61                     62                     63
                      A                      A                      A
 Frequencies --   1324.3959              1353.5375              1370.8126
 Red. masses --      2.3478                 3.0517                 1.9600
 Frc consts  --      2.4263                 3.2941                 2.1700
 IR Inten    --     45.4800                21.0767                11.4659

                     64                     65                     66
                      A                      A                      A
 Frequencies --   1391.3208              1401.0725              1412.3551
 Red. masses --      1.4533                 1.3659                 1.4853
 Frc consts  --      1.6575                 1.5797                 1.7456
 IR Inten    --     14.6875                17.4621                50.5510

                     67                     68                     69
                      A                      A                      A
 Frequencies --   1417.4385              1419.1802              1451.7797
 Red. masses --      1.2684                 1.7639                 6.9377
 Frc consts  --      1.5015                 2.0932                 8.6152
 IR Inten    --     16.6813                 4.1156                14.0318

                     70                     71                     72
                      A                      A                      A
 Frequencies --   1483.2500              1496.8681              1506.8929
 Red. masses --      1.5458                 2.3121                 1.9541
 Frc consts  --      2.0036                 3.0522                 2.6144
 IR Inten    --     95.8211                81.8916                14.1604

                     73                     74                     75
                      A                      A                      A
 Frequencies --   1507.6303              1509.9467              1531.7090
 Red. masses --      1.2030                 1.1425                 1.1073
 Frc consts  --      1.6110                 1.5348                 1.5306
 IR Inten    --     16.5494                23.6268                 1.0293

                     76                     77                     78
                      A                      A                      A
 Frequencies --   1548.8739              1563.1117              1582.3525
 Red. masses --      2.2364                 5.8156                 9.0154
 Frc consts  --      3.1610                 8.3719                13.2996
 IR Inten    --     10.2333                24.6283                96.5762

                     79                     80                     81
                      A                      A                      A
 Frequencies --   1642.3018              1648.9296              1668.8597
 Red. masses --      6.0950                 5.5577                 5.5171
 Frc consts  --      9.6857                 8.9033                 9.0531
 IR Inten    --    294.9142                 2.9133                 3.8986

                     82                     83                     84
                      A                      A                      A
 Frequencies --   1792.8954              2992.6649              3076.4730
 Red. masses --     11.9864                 1.0715                 1.0637
 Frc consts  --     22.7012                 5.6542                 5.9318
 IR Inten    --    529.3071                58.3914                14.3087

                     85                     86                     87
                      A                      A                      A
 Frequencies --   3094.5828              3098.5226              3143.2985
 Red. masses --      1.0646                 1.0921                 1.1026
 Frc consts  --      6.0069                 6.1775                 6.4186
 IR Inten    --     23.3257                64.6416                 5.3551

                     88                     89                     90
                      A                      A                      A
 Frequencies --   3160.8843              3172.7155              3188.5149
 Red. masses --      1.1010                 1.0878                 1.0867
 Frc consts  --      6.4811                 6.4518                 6.5092
 IR Inten    --      1.6834                11.6045                 1.2566

                     91                     92                     93
                      A                      A                      A
 Frequencies --   3199.0415              3202.1148              3209.9944
 Red. masses --      1.0911                 1.0917                 1.0948
 Frc consts  --      6.5791                 6.5955                 6.6464
 IR Inten    --     21.2800                 6.9996                19.3774

                     94                     95                     96
                      A                      A                      A
 Frequencies --   3217.4007              3278.8444              3629.2539
 Red. masses --      1.0963                 1.0971                 1.0655
 Frc consts  --      6.6863                 6.9489                 8.2690
 IR Inten    --     10.8921                 1.5759               207.1713

 - Thermochemistry -
 -------------------
 Temperature   298.150 Kelvin.  Pressure   1.00000 Atm.
 Atom     1 has atomic number  6 and mass  12.00000

 Molecular mass:   270.11168 amu.
 Principal axes and moments of inertia in atomic units:
                           1         2         3
     Eigenvalues --  2016.68717********************
           X            1.00000   0.00192  -0.00208
           Y           -0.00198   0.99960  -0.02816
           Z            0.00203   0.02816   0.99960
 This molecule is an asymmetric top.
 Rotational symmetry number  1.
 Warning -- assumption of classical behavior for rotation
           may cause significant error
 Rotational temperatures (Kelvin)      0.04295     0.00755     0.00716
 Rotational constants (GHZ):           0.89490     0.15723     0.14926
 Zero-point vibrational energy     716911.5 (Joules/Mol)
                                  171.34597 (Kcal/Mol)
 Warning -- explicit consideration of  24 degrees of freedom as
           vibrations may cause significant error
 Vibrational temperatures:     33.86    36.55    54.49    71.35   140.29
          (Kelvin)            165.91   197.93   265.03   292.38   331.10
                              348.20   374.86   445.63   504.92   535.61
                              577.31   601.28   644.42   678.44   754.60
                              775.70   829.82   857.25   874.08   917.31
                              932.41   948.31   999.41  1021.46  1037.81
                             1040.87  1110.22  1129.29  1206.75  1225.56
                             1248.29  1265.57  1291.32  1342.83  1355.91
                             1371.69  1391.15  1407.67  1413.22  1449.24
                             1471.23  1511.90  1527.40  1585.17  1594.28
                             1617.88  1654.72  1720.26  1729.99  1752.06
                             1764.33  1785.43  1786.36  1805.58  1867.11
                             1905.51  1947.44  1972.29  2001.80  2015.83
                             2032.06  2039.38  2041.88  2088.79  2134.07
                             2153.66  2168.08  2169.14  2172.48  2203.79
                             2228.48  2248.97  2276.65  2362.91  2372.44
                             2401.12  2579.58  4305.78  4426.36  4452.41
                             4458.08  4522.51  4547.81  4564.83  4587.56
                             4602.71  4607.13  4618.47  4629.12  4717.53
                             5221.69

 Zero-point correction=                           0.273057 (Hartree/Particle)
 Thermal correction to Energy=                    0.289244
 Thermal correction to Enthalpy=                  0.290188
 Thermal correction to Gibbs Free Energy=         0.226783
 Sum of electronic and zero-point Energies=           -911.174718
 Sum of electronic and thermal Energies=              -911.158531
 Sum of electronic and thermal Enthalpies=            -911.157587
 Sum of electronic and thermal Free Energies=         -911.220992

                     E (Thermal)             CV                S
                      KCal/Mol        Cal/Mol-Kelvin    Cal/Mol-Kelvin
 Total                  181.503             62.857            133.448
 Electronic               0.000              0.000              0.000
 Translational            0.889              2.981             42.680
 Rotational               0.889              2.981             33.992
 Vibrational            179.726             56.895             56.776
 Vibration     1          0.593              1.985              6.311
 Vibration     2          0.593              1.985              6.160
 Vibration     3          0.594              1.982              5.367
 Vibration     4          0.595              1.978              4.834
 Vibration     5          0.603              1.951              3.504
 Vibration     6          0.608              1.937              3.177
 Vibration     7          0.614              1.916              2.837
 Vibration     8          0.631              1.861              2.285
 Vibration     9          0.639              1.835              2.104
 Vibration    10          0.652              1.795              1.878
 Vibration    11          0.658              1.776              1.788
 Vibration    12          0.669              1.745              1.658
 Vibration    13          0.699              1.655              1.364
 Vibration    14          0.728              1.573              1.162
 Vibration    15          0.744              1.529              1.070
 Vibration    16          0.767              1.467              0.958
 Vibration    17          0.781              1.431              0.899
 Vibration    18          0.807              1.366              0.802
 Vibration    19          0.828              1.313              0.733
 Vibration    20          0.879              1.196              0.600
 Vibration    21          0.894              1.164              0.567
 Vibration    22          0.933              1.082              0.491
 Vibration    23          0.954              1.041              0.457
 Vibration    24          0.966              1.016              0.437

                           ! Non-Optimized Parameters !
 Normal termination of Gaussian 16 at Sat Dec 12 15:23:30 2020.

 ----------------------------------------------------------------------
 # B3LYP/6-311++G(d,p) empiricaldispersion=gd3bj scf=xqc pop=npa geom=c
 heck
 ----------------------------------------------------------------------

 --------------------------------------
 CID_7422903_JID_10323_Energie_neutraal
 --------------------------------------
 Structure from the checkpoint file:  "JID_10323.chk"
 Charge =  0 Multiplicity = 1

 SCF Done:  E(RB3LYP) =  -911.697240561     A.U. after   16 cycles
 Normal termination of Gaussian 16 at Sat Dec 12 15:31:30 2020.

 ----------------------------------------------------------------------
 # B3LYP/6-311++G(d,p) empiricaldispersion=gd3bj scf=xqc pop=npa geom=c
 heck
 ----------------------------------------------------------------------

 ------------------------------------
 CID_7422903_JID_10323_Energie_kation
 ------------------------------------
 Structure from the checkpoint file:  "JID_10323.chk"
 Charge =  1 Multiplicity = 2

 SCF Done:  E(UB3LYP) =  -911.386765998     A.U. after   32 cycles
 Normal termination of Gaussian 16 at Sat Dec 12 15:54:31 2020.
 Gaussian 16:  ES64L-G16RevA.03 25-Dec-2016

 ----------------------------------------------------------------------
 # B3LYP/6-311++G(d,p) empiricaldispersion=gd3bj scf=xqc pop=npa geom=c
 heck
 ----------------------------------------------------------------------

 -----------------------------------
 CID_7422903_JID_10323_Energie_anion
 -----------------------------------
 Structure from the checkpoint file:  "JID_10323.chk"
 Charge = -1 Multiplicity = 2

                         Standard orientation:
 ---------------------------------------------------------------------
 Center     Atomic      Atomic             Coordinates (Angstroms)
 Number     Number       Type             X           Y           Z
 ---------------------------------------------------------------------
      1          6           0        5.078105   -0.616170   -1.540672
      2          6           0        4.893635   -1.507081   -0.484179
      3          6           0        3.974326   -1.210740    0.523740
      4          6           0        3.236874   -0.024274    0.485450
      5          6           0        3.429382    0.869674   -0.576334
      6          6           0        4.344447    0.572284   -1.583744
      7          6           0        2.219596    0.281827    1.559695
      8          7           0        0.830488    0.144868    1.072920
      9          6           0        0.268896   -1.100515    1.004531
     10          7           0       -0.923942   -1.390721    0.568495
     11          6           0       -1.610188   -0.290578    0.149130
     12          6           0       -1.157151    1.036438    0.152174
     13          6           0        0.167807    1.335109    0.622289
     14          8           0        0.731368    2.420875    0.664087
     15          6           0       -2.233269    1.787530   -0.373670
     16          7           0       -3.255722    0.996530   -0.676866
     17          7           0       -2.866613   -0.277077   -0.354270
     18          6           0       -3.773547   -1.401591   -0.548329
     19          6           0       -5.156435   -1.109863    0.040633
     20          8           0       -5.862836   -0.134474   -0.692811
     21          1           0        5.792499   -0.844030   -2.326606
     22          1           0        5.463389   -2.431003   -0.442243
     23          1           0        3.835008   -1.904969    1.349709
     24          1           0        2.856495    1.791629   -0.602193
     25          1           0        4.489215    1.270911   -2.402913
     26          1           0        2.341331   -0.389855    2.413750
     27          1           0        2.308957    1.311254    1.907870
     28          1           0        0.905239   -1.908258    1.356273
     29          1           0       -2.299228    2.853713   -0.538241
     30          1           0       -3.868693   -1.603055   -1.620827
     31          1           0       -3.301992   -2.260821   -0.064722
     32          1           0       -5.749635   -2.029794    0.002615
     33          1           0       -5.038523   -0.830729    1.101171
     34          1           0       -5.266658    0.636318   -0.760078
 ---------------------------------------------------------------------

 SCF Done:  E(UB3LYP) =  -911.702931452     A.U. after   33 cycles
 SCF Done:  E(UB3LYP) =  -911.702931452     a.u. after    1 cycles

 The electronic state is 2-A.
 Alpha  occ. eigenvalues --  -19.01541 -18.97593 -14.26418 -14.24406 -14.21755
 Alpha  occ. eigenvalues --  -14.17760 -10.16233 -10.12556 -10.11636 -10.11156
 Alpha  occ. eigenvalues --  -10.10310 -10.10124 -10.08705 -10.08322 -10.08194
 Alpha  occ. eigenvalues --  -10.08093 -10.07820 -10.07571 -10.07299 -10.05174
 Alpha  occ. eigenvalues --   -0.94308  -0.92864  -0.91897  -0.85923  -0.78963
 Alpha  occ. eigenvalues --   -0.76011  -0.73970  -0.67468  -0.67035  -0.65166
 Alpha  occ. eigenvalues --   -0.63734  -0.59519  -0.55283  -0.54513  -0.52346
 Alpha  occ. eigenvalues --   -0.51145  -0.48976  -0.45722  -0.43972  -0.42537
 Alpha  occ. eigenvalues --   -0.41655  -0.40603  -0.38196  -0.37068  -0.36293
 Alpha  occ. eigenvalues --   -0.35613  -0.35416  -0.35149  -0.33636  -0.32915
 Alpha  occ. eigenvalues --   -0.32630  -0.30831  -0.30592  -0.30349  -0.29843
 Alpha  occ. eigenvalues --   -0.28896  -0.27778  -0.27014  -0.25781  -0.24921
 Alpha  occ. eigenvalues --   -0.24735  -0.24587  -0.19326  -0.17886  -0.17800
 Alpha  occ. eigenvalues --   -0.16481  -0.16175  -0.15679  -0.14940  -0.14467
 Alpha  occ. eigenvalues --   -0.11502   0.04127
 Alpha virt. eigenvalues --    0.06481   0.07503   0.07665   0.07789   0.07944
 Alpha virt. eigenvalues --    0.08586   0.09603   0.09695   0.10133   0.10227
 Alpha virt. eigenvalues --    0.10651   0.11113   0.11715   0.12589   0.12925

  Beta  occ. eigenvalues --  -19.01540 -18.97587 -14.26227 -14.24358 -14.21519
  Beta  occ. eigenvalues --  -14.17660 -10.16222 -10.12550 -10.11561 -10.11163
  Beta  occ. eigenvalues --  -10.10292 -10.09608 -10.08741 -10.08307 -10.08193
  Beta  occ. eigenvalues --  -10.08074 -10.07760 -10.07520 -10.07298 -10.05128
  Beta  occ. eigenvalues --   -0.94050  -0.92796  -0.91836  -0.85569  -0.78685
  Beta  occ. eigenvalues --   -0.75917  -0.73775  -0.67342  -0.66768  -0.65071
  Beta  occ. eigenvalues --   -0.63675  -0.59416  -0.54942  -0.54278  -0.52214
  Beta  occ. eigenvalues --   -0.50998  -0.48908  -0.45576  -0.43805  -0.42460
  Beta  occ. eigenvalues --   -0.41560  -0.40442  -0.38052  -0.36912  -0.36219
  Beta  occ. eigenvalues --   -0.35494  -0.35099  -0.34971  -0.33393  -0.32849
  Beta  occ. eigenvalues --   -0.32567  -0.30728  -0.30453  -0.30144  -0.29720
  Beta  occ. eigenvalues --   -0.28797  -0.27486  -0.26838  -0.25542  -0.24866
  Beta  occ. eigenvalues --   -0.24584  -0.23690  -0.19107  -0.17815  -0.17190
  Beta  occ. eigenvalues --   -0.16165  -0.15906  -0.15513  -0.14834  -0.13871
  Beta  occ. eigenvalues --   -0.10510
  Beta virt. eigenvalues --    0.06479   0.07595   0.07692   0.07914   0.08125
  Beta virt. eigenvalues --    0.08846   0.09416   0.09624   0.09741   0.10361
  Beta virt. eigenvalues --    0.10620   0.10919   0.11355   0.11671   0.12735

 Mulliken charges and spin densities:
               1          2
     1  C   -0.169042  -0.131135
     2  C   -0.136601  -0.177759
     3  C    0.174197  -0.274484
     4  C    0.700825   0.351332
     5  C   -0.443364   0.120175
     6  C   -0.330085   0.088519
     7  C   -0.157363  -0.634788
     8  N    0.204306  -0.014543
     9  C   -0.202968   0.431294
    10  N   -0.223117   0.024935
    11  C   -0.110529  -0.201194
    12  C    0.499523   0.127019
    13  C   -0.169621   0.016908
    14  O   -0.355748   0.004145
    15  C   -0.747016   0.002406
    16  N   -0.322525   0.120300
    17  N    0.312897   0.056429
    18  C   -0.087920  -0.062655
    19  C   -0.309420  -0.046029
    20  O   -0.295239   0.003268
    21  H    0.112097   0.009431
    22  H    0.031644   0.122043
    23  H   -0.129144   0.273479
    24  H    0.177562  -0.000331
    25  H    0.145225   0.006808
    26  H   -0.418024   0.634184
    27  H    0.222702  -0.021245
    28  H    0.058497   0.069890
    29  H    0.152465   0.001400
    30  H    0.115958   0.064386
    31  H    0.152148   0.010616
    32  H    0.123240   0.020694
    33  H    0.139920   0.004935
    34  H    0.284520  -0.000433
 Sum of Mulliken charges =  -1.00000   1.00000

 Dipole moment (field-independent basis, Debye):
    X=              1.3550    Y=             -0.6148    Z=             -1.9190  Tot=              2.4283
 Quadrupole moment (field-independent basis, Debye-Ang):
   XX=           -190.9939   YY=           -139.3249   ZZ=           -137.9400
   XY=              4.8196   XZ=            -14.1307   YZ=              1.9241

 Summary of Natural Population Analysis:

                                       Natural Population
                Natural  -----------------------------------------------
    Atom  No    Charge         Core      Valence    Rydberg      Total
 -----------------------------------------------------------------------
      C    1   -0.10974      0.99957     2.10110    0.00907     3.10974
      C    2   -0.10183      0.99957     2.09130    0.01095     3.10183
      C    3   -0.09374      0.99951     2.08411    0.01011     3.09374
      C    4   -0.01778      0.99950     2.00862    0.00966     3.01778
      C    5   -0.09716      0.99951     2.08987    0.00777     3.09716
      C    6   -0.09175      0.99957     2.08376    0.00841     3.09175
      C    7   -0.09377      0.99957     2.08129    0.01291     3.09377
      N    8   -0.23370      0.99964     2.72472    0.00935     3.73370
      C    9    0.25459      0.99964     1.72813    0.01765     2.74541
      N   10   -0.26852      0.99967     2.75928    0.00957     3.76852
      C   11    0.21145      0.99947     1.77595    0.01312     2.78855
      C   12   -0.13441      0.99942     2.12696    0.00803     3.13441
      C   13    0.33389      0.99958     1.64334    0.02319     2.66611
      O   14   -0.33349      0.99988     3.32855    0.00507     4.33349
      C   15    0.00396      0.99962     1.98288    0.01354     2.99604
      N   16   -0.14982      0.99971     2.63686    0.01324     3.64982
      N   17   -0.09999      0.99960     2.58715    0.01323     3.59999
      C   18   -0.09880      0.99962     2.09000    0.00918     3.09880
      C   19   -0.01273      0.99961     2.00089    0.01222     3.01273
      O   20   -0.38329      0.99990     3.37589    0.00750     4.38329
      H   21    0.09612      0.00000     0.40304    0.00085     0.40388
      H   22    0.09759      0.00000     0.40164    0.00077     0.40241
      H   23    0.10122      0.00000     0.39758    0.00120     0.39878
      H   24    0.11317      0.00000     0.38560    0.00123     0.38683
      H   25    0.09595      0.00000     0.40315    0.00090     0.40405
      H   26    0.10391      0.00000     0.39378    0.00231     0.39609
      H   27    0.11666      0.00000     0.38212    0.00122     0.38334
      H   28    0.07948      0.00000     0.41872    0.00181     0.42052
      H   29    0.09858      0.00000     0.40055    0.00087     0.40142
      H   30    0.09669      0.00000     0.40145    0.00186     0.40331
      H   31    0.11347      0.00000     0.38496    0.00157     0.38653
      H   32    0.08152      0.00000     0.41672    0.00176     0.41848
      H   33    0.07726      0.00000     0.42127    0.00147     0.42274
      H   34    0.24500      0.00000     0.25120    0.00380     0.25500
 =======================================================================
   * Total *    0.00000     19.99217    50.76244    0.24539    71.00000

 Normal termination of Gaussian 16 at Sat Dec 12 16:19:02 2020.
