 Gaussian 16, Revision A.03,

 -----------------------------------------------------------
 # opt freq B3LYP/6-31G(d) empiricaldispersion=gd3bj scf=xqc
 -----------------------------------------------------------

 ------------------------------
 CID_23374775_JID_1016_neutraal
 ------------------------------
 Symbolic Z-matrix:
 Charge =  0 Multiplicity = 1

 SCF Done:  E(RB3LYP) =  -871.742823460     A.U. after   15 cycles
 SCF Done:  E(RB3LYP) =  -871.750066025     A.U. after   12 cycles
 SCF Done:  E(RB3LYP) =  -871.750653356     A.U. after   12 cycles
 SCF Done:  E(RB3LYP) =  -871.750818942     A.U. after   11 cycles
 SCF Done:  E(RB3LYP) =  -871.750835628     A.U. after   10 cycles
 SCF Done:  E(RB3LYP) =  -871.750835688     A.U. after   10 cycles
 SCF Done:  E(RB3LYP) =  -871.750844308     A.U. after    9 cycles
 SCF Done:  E(RB3LYP) =  -871.750845534     A.U. after    8 cycles
 SCF Done:  E(RB3LYP) =  -871.750845948     A.U. after    8 cycles
 SCF Done:  E(RB3LYP) =  -871.750846241     A.U. after    8 cycles
 SCF Done:  E(RB3LYP) =  -871.763072562     A.U. after   12 cycles
 SCF Done:  E(RB3LYP) =  -871.763152274     A.U. after   12 cycles
 SCF Done:  E(RB3LYP) =  -871.763165267     A.U. after   10 cycles
 SCF Done:  E(RB3LYP) =  -871.763166966     A.U. after    8 cycles
 SCF Done:  E(RB3LYP) =  -871.763167471     A.U. after    8 cycles
 SCF Done:  E(RB3LYP) =  -871.763167531     A.U. after    7 cycles
 Optimization completed.
    -- Stationary point found.
 Normal termination of Gaussian 16 at Tue Dec  8 19:28:43 2020.

 --------------------------------------------------------------------
 #N Geom=AllCheck Guess=TCheck SCRF=Check GenChk RB3LYP/6-31G(d) Freq
 --------------------------------------------------------------------

 Structure from the checkpoint file:  "JID_1016.chk"
 ------------------------------
 CID_23374775_JID_1016_neutraal
 ------------------------------
 Charge =  0 Multiplicity = 1

 SCF Done:  E(RB3LYP) =  -871.763167530     A.U. after    1 cycles

  Exact polarizability: 161.667 -16.215 107.861  -3.169  -5.831  54.274
 Approx polarizability: 233.190 -33.640 176.684  -6.189 -14.496  81.231

                      1                      2                      3
                      A                      A                      A
 Frequencies --     46.0508                57.6563                95.3946
 Red. masses --      4.1593                 4.2472                 5.2327
 Frc consts  --      0.0052                 0.0083                 0.0281
 IR Inten    --      1.1636                 1.4064                 0.7619

                      4                      5                      6
                      A                      A                      A
 Frequencies --    121.5096               150.5854               221.1893
 Red. masses --      4.3453                 3.3207                 1.2717
 Frc consts  --      0.0378                 0.0444                 0.0367
 IR Inten    --      0.9689                 2.0273                 2.8831

                      7                      8                      9
                      A                      A                      A
 Frequencies --    287.6839               303.9323               309.7519
 Red. masses --      3.0518                 6.6731                 6.9374
 Frc consts  --      0.1488                 0.3632                 0.3922
 IR Inten    --      4.3970                 6.2372                18.0970

                     10                     11                     12
                      A                      A                      A
 Frequencies --    361.5311               437.4743               536.0990
 Red. masses --      4.2362                 3.5527                 1.4535
 Frc consts  --      0.3262                 0.4006                 0.2461
 IR Inten    --      4.8507                 3.8857                61.9943

                     13                     14                     15
                      A                      A                      A
 Frequencies --    590.7639               617.9587               641.6153
 Red. masses --      4.8787                 5.4432                 2.5384
 Frc consts  --      1.0032                 1.2247                 0.6157
 IR Inten    --      2.9742                 0.7023                58.2516

                     16                     17                     18
                      A                      A                      A
 Frequencies --    662.1260               688.9804               727.5610
 Red. masses --      1.2986                 1.5416                 2.5850
 Frc consts  --      0.3354                 0.4312                 0.8062
 IR Inten    --     28.3769                59.3802                 6.6015

                     19                     20                     21
                      A                      A                      A
 Frequencies --    755.1184               783.0692               817.3854
 Red. masses --      4.0468                 5.4391                 1.2004
 Frc consts  --      1.3595                 1.9651                 0.4725
 IR Inten    --      1.3604                 8.0171                 3.2836

                     22                     23                     24
                      A                      A                      A
 Frequencies --    848.7940               938.6742               956.6128
 Red. masses --      1.2685                 6.4431                 2.4422
 Frc consts  --      0.5385                 3.3448                 1.3168
 IR Inten    --     11.2235                12.0517                 3.6578

                     25                     26                     27
                      A                      A                      A
 Frequencies --   1011.9757              1085.4222              1104.7533
 Red. masses --      2.6299                 4.2331                 1.6091
 Frc consts  --      1.5868                 2.9384                 1.1571
 IR Inten    --      1.9765                93.7130                81.3329

                     28                     29                     30
                      A                      A                      A
 Frequencies --   1131.1890              1142.8423              1155.9013
 Red. masses --      2.0748                 2.1996                 1.9947
 Frc consts  --      1.5642                 1.6927                 1.5702
 IR Inten    --     57.7085                45.5446                82.1181

                     31                     32                     33
                      A                      A                      A
 Frequencies --   1201.0197              1226.9933              1316.8577
 Red. masses --      2.3220                 2.5180                 1.7587
 Frc consts  --      1.9734                 2.2335                 1.7968
 IR Inten    --      3.9269               130.2011                 9.4785

                     34                     35                     36
                      A                      A                      A
 Frequencies --   1340.2173              1357.9055              1395.8996
 Red. masses --      1.1193                 2.2063                 2.7420
 Frc consts  --      1.1845                 2.3969                 3.1480
 IR Inten    --     12.6339               254.4928                12.3274

                     37                     38                     39
                      A                      A                      A
 Frequencies --   1427.8551              1447.9719              1476.5301
 Red. masses --      1.4578                 1.4480                 3.0557
 Frc consts  --      1.7512                 1.7887                 3.9250
 IR Inten    --     52.5618                16.3819               186.8699

                     40                     41                     42
                      A                      A                      A
 Frequencies --   1514.5500              1520.2043              1536.1544
 Red. masses --      1.0520                 1.1407                 1.1493
 Frc consts  --      1.4218                 1.5531                 1.5979
 IR Inten    --      3.2131                30.5994                13.1857

                     43                     44                     45
                      A                      A                      A
 Frequencies --   1536.9831              1562.3410              1636.8070
 Red. masses --      3.8453                 2.8593                 4.0677
 Frc consts  --      5.3521                 4.1121                 6.4208
 IR Inten    --     34.3229                12.0185               613.9619

                     46                     47                     48
                      A                      A                      A
 Frequencies --   3063.3502              3098.0129              3128.8764
 Red. masses --      1.0364                 1.0606                 1.1027
 Frc consts  --      5.7304                 5.9978                 6.3606
 IR Inten    --     15.2398                28.9400                20.3645

                     49                     50                     51
                      A                      A                      A
 Frequencies --   3149.2181              3164.2711              3270.4677
 Red. masses --      1.1016                 1.1075                 1.0926
 Frc consts  --      6.4369                 6.5336                 6.8854
 IR Inten    --      5.7636                13.2890                 8.2899

                     52                     53                     54
                      A                      A                      A
 Frequencies --   3301.5055              3622.2286              3677.4932
 Red. masses --      1.1036                 1.0771                 1.0805
 Frc consts  --      7.0872                 8.3267                 8.6091
 IR Inten    --      2.6473                84.3167                73.9184

 - Thermochemistry -
 -------------------
 Temperature   298.150 Kelvin.  Pressure   1.00000 Atm.
 Atom     1 has atomic number  6 and mass  12.00000

 Molecular mass:   171.04663 amu.
 Principal axes and moments of inertia in atomic units:
                           1         2         3
     Eigenvalues --   980.532163159.525743977.70450
           X            0.99964   0.02632   0.00448
           Y           -0.02634   0.99964   0.00482
           Z           -0.00435  -0.00494   0.99998
 This molecule is an asymmetric top.
 Rotational symmetry number  1.
 Warning -- assumption of classical behavior for rotation
           may cause significant error
 Rotational temperatures (Kelvin)      0.08833     0.02741     0.02177
 Rotational constants (GHZ):           1.84057     0.57121     0.45371
 Zero-point vibrational energy     416081.0 (Joules/Mol)
                                   99.44575 (Kcal/Mol)
 Warning -- explicit consideration of  14 degrees of freedom as
           vibrations may cause significant error
 Vibrational temperatures:     66.26    82.95   137.25   174.83   216.66
          (Kelvin)            318.24   413.91   437.29   445.66   520.16
                              629.43   771.33   849.98   889.10   923.14
                              952.65   991.29  1046.80  1086.45  1126.66
                             1176.04  1221.23  1350.54  1376.35  1456.01
                             1561.68  1589.49  1627.53  1644.30  1663.08
                             1728.00  1765.37  1894.66  1928.27  1953.72
                             2008.39  2054.37  2083.31  2124.40  2179.10
                             2187.23  2210.18  2211.38  2247.86  2355.00
                             4407.48  4457.35  4501.76  4531.02  4552.68
                             4705.47  4750.13  5211.58  5291.09

 Zero-point correction=                           0.158477 (Hartree/Particle)
 Thermal correction to Energy=                    0.169128
 Thermal correction to Enthalpy=                  0.170072
 Thermal correction to Gibbs Free Energy=         0.120823
 Sum of electronic and zero-point Energies=           -871.604691
 Sum of electronic and thermal Energies=              -871.594040
 Sum of electronic and thermal Enthalpies=            -871.593096
 Sum of electronic and thermal Free Energies=         -871.642345

                     E (Thermal)             CV                S
                      KCal/Mol        Cal/Mol-Kelvin    Cal/Mol-Kelvin
 Total                  106.129             38.845            103.653
 Electronic               0.000              0.000              0.000
 Translational            0.889              2.981             41.318
 Rotational               0.889              2.981             30.889
 Vibrational            104.352             32.883             31.446
 Vibration     1          0.595              1.979              4.980
 Vibration     2          0.596              1.974              4.536
 Vibration     3          0.603              1.952              3.546
 Vibration     4          0.609              1.931              3.076
 Vibration     5          0.618              1.902              2.665
 Vibration     6          0.648              1.809              1.949
 Vibration     7          0.685              1.697              1.488
 Vibration     8          0.695              1.666              1.395
 Vibration     9          0.699              1.655              1.364
 Vibration    10          0.736              1.552              1.116
 Vibration    11          0.798              1.388              0.835
 Vibration    12          0.891              1.170              0.574
 Vibration    13          0.948              1.051              0.466
 Vibration    14          0.978              0.994              0.420

 Optimization completed.
    -- Stationary point found.
 Normal termination of Gaussian 16 at Tue Dec  8 19:32:03 2020.

 ----------------------------------------------------------------------
 # B3LYP/6-311++G(d,p) empiricaldispersion=gd3bj scf=xqc pop=npa geom=c
 heck
 ----------------------------------------------------------------------

 --------------------------------------
 CID_23374775_JID_1016_Energie_neutraal
 --------------------------------------
 Structure from the checkpoint file:  "JID_1016.chk"
 Charge =  0 Multiplicity = 1

 SCF Done:  E(RB3LYP) =  -871.927791597     A.U. after   14 cycles
 Normal termination of Gaussian 16 at Tue Dec  8 19:33:11 2020.

 ----------------------------------------------------------------------
 # B3LYP/6-311++G(d,p) empiricaldispersion=gd3bj scf=xqc pop=npa geom=c
 heck
 ----------------------------------------------------------------------

 ------------------------------------
 CID_23374775_JID_1016_Energie_kation
 ------------------------------------
 Structure from the checkpoint file:  "JID_1016.chk"
 Charge =  1 Multiplicity = 2

 SCF Done:  E(UB3LYP) =  -871.640690486     A.U. after   27 cycles
 Normal termination of Gaussian 16 at Tue Dec  8 19:36:06 2020.
 Gaussian 16:  ES64L-G16RevA.03 25-Dec-2016

 ----------------------------------------------------------------------
 # B3LYP/6-311++G(d,p) empiricaldispersion=gd3bj scf=xqc pop=npa geom=c
 heck
 ----------------------------------------------------------------------

 -----------------------------------
 CID_23374775_JID_1016_Energie_anion
 -----------------------------------
 Structure from the checkpoint file:  "JID_1016.chk"
 Charge = -1 Multiplicity = 2

                         Standard orientation:
 ---------------------------------------------------------------------
 Center     Atomic      Atomic             Coordinates (Angstroms)
 Number     Number       Type             X           Y           Z
 ---------------------------------------------------------------------
      1          6           0        2.771580    1.803763    0.797514
      2          6           0        2.216480    1.359171   -0.543039
      3          8           0        0.945769    0.678148   -0.375661
      4          6           0        0.929580   -0.644592   -0.116470
      5         16           0        2.249934   -1.657715   -0.036133
      6          7           0       -0.339368   -1.087990    0.072685
      7          6           0       -1.556798   -0.409721    0.049781
      8          7           0       -2.699421   -1.029589    0.262136
      9          6           0       -3.658429   -0.041766    0.162560
     10          6           0       -3.082706    1.171980   -0.110331
     11          7           0       -1.720216    0.922221   -0.181403
     12          1           0        2.053549    2.437964    1.327547
     13          1           0        3.690642    2.379042    0.640169
     14          1           0        3.009331    0.936619    1.418618
     15          1           0        1.970247    2.208320   -1.185110
     16          1           0        2.900470    0.688636   -1.066011
     17          1           0       -0.433304   -2.077551    0.263580
     18          1           0       -4.706756   -0.269112    0.294195
     19          1           0       -3.486465    2.161313   -0.258371
     20          1           0       -0.968001    1.567522   -0.365208
 ---------------------------------------------------------------------

 SCF Done:  E(UB3LYP) =  -871.923000221     A.U. after   29 cycles

 The electronic state is 2-A.
 Alpha  occ. eigenvalues --  -88.67875 -19.06187 -14.25543 -14.25500 -14.18633
 Alpha  occ. eigenvalues --  -10.17673 -10.16062 -10.12147 -10.09216 -10.08282
 Alpha  occ. eigenvalues --  -10.05736  -7.76658  -5.73053  -5.72490  -5.72214
 Alpha  occ. eigenvalues --   -0.98604  -0.92193  -0.84293  -0.76986  -0.67520
 Alpha  occ. eigenvalues --   -0.65037  -0.60754  -0.55809  -0.51605  -0.50093
 Alpha  occ. eigenvalues --   -0.48980  -0.45319  -0.41329  -0.37422  -0.36785
 Alpha  occ. eigenvalues --   -0.35688  -0.33728  -0.33494  -0.32341  -0.31057
 Alpha  occ. eigenvalues --   -0.28701  -0.27774  -0.26037  -0.22759  -0.21427
 Alpha  occ. eigenvalues --   -0.18129  -0.18072  -0.14369  -0.10978  -0.09912
 Alpha  occ. eigenvalues --    0.04403
 Alpha virt. eigenvalues --    0.06687   0.07542   0.08897   0.09475   0.10028
 Alpha virt. eigenvalues --    0.10545   0.12112   0.12919   0.13278   0.13568
 Alpha virt. eigenvalues --    0.14294   0.14887   0.15522   0.15816   0.16182

  Beta  occ. eigenvalues --  -88.67862 -19.06121 -14.25503 -14.25468 -14.18580
  Beta  occ. eigenvalues --  -10.17220 -10.16036 -10.12130 -10.09173 -10.08299
  Beta  occ. eigenvalues --  -10.05692  -7.76646  -5.73063  -5.72433  -5.72206
  Beta  occ. eigenvalues --   -0.98357  -0.92099  -0.84144  -0.76864  -0.67280
  Beta  occ. eigenvalues --   -0.64901  -0.60565  -0.55680  -0.51483  -0.50043
  Beta  occ. eigenvalues --   -0.48870  -0.45206  -0.41234  -0.37096  -0.36627
  Beta  occ. eigenvalues --   -0.35423  -0.33569  -0.33382  -0.32152  -0.30937
  Beta  occ. eigenvalues --   -0.28413  -0.27377  -0.25886  -0.22616  -0.21141
  Beta  occ. eigenvalues --   -0.18013  -0.17839  -0.13764  -0.10935  -0.09661
  Beta virt. eigenvalues --    0.07375   0.08046   0.09091   0.09515   0.10043
  Beta virt. eigenvalues --    0.10286   0.10973   0.12267   0.13158   0.13711
  Beta virt. eigenvalues --    0.13744   0.14279   0.14923   0.15505   0.15850

 Mulliken charges and spin densities:
               1          2
     1  C    0.716586  -1.044924
     2  C   -0.020471  -0.211267
     3  O   -0.085635   0.036298
     4  C    0.139782   0.093871
     5  S   -0.711990   0.009931
     6  N   -0.156956   0.008311
     7  C    0.514956  -0.426353
     8  N   -0.208394   0.038201
     9  C    0.267478  -0.318982
    10  C    0.077945  -0.181756
    11  N   -0.294309   0.045093
    12  H   -0.148836   0.292588
    13  H   -0.304539   0.432286
    14  H   -0.098382   0.241592
    15  H   -0.630287   0.791009
    16  H    0.157784  -0.039131
    17  H    0.325606  -0.004810
    18  H    0.103170   0.045875
    19  H   -0.815049   0.961556
    20  H    0.171542   0.230612
 Sum of Mulliken charges =  -1.00000   1.00000

 Dipole moment (field-independent basis, Debye):
    X=             -1.4652    Y=             -3.0701    Z=             -0.3869  Tot=              3.4237
 Quadrupole moment (field-independent basis, Debye-Ang):
   XX=           -124.3167   YY=           -120.0596   ZZ=            -91.9690
   XY=              2.1211   XZ=             -0.5540   YZ=              1.2081

 Summary of Natural Population Analysis:

                                       Natural Population
                Natural  -----------------------------------------------
    Atom  No    Charge         Core      Valence    Rydberg      Total
 -----------------------------------------------------------------------
      C    1   -0.30070      0.99966     2.29567    0.00536     3.30070
      C    2   -0.01254      0.99957     2.00131    0.01166     3.01254
      O    3   -0.29002      0.99985     3.27624    0.01394     4.29002
      C    4    0.27952      0.99967     1.69913    0.02168     2.72048
      S    5   -0.15085      4.99957     3.13771    0.01358     8.15085
      N    6   -0.30470      0.99960     2.79504    0.01006     3.80470
      C    7    0.27573      0.99960     1.70521    0.01946     2.72427
      N    8   -0.27131      0.99970     2.76239    0.00922     3.77131
      C    9   -0.04295      0.99959     2.02911    0.01425     3.04295
      C   10   -0.04053      0.99957     2.02772    0.01324     3.04053
      N   11   -0.27230      0.99965     2.76278    0.00987     3.77230
      H   12    0.10183      0.00000     0.39656    0.00161     0.39817
      H   13    0.10170      0.00000     0.39699    0.00132     0.39830
      H   14    0.10786      0.00000     0.39116    0.00097     0.39214
      H   15    0.09176      0.00000     0.40569    0.00255     0.40824
      H   16    0.09891      0.00000     0.39978    0.00131     0.40109
      H   17    0.21111      0.00000     0.28712    0.00177     0.28889
      H   18    0.09385      0.00000     0.40520    0.00095     0.40615
      H   19    0.10436      0.00000     0.39393    0.00171     0.39564
      H   20    0.21928      0.00000     0.27729    0.00343     0.28072
 =======================================================================
   * Total *   -0.00000     14.99602    29.84602    0.15796    45.00000

 Normal termination of Gaussian 16 at Tue Dec  8 19:39:10 2020.
