 Gaussian 16, Revision A.03,

 -----------------------------------------------------------
 # opt freq B3LYP/6-31G(d) empiricaldispersion=gd3bj scf=xqc
 -----------------------------------------------------------

 --------------------------------
 CID_103357072_JID_10188_neutraal
 --------------------------------
 Symbolic Z-matrix:
 Charge =  0 Multiplicity = 1

 SCF Done:  E(RB3LYP) =  -1004.09288124     A.U. after   15 cycles
 SCF Done:  E(RB3LYP) =  -1004.10160620     A.U. after   12 cycles
 SCF Done:  E(RB3LYP) =  -1004.10273493     A.U. after   13 cycles
 SCF Done:  E(RB3LYP) =  -1004.10323273     A.U. after   12 cycles
 SCF Done:  E(RB3LYP) =  -1004.10359850     A.U. after   11 cycles
 SCF Done:  E(RB3LYP) =  -1004.10376850     A.U. after   12 cycles
 SCF Done:  E(RB3LYP) =  -1004.10381653     A.U. after   11 cycles
 SCF Done:  E(RB3LYP) =  -1004.10386768     A.U. after   11 cycles
 SCF Done:  E(RB3LYP) =  -1004.10392767     A.U. after   12 cycles
 SCF Done:  E(RB3LYP) =  -1004.10400083     A.U. after   12 cycles
 SCF Done:  E(RB3LYP) =  -1004.11477257     A.U. after    9 cycles
 SCF Done:  E(RB3LYP) =  -1004.11477223     A.U. after    8 cycles
 SCF Done:  E(RB3LYP) =  -1004.11477265     A.U. after    8 cycles
 SCF Done:  E(RB3LYP) =  -1004.11477269     A.U. after    7 cycles
 Optimization completed.
    -- Stationary point found.
 Normal termination of Gaussian 16 at Sun Dec 13 17:44:50 2020.

 --------------------------------------------------------------------
 #N Geom=AllCheck Guess=TCheck SCRF=Check GenChk RB3LYP/6-31G(d) Freq
 --------------------------------------------------------------------

 Structure from the checkpoint file:  "JID_10188.chk"
 --------------------------------
 CID_103357072_JID_10188_neutraal
 --------------------------------
 Charge =  0 Multiplicity = 1

 SCF Done:  E(RB3LYP) =  -1004.11477269     A.U. after    1 cycles

  Exact polarizability: 211.922   8.372 149.955  -6.183   3.282 104.565
 Approx polarizability: 274.690  11.137 245.454 -12.875   4.699 164.084

                      1                      2                      3
                      A                      A                      A
 Frequencies --     18.8099                24.4599                37.9772
 Red. masses --      5.3852                 5.1595                 7.3065
 Frc consts  --      0.0011                 0.0018                 0.0062
 IR Inten    --      0.6108                 1.1170                 5.1014

                      4                      5                      6
                      A                      A                      A
 Frequencies --     47.3882                65.7992                71.4450
 Red. masses --      5.8410                 6.4699                 4.1022
 Frc consts  --      0.0077                 0.0165                 0.0123
 IR Inten    --      0.2109                 1.4494                 3.8923

                      7                      8                      9
                      A                      A                      A
 Frequencies --     93.3264               100.5572               133.3716
 Red. masses --      6.7002                 4.9538                 2.9098
 Frc consts  --      0.0344                 0.0295                 0.0305
 IR Inten    --      7.9066                 4.7865                 0.3274

                     10                     11                     12
                      A                      A                      A
 Frequencies --    154.5266               174.5945               206.2491
 Red. masses --      4.0615                 4.6822                 4.5879
 Frc consts  --      0.0571                 0.0841                 0.1150
 IR Inten    --      1.0038                 3.5757                 2.2353

                     13                     14                     15
                      A                      A                      A
 Frequencies --    223.5918               230.1353               263.1097
 Red. masses --      1.2689                 2.6000                 3.6334
 Frc consts  --      0.0374                 0.0811                 0.1482
 IR Inten    --      7.4101                16.6292                 2.4096

                     16                     17                     18
                      A                      A                      A
 Frequencies --    308.9570               336.5290               345.1446
 Red. masses --      2.9970                 3.9255                 3.3590
 Frc consts  --      0.1686                 0.2619                 0.2358
 IR Inten    --      3.4675                 2.9618                 3.6241

                     19                     20                     21
                      A                      A                      A
 Frequencies --    365.0486               404.8174               408.5778
 Red. masses --      3.1203                 2.3963                 2.3058
 Frc consts  --      0.2450                 0.2314                 0.2268
 IR Inten    --      0.6466                34.5081                26.1757

                     22                     23                     24
                      A                      A                      A
 Frequencies --    411.4518               423.7185               480.8738
 Red. masses --      1.8472                 2.0255                 2.8620
 Frc consts  --      0.1842                 0.2143                 0.3899
 IR Inten    --     22.5711                22.7224                32.1115

                     25                     26                     27
                      A                      A                      A
 Frequencies --    506.4493               529.0023               567.9268
 Red. masses --      2.8748                 5.5254                 3.5584
 Frc consts  --      0.4344                 0.9110                 0.6762
 IR Inten    --      1.1372                16.2709                11.6758

                     28                     29                     30
                      A                      A                      A
 Frequencies --    581.5983               612.9513               638.0567
 Red. masses --      1.4585                 4.8123                 3.7547
 Frc consts  --      0.2907                 1.0652                 0.9006
 IR Inten    --     89.6324                 3.2312                 0.5747

                     31                     32                     33
                      A                      A                      A
 Frequencies --    660.4643               672.5246               706.8076
 Red. masses --      3.4411                 2.8525                 8.9432
 Frc consts  --      0.8844                 0.7601                 2.6324
 IR Inten    --     27.6011                12.4236                16.5052

                     34                     35                     36
                      A                      A                      A
 Frequencies --    723.5928               785.4074               789.8267
 Red. masses --      3.5818                 6.0741                 2.3067
 Frc consts  --      1.1049                 2.2076                 0.8478
 IR Inten    --     47.8381                46.7957                 1.1030

                     37                     38                     39
                      A                      A                      A
 Frequencies --    801.9244               823.9135               833.0664
 Red. masses --      2.3556                 2.7845                 2.3586
 Frc consts  --      0.8925                 1.1137                 0.9644
 IR Inten    --     12.2332                96.6896                 4.2626

                     40                     41                     42
                      A                      A                      A
 Frequencies --    837.0927               892.3555               896.0090
 Red. masses --      3.1622                 1.7959                 1.5236
 Frc consts  --      1.3055                 0.8426                 0.7207
 IR Inten    --     22.1676                 2.1198                19.0903

                     43                     44                     45
                      A                      A                      A
 Frequencies --    917.8322               944.1327               955.2800
 Red. masses --      1.9431                 2.1732                 2.4604
 Frc consts  --      0.9644                 1.1413                 1.3229
 IR Inten    --     11.0879                16.9647                12.3829

                     46                     47                     48
                      A                      A                      A
 Frequencies --    993.4372               998.4273              1015.5272
 Red. masses --      3.8242                 2.0557                 2.0190
 Frc consts  --      2.2237                 1.2074                 1.2268
 IR Inten    --      2.8069                12.9813                 5.2377

                     49                     50                     51
                      A                      A                      A
 Frequencies --   1033.8319              1047.7233              1069.1110
 Red. masses --      1.6370                 3.7346                 2.7216
 Frc consts  --      1.0309                 2.4154                 1.8328
 IR Inten    --      3.7411                30.8993                44.1444

                     52                     53                     54
                      A                      A                      A
 Frequencies --   1092.6260              1118.1435              1139.5690
 Red. masses --      2.1905                 2.3440                 2.8316
 Frc consts  --      1.5408                 1.7266                 2.1665
 IR Inten    --     43.0138                10.6239               134.5724

                     55                     56                     57
                      A                      A                      A
 Frequencies --   1144.7749              1163.9344              1180.0264
 Red. masses --      3.6713                 2.1620                 1.8102
 Frc consts  --      2.8347                 1.7257                 1.4851
 IR Inten    --     15.0582               135.0697                91.9698

                     58                     59                     60
                      A                      A                      A
 Frequencies --   1194.9312              1203.1395              1218.1271
 Red. masses --      2.9024                 1.5344                 2.2195
 Frc consts  --      2.4417                 1.3086                 1.9404
 IR Inten    --     15.9858                52.6498                80.6261

                     61                     62                     63
                      A                      A                      A
 Frequencies --   1245.1335              1259.7343              1293.1343
 Red. masses --      1.2882                 1.6502                 1.4530
 Frc consts  --      1.1767                 1.5429                 1.4315
 IR Inten    --     22.8085                 9.9536                16.1810

                     64                     65                     66
                      A                      A                      A
 Frequencies --   1306.1426              1312.0748              1315.8927
 Red. masses --      2.4946                 1.5336                 1.3551
 Frc consts  --      2.5075                 1.5556                 1.3825
 IR Inten    --     17.1174                43.4233                26.9806

                     67                     68                     69
                      A                      A                      A
 Frequencies --   1333.1254              1337.6029              1342.2278
 Red. masses --      1.7424                 1.4403                 3.6761
 Frc consts  --      1.8245                 1.5183                 3.9020
 IR Inten    --     23.2034                12.2179                35.2103

                     70                     71                     72
                      A                      A                      A
 Frequencies --   1382.6877              1395.0276              1405.7496
 Red. masses --      1.4881                 1.5529                 1.3041
 Frc consts  --      1.6762                 1.7806                 1.5184
 IR Inten    --      7.4237               157.1090                14.0176

                     73                     74                     75
                      A                      A                      A
 Frequencies --   1424.6234              1441.9344              1446.1039
 Red. masses --      1.4131                 4.5275                 2.7280
 Frc consts  --      1.6897                 5.5463                 3.3612
 IR Inten    --     21.9816                52.9219               328.1139

                     76                     77                     78
                      A                      A                      A
 Frequencies --   1455.8679              1488.9275              1494.7832
 Red. masses --      1.7723                 1.9916                 1.5420
 Frc consts  --      2.2132                 2.6014                 2.0300
 IR Inten    --     73.2190                11.4695                 9.6486

                     79                     80                     81
                      A                      A                      A
 Frequencies --   1508.9865              1513.5383              1515.1300
 Red. masses --      1.3793                 1.0911                 1.1754
 Frc consts  --      1.8504                 1.4726                 1.5898
 IR Inten    --      5.5676                 5.2657                23.7297

                     82                     83                     84
                      A                      A                      A
 Frequencies --   1516.5582              1530.0228              1537.9449
 Red. masses --      1.1375                 1.0601                 1.0839
 Frc consts  --      1.5415                 1.4622                 1.5105
 IR Inten    --     42.3420                 0.9517                 3.5978

                     85                     86                     87
                      A                      A                      A
 Frequencies --   1558.1295              1573.7090              1764.2631
 Red. masses --      1.0912                 5.6099                 7.5140
 Frc consts  --      1.5608                 8.1857                13.7799
 IR Inten    --      4.3325                29.2821               354.6150

                     88                     89                     90
                      A                      A                      A
 Frequencies --   1851.9590              3025.7474              3063.6335
 Red. masses --     10.0961                 1.0730                 1.0357
 Frc consts  --     20.4017                 5.7879                 5.7272
 IR Inten    --    390.6381                39.2347                14.7863

                     91                     92                     93
                      A                      A                      A
 Frequencies --   3074.9830              3084.3480              3088.0761
 Red. masses --      1.0605                 1.0636                 1.0628
 Frc consts  --      5.9083                 5.9617                 5.9714
 IR Inten    --     18.8486                32.9115                18.3315

                     94                     95                     96
                      A                      A                      A
 Frequencies --   3094.7048              3110.8982              3136.1761
 Red. masses --      1.0598                 1.1064                 1.1033
 Frc consts  --      5.9802                 6.3089                 6.3937
 IR Inten    --     17.3654                11.6219                10.2895

                     97                     98                     99
                      A                      A                      A
 Frequencies --   3137.7688              3141.1563              3142.7776
 Red. masses --      1.1033                 1.1034                 1.1045
 Frc consts  --      6.4001                 6.4147                 6.4277
 IR Inten    --      7.6829                37.6158                13.9434

                    100                    101                    102
                      A                      A                      A
 Frequencies --   3151.5995              3170.4623              3274.0138
 Red. masses --      1.1062                 1.0915                 1.1027
 Frc consts  --      6.4737                 6.4641                 6.9639
 IR Inten    --      9.2079                14.6418                53.5594

                    103                    104                    105
                      A                      A                      A
 Frequencies --   3554.6000              3700.5285              3711.7373
 Red. masses --      1.0745                 1.0641                 1.0652
 Frc consts  --      7.9992                 8.5857                 8.6464
 IR Inten    --     15.2018                72.5420                11.3193

 - Thermochemistry -
 -------------------
 Temperature   298.150 Kelvin.  Pressure   1.00000 Atm.
 Atom     1 has atomic number  6 and mass  12.00000

 Molecular mass:   283.12805 amu.
 Principal axes and moments of inertia in atomic units:
                           1         2         3
     Eigenvalues --  2014.73973********************
           X            1.00000   0.00142   0.00100
           Y           -0.00144   0.99979   0.02063
           Z           -0.00097  -0.02063   0.99979
 This molecule is an asymmetric top.
 Rotational symmetry number  1.
 Warning -- assumption of classical behavior for rotation
           may cause significant error
 Rotational temperatures (Kelvin)      0.04299     0.00689     0.00629
 Rotational constants (GHZ):           0.89577     0.14352     0.13106
 Zero-point vibrational energy     794525.1 (Joules/Mol)
                                  189.89607 (Kcal/Mol)
 Warning -- explicit consideration of  29 degrees of freedom as
           vibrations may cause significant error
 Vibrational temperatures:     27.06    35.19    54.64    68.18    94.67
          (Kelvin)            102.79   134.28   144.68   191.89   222.33
                              251.20   296.75   321.70   331.11   378.56
                              444.52   484.19   496.59   525.22   582.44
                              587.85   591.99   609.64   691.87   728.67
                              761.12   817.12   836.79   881.90   918.02
                              950.26   967.61  1016.94  1041.09  1130.03
                             1136.38  1153.79  1185.43  1198.60  1204.39
                             1283.90  1289.16  1320.56  1358.40  1374.43
                             1429.33  1436.51  1461.12  1487.45  1507.44
                             1538.21  1572.05  1608.76  1639.59  1647.08
                             1674.64  1697.79  1719.24  1731.05  1752.61
                             1791.47  1812.48  1860.53  1879.25  1887.78
                             1893.28  1918.07  1924.51  1931.17  1989.38
                             2007.13  2022.56  2049.72  2074.62  2080.62
                             2094.67  2142.23  2150.66  2171.09  2177.64
                             2179.93  2181.99  2201.36  2212.76  2241.80
                             2264.22  2538.38  2664.56  4353.38  4407.89
                             4424.21  4437.69  4443.05  4452.59  4475.89
                             4512.26  4514.55  4519.42  4521.76  4534.45
                             4561.59  4710.58  5114.28  5324.24  5340.36

 Zero-point correction=                           0.302619 (Hartree/Particle)
 Thermal correction to Energy=                    0.321720
 Thermal correction to Enthalpy=                  0.322665
 Thermal correction to Gibbs Free Energy=         0.252349
 Sum of electronic and zero-point Energies=          -1003.812154
 Sum of electronic and thermal Energies=             -1003.793052
 Sum of electronic and thermal Enthalpies=           -1003.792108
 Sum of electronic and thermal Free Energies=        -1003.862424

                     E (Thermal)             CV                S
                      KCal/Mol        Cal/Mol-Kelvin    Cal/Mol-Kelvin
 Total                  201.883             71.095            147.992
 Electronic               0.000              0.000              0.000
 Translational            0.889              2.981             42.820
 Rotational               0.889              2.981             34.211
 Vibrational            200.105             65.133             70.961
 Vibration     1          0.593              1.986              6.756
 Vibration     2          0.593              1.985              6.235
 Vibration     3          0.594              1.982              5.362
 Vibration     4          0.595              1.979              4.924
 Vibration     5          0.597              1.971              4.275
 Vibration     6          0.598              1.968              4.113
 Vibration     7          0.602              1.954              3.589
 Vibration     8          0.604              1.949              3.443
 Vibration     9          0.613              1.920              2.897
 Vibration    10          0.620              1.898              2.616
 Vibration    11          0.627              1.874              2.385
 Vibration    12          0.641              1.831              2.077
 Vibration    13          0.649              1.805              1.930
 Vibration    14          0.652              1.795              1.878
 Vibration    15          0.670              1.740              1.641
 Vibration    16          0.698              1.657              1.368
 Vibration    17          0.717              1.603              1.229
 Vibration    18          0.724              1.585              1.188
 Vibration    19          0.738              1.544              1.101
 Vibration    20          0.770              1.460              0.945
 Vibration    21          0.773              1.452              0.932
 Vibration    22          0.775              1.445              0.921
 Vibration    23          0.786              1.419              0.879
 Vibration    24          0.837              1.292              0.708
 Vibration    25          0.862              1.236              0.642
 Vibration    26          0.884              1.186              0.589
 Vibration    27          0.924              1.101              0.508
 Vibration    28          0.938              1.071              0.482
 Vibration    29          0.972              1.004              0.428

                           ! Non-Optimized Parameters !
 Normal termination of Gaussian 16 at Sun Dec 13 18:02:16 2020.

 ----------------------------------------------------------------------
 # B3LYP/6-311++G(d,p) empiricaldispersion=gd3bj scf=xqc pop=npa geom=c
 heck
 ----------------------------------------------------------------------

 ----------------------------------------
 CID_103357072_JID_10188_Energie_neutraal
 ----------------------------------------
 Structure from the checkpoint file:  "JID_10188.chk"
 Charge =  0 Multiplicity = 1

 SCF Done:  E(RB3LYP) =  -1004.41713413     A.U. after   15 cycles
 Normal termination of Gaussian 16 at Sun Dec 13 18:10:06 2020.

 ----------------------------------------------------------------------
 # B3LYP/6-311++G(d,p) empiricaldispersion=gd3bj scf=xqc pop=npa geom=c
 heck
 ----------------------------------------------------------------------

 --------------------------------------
 CID_103357072_JID_10188_Energie_kation
 --------------------------------------
 Structure from the checkpoint file:  "JID_10188.chk"
 Charge =  1 Multiplicity = 2

 SCF Done:  E(UB3LYP) =  -1004.08764702     A.U. after   33 cycles
 SCF Done:  E(UB3LYP) =  -1004.08764702     a.u. after    2 cycles
 Normal termination of Gaussian 16 at Sun Dec 13 18:58:48 2020.
 Gaussian 16:  ES64L-G16RevA.03 25-Dec-2016

 ----------------------------------------------------------------------
 # B3LYP/6-311++G(d,p) empiricaldispersion=gd3bj scf=xqc pop=npa geom=c
 heck
 ----------------------------------------------------------------------

 -------------------------------------
 CID_103357072_JID_10188_Energie_anion
 -------------------------------------
 Structure from the checkpoint file:  "JID_10188.chk"
 Charge = -1 Multiplicity = 2

                         Standard orientation:
 ---------------------------------------------------------------------
 Center     Atomic      Atomic             Coordinates (Angstroms)
 Number     Number       Type             X           Y           Z
 ---------------------------------------------------------------------
      1          6           0        5.671774    0.507050    0.497903
      2          6           0        4.322281    0.138806   -0.090657
      3          6           0        4.273584   -1.245809   -0.778874
      4          6           0        2.786367   -1.666749   -0.738105
      5          7           0        2.154887   -0.655379    0.135977
      6          6           0        3.192514    0.007884    0.938862
      7          6           0        0.859732   -0.860527    0.541084
      8          8           0        0.214928   -1.854411    0.212928
      9          7           0        0.311859    0.163029    1.334729
     10          6           0        0.248922    1.518408    0.779783
     11          6           0       -0.503553    1.603628   -0.558455
     12          7           0       -1.892950    1.194916   -0.435160
     13          6           0       -2.421895   -0.046492   -0.355735
     14          6           0       -3.772844    0.180446   -0.157156
     15          7           0       -3.992527    1.531653   -0.122214
     16          7           0       -2.864097    2.146982   -0.284698
     17          6           0       -4.860503   -0.796930   -0.001825
     18          8           0       -6.030025   -0.542040    0.173418
     19          8           0       -4.380704   -2.069211   -0.078461
     20          8           0        3.984753    1.176275   -1.017865
     21          1           0        5.623024    1.493719    0.969029
     22          1           0        6.427211    0.545955   -0.292750
     23          1           0        5.985062   -0.227658    1.246189
     24          1           0        4.671635   -1.179268   -1.794199
     25          1           0        4.886633   -1.961765   -0.222319
     26          1           0        2.644358   -2.670502   -0.325366
     27          1           0        2.301881   -1.650957   -1.718449
     28          1           0        3.490632   -0.620760    1.790814
     29          1           0        2.872784    0.977169    1.317853
     30          1           0       -0.598367   -0.147617    1.661229
     31          1           0       -0.243806    2.158520    1.516831
     32          1           0        1.257343    1.910058    0.625274
     33          1           0       -0.514888    2.632789   -0.924446
     34          1           0       -0.020710    0.968590   -1.307350
     35          1           0       -1.826637   -0.947281   -0.418997
     36          1           0       -5.155627   -2.649909    0.034419
     37          1           0        3.089362    0.977317   -1.339281
 ---------------------------------------------------------------------

 SCF Done:  E(UB3LYP) =  -1004.42107214     A.U. after   33 cycles
 SCF Done:  E(UB3LYP) =  -1004.42107214     a.u. after    1 cycles

 The electronic state is 2-A.
 Alpha  occ. eigenvalues --  -19.07070 -19.03488 -19.00863 -19.00362 -14.30440
 Alpha  occ. eigenvalues --  -14.27542 -14.25797 -14.24712 -14.24189 -10.21237
 Alpha  occ. eigenvalues --  -10.19568 -10.15103 -10.13618 -10.13590 -10.12386
 Alpha  occ. eigenvalues --  -10.11903 -10.11115 -10.10203 -10.08819 -10.08028
 Alpha  occ. eigenvalues --   -1.00900  -1.00090  -0.97178  -0.94423  -0.91618
 Alpha  occ. eigenvalues --   -0.86349  -0.84510  -0.82020  -0.71840  -0.71173
 Alpha  occ. eigenvalues --   -0.68026  -0.66410  -0.62405  -0.59367  -0.58190
 Alpha  occ. eigenvalues --   -0.55582  -0.51823  -0.49818  -0.48928  -0.48039
 Alpha  occ. eigenvalues --   -0.44909  -0.43486  -0.42559  -0.42063  -0.40614
 Alpha  occ. eigenvalues --   -0.39581  -0.39382  -0.38039  -0.36798  -0.36565
 Alpha  occ. eigenvalues --   -0.36277  -0.35486  -0.33882  -0.33733  -0.33462
 Alpha  occ. eigenvalues --   -0.32529  -0.31488  -0.30843  -0.30660  -0.30453
 Alpha  occ. eigenvalues --   -0.29349  -0.28914  -0.27954  -0.26491  -0.25119
 Alpha  occ. eigenvalues --   -0.24493  -0.22978  -0.21044  -0.20373  -0.19605
 Alpha  occ. eigenvalues --   -0.18301  -0.17981  -0.17585  -0.16842  -0.16398
 Alpha  occ. eigenvalues --    0.03220
 Alpha virt. eigenvalues --    0.04944   0.06359   0.07034   0.07348   0.07701
 Alpha virt. eigenvalues --    0.07828   0.08355   0.09065   0.09284   0.09851
 Alpha virt. eigenvalues --    0.10244   0.10864   0.11145   0.11825   0.12145

  Beta  occ. eigenvalues --  -19.07052 -19.03447 -19.00858 -19.00219 -14.30353
  Beta  occ. eigenvalues --  -14.27569 -14.25798 -14.24706 -14.24191 -10.21229
  Beta  occ. eigenvalues --  -10.19420 -10.15101 -10.13598 -10.13572 -10.12359
  Beta  occ. eigenvalues --  -10.11881 -10.10908 -10.10185 -10.08793 -10.07999
  Beta  occ. eigenvalues --   -1.00773  -1.00013  -0.97163  -0.94346  -0.91422
  Beta  occ. eigenvalues --   -0.86330  -0.84462  -0.81932  -0.71632  -0.71137
  Beta  occ. eigenvalues --   -0.67964  -0.66363  -0.62359  -0.59193  -0.58051
  Beta  occ. eigenvalues --   -0.55528  -0.51693  -0.49746  -0.48834  -0.47958
  Beta  occ. eigenvalues --   -0.44823  -0.43405  -0.42515  -0.41960  -0.40528
  Beta  occ. eigenvalues --   -0.39436  -0.39217  -0.37902  -0.36757  -0.36448
  Beta  occ. eigenvalues --   -0.36184  -0.35135  -0.33842  -0.33679  -0.33229
  Beta  occ. eigenvalues --   -0.32479  -0.31439  -0.30763  -0.30596  -0.30397
  Beta  occ. eigenvalues --   -0.29310  -0.28874  -0.27915  -0.26454  -0.25078
  Beta  occ. eigenvalues --   -0.24482  -0.22495  -0.20944  -0.20013  -0.19563
  Beta  occ. eigenvalues --   -0.18184  -0.17950  -0.17301  -0.16700  -0.16171
  Beta virt. eigenvalues --    0.05551   0.06791   0.07231   0.07295   0.07418
  Beta virt. eigenvalues --    0.07850   0.08122   0.08732   0.09394   0.09492
  Beta virt. eigenvalues --    0.10101   0.10398   0.10980   0.11350   0.11827

 Mulliken charges and spin densities:
               1          2
     1  C    0.799385  -1.435101
     2  C   -1.231198   1.499627
     3  C    0.628312  -1.182530
     4  C   -0.095290   0.083657
     5  N   -0.023393   0.155989
     6  C    0.341155  -1.055860
     7  C   -0.367248   0.107639
     8  O   -0.288835   0.011969
     9  N   -0.143444   0.006874
    10  C   -0.171052  -0.045416
    11  C   -0.024488  -0.511718
    12  N    0.202637   0.059369
    13  C   -0.446125   0.260656
    14  C    0.163776  -0.106723
    15  N   -0.127743   0.001019
    16  N    0.005086  -0.011028
    17  C   -0.090905   0.067754
    18  O   -0.342581   0.047114
    19  O   -0.204875   0.003817
    20  O   -0.064315  -0.030217
    21  H   -0.030093   0.186574
    22  H   -0.040457   0.200841
    23  H   -0.198861   0.347492
    24  H    0.064295   0.125197
    25  H   -0.243609   0.418005
    26  H    0.131317   0.064233
    27  H   -0.136149   0.319827
    28  H   -0.127822   0.332433
    29  H    0.140976   0.061765
    30  H    0.343432  -0.007354
    31  H    0.188990   0.022911
    32  H    0.008692   0.107111
    33  H    0.034223   0.194889
    34  H   -0.111097   0.330132
    35  H    0.214416   0.057407
    36  H    0.276404  -0.000024
    37  H   -0.033515   0.311672
 Sum of Mulliken charges =  -1.00000   1.00000

 Dipole moment (field-independent basis, Debye):
    X=              1.9407    Y=             -1.4368    Z=              1.7238  Tot=              2.9668
 Quadrupole moment (field-independent basis, Debye-Ang):
   XX=           -245.1552   YY=           -150.4528   ZZ=           -141.1438
   XY=             14.2568   XZ=              0.2793   YZ=              4.7972

 Summary of Natural Population Analysis:

                                       Natural Population
                Natural  -----------------------------------------------
    Atom  No    Charge         Core      Valence    Rydberg      Total
 -----------------------------------------------------------------------
      C    1   -0.28843      0.99960     2.28270    0.00613     3.28843
      C    2    0.12541      0.99953     1.85886    0.01620     2.87459
      C    3   -0.20547      0.99958     2.19844    0.00746     3.20547
      C    4   -0.08284      0.99963     2.07355    0.00965     3.08284
      N    5   -0.27860      0.99965     2.76807    0.01088     3.77860
      C    6   -0.08916      0.99954     2.07993    0.00969     3.08916
      C    7    0.41371      0.99965     1.56118    0.02546     2.58629
      O    8   -0.32748      0.99988     3.32282    0.00478     4.32748
      N    9   -0.34096      0.99970     2.83226    0.00900     3.84096
      C   10   -0.09399      0.99961     2.08355    0.01083     3.09399
      C   11   -0.09718      0.99960     2.08513    0.01245     3.09718
      N   12   -0.10298      0.99965     2.58902    0.01430     3.60298
      C   13    0.03176      0.99952     1.95620    0.01252     2.96824
      C   14   -0.02528      0.99950     2.01082    0.01496     3.02528
      N   15   -0.11436      0.99973     2.60090    0.01373     3.61436
      N   16   -0.05423      0.99978     2.54006    0.01439     3.55423
      C   17    0.40272      0.99967     1.57396    0.02366     2.59728
      O   18   -0.29342      0.99987     3.28664    0.00691     4.29342
      O   19   -0.34861      0.99988     3.34296    0.00576     4.34861
      O   20   -0.37650      0.99989     3.36995    0.00667     4.37650
      H   21    0.10419      0.00000     0.39464    0.00117     0.39581
      H   22    0.10510      0.00000     0.39378    0.00112     0.39490
      H   23    0.10292      0.00000     0.39543    0.00165     0.39708
      H   24    0.10909      0.00000     0.38967    0.00124     0.39091
      H   25    0.10424      0.00000     0.39409    0.00167     0.39576
      H   26    0.10123      0.00000     0.39749    0.00128     0.39877
      H   27    0.10238      0.00000     0.39612    0.00149     0.39762
      H   28    0.09614      0.00000     0.40240    0.00146     0.40386
      H   29    0.10645      0.00000     0.39211    0.00144     0.39355
      H   30    0.19279      0.00000     0.30550    0.00171     0.30721
      H   31    0.10073      0.00000     0.39826    0.00100     0.39927
      H   32    0.10312      0.00000     0.39556    0.00131     0.39688
      H   33    0.11307      0.00000     0.38537    0.00156     0.38693
      H   34    0.10731      0.00000     0.39057    0.00212     0.39269
      H   35    0.12801      0.00000     0.37030    0.00168     0.37199
      H   36    0.23533      0.00000     0.26195    0.00272     0.26467
      H   37    0.23377      0.00000     0.26113    0.00510     0.26623
 =======================================================================
   * Total *    0.00000     19.99347    54.74139    0.26514    75.00000

 Normal termination of Gaussian 16 at Sun Dec 13 19:22:09 2020.
