 Gaussian 16, Revision A.03,

 -----------------------------------------------------------
 # opt freq B3LYP/6-31G(d) empiricaldispersion=gd3bj scf=xqc
 -----------------------------------------------------------

 ------------------------------
 CID_79278630_JID_1901_neutraal
 ------------------------------
 Symbolic Z-matrix:
 Charge =  0 Multiplicity = 1

 SCF Done:  E(RB3LYP) =  -464.503569992     A.U. after   13 cycles
 SCF Done:  E(RB3LYP) =  -464.507181147     A.U. after   11 cycles
 SCF Done:  E(RB3LYP) =  -464.507669596     A.U. after   11 cycles
 SCF Done:  E(RB3LYP) =  -464.507760362     A.U. after   11 cycles
 SCF Done:  E(RB3LYP) =  -464.507823053     A.U. after   10 cycles
 SCF Done:  E(RB3LYP) =  -464.507840087     A.U. after    9 cycles
 SCF Done:  E(RB3LYP) =  -464.507843642     A.U. after    8 cycles
 SCF Done:  E(RB3LYP) =  -464.507844369     A.U. after    8 cycles
 SCF Done:  E(RB3LYP) =  -464.507844591     A.U. after    8 cycles
 SCF Done:  E(RB3LYP) =  -464.507844856     A.U. after    8 cycles
 SCF Done:  E(RB3LYP) =  -464.507844906     A.U. after    8 cycles
 SCF Done:  E(RB3LYP) =  -464.507844861     A.U. after    7 cycles
 SCF Done:  E(RB3LYP) =  -464.507844807     A.U. after    7 cycles
 Optimization completed.
    -- Stationary point found.

 1\1\GINC-NODE127\FOpt\RB3LYP\6-31G(d)\C9H20N2\VSC10255\08-Dec-2020\0\\
 # opt freq B3LYP/6-31G(d) empiricaldispersion=gd3bj scf=xqc\\CID_79278
 630_JID_1901_neutraal\\0,1\C,0.8473621294,0.1446420373,-0.0276778836\C
 ,0.2511362018,-1.2635756533,-0.1263776039\C,0.6585089106,-2.2031150212
 ,1.0212816109\C,0.2213386447,-1.7424738635,2.4140349053\N,-1.233080739
 1,-1.7547328097,2.5451348299\C,-1.7526120592,-1.2855015913,3.827625348
 5\C,-1.3252967483,0.1275760219,4.2570064169\N,-1.7103087607,1.10400982
 29,3.2410252466\C,-1.2546760208,2.4761043284,3.4996040016\C,0.23195797

 Normal termination of Gaussian 16 at Tue Dec  8 21:35:18 2020.

 --------------------------------------------------------------------
 #N Geom=AllCheck Guess=TCheck SCRF=Check GenChk RB3LYP/6-31G(d) Freq
 --------------------------------------------------------------------

 Structure from the checkpoint file:  "JID_1901.chk"
 ------------------------------
 CID_79278630_JID_1901_neutraal
 ------------------------------
 Charge =  0 Multiplicity = 1

 SCF Done:  E(RB3LYP) =  -464.507844807     A.U. after    1 cycles

  Exact polarizability: 107.848  -2.958 127.077   3.539  -1.677  93.516
 Approx polarizability: 134.415  -3.798 172.701   2.862  -2.600 142.130

                      1                      2                      3
                      A                      A                      A
 Frequencies --     25.9915                42.4353                45.8395
 Red. masses --      2.9240                 3.1312                 3.1971
 Frc consts  --      0.0012                 0.0033                 0.0040
 IR Inten    --      0.2425                 0.0202                 0.1021

                      4                      5                      6
                      A                      A                      A
 Frequencies --     68.3594                83.2287               137.8870
 Red. masses --      2.7104                 2.5747                 2.8478
 Frc consts  --      0.0075                 0.0105                 0.0319
 IR Inten    --      0.1456                 0.5141                 1.1819

                      7                      8                      9
                      A                      A                      A
 Frequencies --    166.7486               210.0965               231.2335
 Red. masses --      1.6431                 2.5812                 1.9124
 Frc consts  --      0.0269                 0.0671                 0.0602
 IR Inten    --      0.1338                 3.8070                 0.3924

                     10                     11                     12
                      A                      A                      A
 Frequencies --    265.9456               275.4078               285.7206
 Red. masses --      2.6425                 1.8981                 1.7504
 Frc consts  --      0.1101                 0.0848                 0.0842
 IR Inten    --      0.3782                 2.7633                 1.6960

                     13                     14                     15
                      A                      A                      A
 Frequencies --    331.7894               354.8640               397.9353
 Red. masses --      1.8250                 2.1583                 2.0165
 Frc consts  --      0.1184                 0.1601                 0.1881
 IR Inten    --      4.6511                 2.0296                 0.6454

                     16                     17                     18
                      A                      A                      A
 Frequencies --    453.4107               510.1606               574.3957
 Red. masses --      2.0327                 2.1057                 2.2238
 Frc consts  --      0.2462                 0.3229                 0.4323
 IR Inten    --      1.2062                 0.2844                 1.3940

                     19                     20                     21
                      A                      A                      A
 Frequencies --    687.9337               722.4494               753.3661
 Red. masses --      1.7636                 1.5000                 1.2248
 Frc consts  --      0.4918                 0.4613                 0.4096
 IR Inten    --     42.5373               124.6930                13.7723

                     22                     23                     24
                      A                      A                      A
 Frequencies --    790.2080               825.1454               829.7850
 Red. masses --      1.5310                 2.0613                 1.4964
 Frc consts  --      0.5633                 0.8269                 0.6071
 IR Inten    --     10.9056                 2.4599                10.4396

                     25                     26                     27
                      A                      A                      A
 Frequencies --    876.2987               894.3216               933.3138
 Red. masses --      1.5602                 1.5948                 1.7213
 Frc consts  --      0.7059                 0.7515                 0.8834
 IR Inten    --     26.2705                 3.7571                 2.8409

                     28                     29                     30
                      A                      A                      A
 Frequencies --    945.7098               965.6661               977.2064
 Red. masses --      1.3570                 2.2065                 1.7122
 Frc consts  --      0.7151                 1.2123                 0.9633
 IR Inten    --     37.5668                 9.5023                13.4971

                     31                     32                     33
                      A                      A                      A
 Frequencies --    990.0495              1028.4149              1035.7101
 Red. masses --      1.6334                 1.6131                 1.1221
 Frc consts  --      0.9433                 1.0052                 0.7092
 IR Inten    --      6.3281                 2.2406                14.7810

                     34                     35                     36
                      A                      A                      A
 Frequencies --   1083.2682              1090.1891              1113.6150
 Red. masses --      1.5878                 2.5300                 1.8023
 Frc consts  --      1.0978                 1.7717                 1.3169
 IR Inten    --      8.0579                 5.5656                 8.4587

                     37                     38                     39
                      A                      A                      A
 Frequencies --   1134.2344              1154.3722              1167.2384
 Red. masses --      2.7737                 2.0519                 2.9431
 Frc consts  --      2.1024                 1.6110                 2.3625
 IR Inten    --     32.4474                 8.3624                19.0594

                     40                     41                     42
                      A                      A                      A
 Frequencies --   1180.7062              1190.2017              1244.5380
 Red. masses --      2.0648                 2.4228                 1.2050
 Frc consts  --      1.6960                 2.0221                 1.0996
 IR Inten    --      3.0674                16.9362                 4.7428

                     43                     44                     45
                      A                      A                      A
 Frequencies --   1250.8767              1274.4519              1312.0490
 Red. masses --      1.2704                 1.2763                 1.2279
 Frc consts  --      1.1712                 1.2213                 1.2454
 IR Inten    --      3.8565                 0.8547                 1.9337

                     46                     47                     48
                      A                      A                      A
 Frequencies --   1327.7785              1338.6239              1356.7399
 Red. masses --      1.2325                 1.2570                 1.1984
 Frc consts  --      1.2802                 1.3271                 1.2997
 IR Inten    --      4.0688                 5.9975                 4.2936

                     49                     50                     51
                      A                      A                      A
 Frequencies --   1375.1041              1386.2864              1401.1050
 Red. masses --      1.2361                 1.3420                 1.3955
 Frc consts  --      1.3772                 1.5195                 1.6141
 IR Inten    --     11.5901                10.5981                10.3486

                     52                     53                     54
                      A                      A                      A
 Frequencies --   1406.8823              1418.2892              1433.0621
 Red. masses --      1.3817                 1.3128                 1.3119
 Frc consts  --      1.6113                 1.5559                 1.5873
 IR Inten    --      1.6932                 3.1827                 2.8673

                     55                     56                     57
                      A                      A                      A
 Frequencies --   1446.2783              1475.3126              1498.1936
 Red. masses --      1.2646                 1.1850                 1.1137
 Frc consts  --      1.5585                 1.5196                 1.4729
 IR Inten    --      2.4891                 4.2430                 6.6210

                     58                     59                     60
                      A                      A                      A
 Frequencies --   1502.2126              1505.1570              1510.0955
 Red. masses --      1.1191                 1.0900                 1.1493
 Frc consts  --      1.4879                 1.4549                 1.5442
 IR Inten    --      0.6985                 1.8929                18.0798

                     61                     62                     63
                      A                      A                      A
 Frequencies --   1519.8767              1529.4031              1532.2826
 Red. masses --      1.1881                 1.0503                 1.0780
 Frc consts  --      1.6171                 1.4475                 1.4912
 IR Inten    --     23.2960                 8.0175                 8.4276

                     64                     65                     66
                      A                      A                      A
 Frequencies --   1542.6430              1546.4367              1557.6102
 Red. masses --      1.0876                 1.0961                 1.0784
 Frc consts  --      1.5249                 1.5444                 1.5416
 IR Inten    --      7.2062                10.4244                 8.9514

                     67                     68                     69
                      A                      A                      A
 Frequencies --   1725.0448              2950.2454              2968.5486
 Red. masses --      4.3676                 1.0726                 1.0720
 Frc consts  --      7.6577                 5.5004                 5.5660
 IR Inten    --      3.7504                38.0501                72.7617

                     70                     71                     72
                      A                      A                      A
 Frequencies --   3030.4627              3034.9935              3036.3319
 Red. masses --      1.0672                 1.0651                 1.0596
 Frc consts  --      5.7745                 5.7805                 5.7554
 IR Inten    --     19.7226                11.0726                41.0370

                     73                     74                     75
                      A                      A                      A
 Frequencies --   3040.8603              3046.7624              3050.7866
 Red. masses --      1.0656                 1.0381                 1.0842
 Frc consts  --      5.8057                 5.6779                 5.9457
 IR Inten    --     27.8679                21.8246                55.8316

                     76                     77                     78
                      A                      A                      A
 Frequencies --   3058.0766              3065.2665              3077.4471
 Red. masses --      1.0856                 1.0940                 1.1047
 Frc consts  --      5.9818                 6.0561                 6.1643
 IR Inten    --     81.8892                41.7069                25.1083

                     79                     80                     81
                      A                      A                      A
 Frequencies --   3085.8837              3097.6141              3109.8978
 Red. masses --      1.1016                 1.1024                 1.1014
 Frc consts  --      6.1807                 6.2320                 6.2761
 IR Inten    --     42.1445                36.1363                41.7193

                     82                     83                     84
                      A                      A                      A
 Frequencies --   3117.7921              3149.7429              3159.8694
 Red. masses --      1.1012                 1.0601                 1.0898
 Frc consts  --      6.3069                 6.1962                 6.4110
 IR Inten    --     47.4489                19.9075                 7.2594

                     85                     86                     87
                      A                      A                      A
 Frequencies --   3232.8763              3484.9821              3516.3139
 Red. masses --      1.1153                 1.0726                 1.0733
 Frc consts  --      6.8678                 7.6750                 7.8192
 IR Inten    --     18.4624                 1.5690                 1.3747

 - Thermochemistry -
 -------------------
 Temperature   298.150 Kelvin.  Pressure   1.00000 Atm.
 Atom     1 has atomic number  6 and mass  12.00000

 Molecular mass:   156.16265 amu.
 Principal axes and moments of inertia in atomic units:
                           1         2         3
     Eigenvalues --  1596.380192539.617173708.99446
           X            0.99980   0.02018   0.00003
           Y           -0.02017   0.99974  -0.01106
           Z           -0.00025   0.01106   0.99994
 This molecule is an asymmetric top.
 Rotational symmetry number  1.
 Warning -- assumption of classical behavior for rotation
           may cause significant error
 Rotational temperatures (Kelvin)      0.05426     0.03411     0.02335
 Rotational constants (GHZ):           1.13052     0.71064     0.48659
 Zero-point vibrational energy     757008.5 (Joules/Mol)
                                  180.92938 (Kcal/Mol)
 Warning -- explicit consideration of  18 degrees of freedom as
           vibrations may cause significant error
 Vibrational temperatures:     37.40    61.06    65.95    98.35   119.75
          (Kelvin)            198.39   239.91   302.28   332.69   382.64
                              396.25   411.09   477.37   510.57   572.54
                              652.36   734.01   826.43   989.78  1039.44
                             1083.93  1136.93  1187.20  1193.88  1260.80
                             1286.73  1342.83  1360.67  1389.38  1405.98
                             1424.46  1479.66  1490.16  1558.58  1568.54
                             1602.24  1631.91  1660.88  1679.40  1698.77
                             1712.43  1790.61  1799.73  1833.65  1887.75
                             1910.38  1925.98  1952.05  1978.47  1994.56
                             2015.88  2024.19  2040.60  2061.86  2080.87
                             2122.65  2155.57  2161.35  2165.59  2172.69
                             2186.76  2200.47  2204.61  2219.52  2224.98
                             2241.05  2481.95  4244.75  4271.08  4360.16
                             4366.68  4368.60  4375.12  4383.61  4389.40
                             4399.89  4410.23  4427.76  4439.90  4456.78
                             4474.45  4485.81  4531.78  4546.35  4651.39
                             5014.11  5059.19

 Zero-point correction=                           0.288329 (Hartree/Particle)
 Thermal correction to Energy=                    0.301985
 Thermal correction to Enthalpy=                  0.302929
 Thermal correction to Gibbs Free Energy=         0.246442
 Sum of electronic and zero-point Energies=           -464.219515
 Sum of electronic and thermal Energies=              -464.205860
 Sum of electronic and thermal Enthalpies=            -464.204916
 Sum of electronic and thermal Free Energies=         -464.261402

                     E (Thermal)             CV                S
                      KCal/Mol        Cal/Mol-Kelvin    Cal/Mol-Kelvin
 Total                  189.498             49.374            118.886
 Electronic               0.000              0.000              0.000
 Translational            0.889              2.981             41.047
 Rotational               0.889              2.981             31.087
 Vibrational            187.721             43.413             46.753
 Vibration     1          0.593              1.985              6.114
 Vibration     2          0.595              1.980              5.142
 Vibration     3          0.595              1.979              4.989
 Vibration     4          0.598              1.969              4.200
 Vibration     5          0.600              1.961              3.813
 Vibration     6          0.614              1.915              2.833
 Vibration     7          0.624              1.883              2.472
 Vibration     8          0.642              1.825              2.043
 Vibration     9          0.653              1.793              1.869
 Vibration    10          0.672              1.736              1.622
 Vibration    11          0.677              1.719              1.562
 Vibration    12          0.684              1.700              1.499
 Vibration    13          0.714              1.612              1.251
 Vibration    14          0.731              1.565              1.145
 Vibration    15          0.764              1.475              0.970
 Vibration    16          0.812              1.353              0.786
 Vibration    17          0.865              1.227              0.633
 Vibration    18          0.931              1.087              0.496

 Optimization completed.
    -- Stationary point found.

 1\1\GINC-NODE127\Freq\RB3LYP\6-31G(d)\C9H20N2\VSC10255\08-Dec-2020\0\\
 #N Geom=AllCheck Guess=TCheck SCRF=Check GenChk RB3LYP/6-31G(d) Freq\\
 CID_79278630_JID_1901_neutraal\\0,1\C,0.8473621294,0.1446420373,-0.027
 6778836\C,0.2511362018,-1.2635756533,-0.1263776039\C,0.6585089106,-2.2
 031150212,1.0212816109\C,0.2213386447,-1.7424738635,2.4140349053\N,-1.
 2330807391,-1.7547328097,2.5451348299\C,-1.7526120592,-1.2855015913,3.
 8276253485\C,-1.3252967483,0.1275760219,4.2570064169\N,-1.7103087607,1
 .1040098229,3.2410252466\C,-1.2546760208,2.4761043284,3.4996040016\C,0

 Normal termination of Gaussian 16 at Tue Dec  8 21:43:02 2020.

 ----------------------------------------------------------------------
 # B3LYP/6-311++G(d,p) empiricaldispersion=gd3bj scf=xqc pop=npa geom=c
 heck
 ----------------------------------------------------------------------

 --------------------------------------
 CID_79278630_JID_1901_Energie_neutraal
 --------------------------------------
 Structure from the checkpoint file:  "JID_1901.chk"
 Charge =  0 Multiplicity = 1

 SCF Done:  E(RB3LYP) =  -464.648207761     A.U. after   13 cycles
 Normal termination of Gaussian 16 at Tue Dec  8 21:47:25 2020.

 ----------------------------------------------------------------------
 # B3LYP/6-311++G(d,p) empiricaldispersion=gd3bj scf=xqc pop=npa geom=c
 heck
 ----------------------------------------------------------------------

 ------------------------------------
 CID_79278630_JID_1901_Energie_kation
 ------------------------------------
 Structure from the checkpoint file:  "JID_1901.chk"
 Charge =  1 Multiplicity = 2

 SCF Done:  E(UB3LYP) =  -464.356370098     A.U. after   20 cycles
 Normal termination of Gaussian 16 at Tue Dec  8 21:54:34 2020.
 Gaussian 16:  ES64L-G16RevA.03 25-Dec-2016

 -----------------------------------
 CID_79278630_JID_1901_Energie_anion
 -----------------------------------
 Structure from the checkpoint file:  "JID_1901.chk"
 Charge = -1 Multiplicity = 2

                         Standard orientation:
 ---------------------------------------------------------------------
 Center     Atomic      Atomic             Coordinates (Angstroms)
 Number     Number       Type             X           Y           Z
 ---------------------------------------------------------------------
      1          6           0        1.301499    2.323960   -0.324943
      2          6           0        2.487121    1.402221   -0.629905
      3          6           0        2.815384    0.403867    0.493190
      4          6           0        1.691774   -0.581172    0.825260
      5          7           0        1.434528   -1.488688   -0.289600
      6          6           0        0.344206   -2.440022   -0.087032
      7          6           0       -1.026634   -1.837241    0.261116
      8          7           0       -1.446343   -0.899570   -0.777389
      9          6           0       -2.696432   -0.182874   -0.493255
     10          6           0       -2.583859    0.850796    0.599894
     11          6           0       -2.736817    2.162009    0.407064
     12          1           0        0.361099    1.774792   -0.204022
     13          1           0        1.152715    3.052753   -1.129467
     14          1           0        1.469484    2.882490    0.604185
     15          1           0        2.305002    0.864080   -1.570901
     16          1           0        3.378329    2.015104   -0.816142
     17          1           0        3.708546   -0.170288    0.218359
     18          1           0        3.059939    0.966898    1.404215
     19          1           0        1.992351   -1.195299    1.684715
     20          1           0        0.799577   -0.016318    1.151122
     21          1           0        1.277494   -0.965059   -1.146741
     22          1           0        0.248176   -3.027673   -1.006683
     23          1           0        0.636790   -3.129213    0.716450
     24          1           0       -1.766272   -2.647168    0.310188
     25          1           0       -0.984811   -1.390424    1.270244
     26          1           0       -0.711624   -0.205089   -0.905038
     27          1           0       -3.031932    0.303163   -1.417936
     28          1           0       -3.453151   -0.936042   -0.235549
     29          1           0       -2.323049    0.484758    1.592828
     30          1           0       -2.615102    2.882910    1.211057
     31          1           0       -2.998304    2.564172   -0.570286
 ---------------------------------------------------------------------

 SCF Done:  E(UB3LYP) =  -464.630444902     A.U. after   33 cycles
 SCF Done:  E(UB3LYP) =  -464.630444902     a.u. after    1 cycles

 The electronic state is 2-A.
 Alpha  occ. eigenvalues --  -14.20227 -14.19780 -10.09928 -10.09298 -10.08975
 Alpha  occ. eigenvalues --  -10.08697 -10.07619 -10.06864 -10.06620 -10.06267
 Alpha  occ. eigenvalues --  -10.05378  -0.82245  -0.79515  -0.69300  -0.68096
 Alpha  occ. eigenvalues --   -0.63383  -0.60181  -0.56134  -0.53886  -0.50050
 Alpha  occ. eigenvalues --   -0.46598  -0.46307  -0.40483  -0.39198  -0.37609
 Alpha  occ. eigenvalues --   -0.36817  -0.34717  -0.34363  -0.33952  -0.32828
 Alpha  occ. eigenvalues --   -0.29921  -0.29291  -0.28644  -0.28214  -0.26704
 Alpha  occ. eigenvalues --   -0.26449  -0.25418  -0.25295  -0.23046  -0.22532
 Alpha  occ. eigenvalues --   -0.22434  -0.17519  -0.13509  -0.12374   0.04708
 Alpha virt. eigenvalues --    0.06660   0.07122   0.07564   0.08689   0.08846
 Alpha virt. eigenvalues --    0.09222   0.09711   0.09759   0.10027   0.11192
 Alpha virt. eigenvalues --    0.11715   0.12207   0.12635   0.12687   0.13386

  Beta  occ. eigenvalues --  -14.20219 -14.19776 -10.09912 -10.09285 -10.08955
  Beta  occ. eigenvalues --  -10.08678 -10.07605 -10.06831 -10.06604 -10.06251
  Beta  occ. eigenvalues --  -10.05346  -0.82227  -0.79499  -0.69264  -0.68058
  Beta  occ. eigenvalues --   -0.63345  -0.60137  -0.56084  -0.53825  -0.49998
  Beta  occ. eigenvalues --   -0.46529  -0.46242  -0.40454  -0.39166  -0.37575
  Beta  occ. eigenvalues --   -0.36781  -0.34679  -0.34313  -0.33907  -0.32795
  Beta  occ. eigenvalues --   -0.29881  -0.29259  -0.28606  -0.28172  -0.26668
  Beta  occ. eigenvalues --   -0.26403  -0.25391  -0.25262  -0.23011  -0.22493
  Beta  occ. eigenvalues --   -0.22397  -0.17462  -0.13491  -0.12360
  Beta virt. eigenvalues --    0.06880   0.07534   0.07808   0.08053   0.08952
  Beta virt. eigenvalues --    0.09371   0.09629   0.10122   0.10212   0.10362
  Beta virt. eigenvalues --    0.11811   0.12062   0.12580   0.12912   0.13059

 Mulliken charges and spin densities:
               1          2
     1  C    0.242782  -0.710705
     2  C   -0.583935   0.392963
     3  C    0.559409  -0.979856
     4  C    0.028256  -0.337058
     5  N   -0.106599   0.058401
     6  C   -0.040020  -0.444418
     7  C    0.239145  -0.526742
     8  N   -0.039042   0.081369
     9  C    0.458518  -1.171417
    10  C   -0.262839   0.699011
    11  C    0.271383  -0.782112
    12  H    1.020696  -0.933437
    13  H   -0.443539   0.582802
    14  H   -0.283124   0.424531
    15  H   -0.149673   0.268790
    16  H   -0.314341   0.480069
    17  H    0.124426   0.028445
    18  H   -0.348403   0.499671
    19  H   -0.379030   0.544379
    20  H    0.231721  -0.120986
    21  H    0.241028  -0.033512
    22  H    0.077825   0.087897
    23  H   -0.193835   0.344143
    24  H   -0.299486   0.451960
    25  H    0.115483  -0.022588
    26  H    0.188107   0.051612
    27  H   -0.256363   0.411762
    28  H   -0.101884   0.245821
    29  H   -0.676529   0.845333
    30  H   -0.097592   0.221479
    31  H   -0.222544   0.342393
 Sum of Mulliken charges =  -1.00000   1.00000

 Dipole moment (field-independent basis, Debye):
    X=             -0.1870    Y=             -2.6492    Z=             -1.9223  Tot=              3.2784
 Quadrupole moment (field-independent basis, Debye-Ang):
   XX=           -132.8885   YY=           -127.5078   ZZ=           -110.1598
   XY=             -4.8627   XZ=             -0.5840   YZ=              1.9818

 Summary of Natural Population Analysis:

                                       Natural Population
                Natural  -----------------------------------------------
    Atom  No    Charge         Core      Valence    Rydberg      Total
 -----------------------------------------------------------------------
      C    1   -0.28860      0.99966     2.28279    0.00615     3.28860
      C    2   -0.19221      0.99964     2.18424    0.00833     3.19221
      C    3   -0.19111      0.99962     2.18237    0.00911     3.19111
      C    4   -0.09169      0.99962     2.08096    0.01111     3.09169
      N    5   -0.34183      0.99975     2.83111    0.01097     3.84183
      C    6   -0.08730      0.99963     2.07517    0.01251     3.08730
      C    7   -0.09778      0.99962     2.08774    0.01042     3.09778
      N    8   -0.33914      0.99975     2.82781    0.01158     3.83914
      C    9   -0.10332      0.99960     2.09103    0.01268     3.10332
      C   10   -0.09910      0.99956     2.08908    0.01045     3.09910
      C   11   -0.18343      0.99956     2.17667    0.00720     3.18343
      H   12    0.09544      0.00000     0.40251    0.00205     0.40456
      H   13    0.09970      0.00000     0.39903    0.00127     0.40030
      H   14    0.09808      0.00000     0.40053    0.00139     0.40192
      H   15    0.08808      0.00000     0.41068    0.00123     0.41192
      H   16    0.09790      0.00000     0.40076    0.00134     0.40210
      H   17    0.09764      0.00000     0.40102    0.00134     0.40236
      H   18    0.09800      0.00000     0.40079    0.00122     0.40200
      H   19    0.09303      0.00000     0.40558    0.00139     0.40697
      H   20    0.08056      0.00000     0.41675    0.00269     0.41944
      H   21    0.16989      0.00000     0.32661    0.00350     0.33011
      H   22    0.09371      0.00000     0.40523    0.00106     0.40629
      H   23    0.09164      0.00000     0.40733    0.00104     0.40836
      H   24    0.09341      0.00000     0.40485    0.00173     0.40659
      H   25    0.08065      0.00000     0.41727    0.00208     0.41935
      H   26    0.16864      0.00000     0.32622    0.00514     0.33136
      H   27    0.09404      0.00000     0.40473    0.00123     0.40596
      H   28    0.09616      0.00000     0.40233    0.00151     0.40384
      H   29    0.09434      0.00000     0.40411    0.00155     0.40566
      H   30    0.09563      0.00000     0.40299    0.00138     0.40437
      H   31    0.08897      0.00000     0.40940    0.00163     0.41103
 =======================================================================
   * Total *   -0.00000     10.99602    32.85770    0.14628    44.00000

 Normal termination of Gaussian 16 at Tue Dec  8 22:06:00 2020.
