 Gaussian 16, Revision A.03,

 -----------------------------------------------------------
 # opt freq B3LYP/6-31G(d) empiricaldispersion=gd3bj scf=xqc
 -----------------------------------------------------------

 ------------------------------
 CID_81300775_JID_6603_neutraal
 ------------------------------
 Symbolic Z-matrix:
 Charge =  0 Multiplicity = 1

 SCF Done:  E(RB3LYP) =  -659.917555497     A.U. after   12 cycles
 SCF Done:  E(RB3LYP) =  -659.921825567     A.U. after   11 cycles
 SCF Done:  E(RB3LYP) =  -659.919166949     A.U. after   11 cycles
 SCF Done:  E(RB3LYP) =  -659.922485337     A.U. after   10 cycles
 SCF Done:  E(RB3LYP) =  -659.923164996     A.U. after   10 cycles
 SCF Done:  E(RB3LYP) =  -659.923489867     A.U. after   10 cycles
 SCF Done:  E(RB3LYP) =  -659.923543956     A.U. after    9 cycles
 SCF Done:  E(RB3LYP) =  -659.923557148     A.U. after    8 cycles
 SCF Done:  E(RB3LYP) =  -659.923559695     A.U. after    8 cycles
 SCF Done:  E(RB3LYP) =  -659.923560788     A.U. after    7 cycles
 SCF Done:  E(RB3LYP) =  -659.923560931     A.U. after    6 cycles
 Optimization completed.
    -- Stationary point found.
 Normal termination of Gaussian 16 at Thu Dec 10 22:40:56 2020.

 --------------------------------------------------------------------
 #N Geom=AllCheck Guess=TCheck SCRF=Check GenChk RB3LYP/6-31G(d) Freq
 --------------------------------------------------------------------

 Structure from the checkpoint file:  "JID_6603.chk"
 ------------------------------
 CID_81300775_JID_6603_neutraal
 ------------------------------
 Charge =  0 Multiplicity = 1

 SCF Done:  E(RB3LYP) =  -659.923560931     A.U. after    1 cycles

  Exact polarizability: 182.287  -2.649 150.656  -2.574  -1.032 133.152
 Approx polarizability: 222.728  -1.975 211.363  -4.379  -1.682 212.531

                      1                      2                      3
                      A                      A                      A
 Frequencies --     48.1332                59.3065                79.1646
 Red. masses --      3.3444                 3.1750                 3.1721
 Frc consts  --      0.0046                 0.0066                 0.0117
 IR Inten    --      0.1042                 0.3513                 0.2547

                      4                      5                      6
                      A                      A                      A
 Frequencies --    110.1976               139.4473               155.3599
 Red. masses --      2.9294                 3.8862                 2.7090
 Frc consts  --      0.0210                 0.0445                 0.0385
 IR Inten    --      0.1786                 0.1221                 0.1287

                      7                      8                      9
                      A                      A                      A
 Frequencies --    190.5295               220.3999               222.2449
 Red. masses --      2.5709                 1.8374                 1.5558
 Frc consts  --      0.0550                 0.0526                 0.0453
 IR Inten    --      0.1776                 1.3504                 0.5805

                     10                     11                     12
                      A                      A                      A
 Frequencies --    249.3909               256.3098               256.9629
 Red. masses --      1.5260                 1.2428                 1.1032
 Frc consts  --      0.0559                 0.0481                 0.0429
 IR Inten    --      1.9165                 0.7649                 0.4676

                     13                     14                     15
                      A                      A                      A
 Frequencies --    291.4211               298.6769               325.3366
 Red. masses --      2.2081                 2.0071                 2.2496
 Frc consts  --      0.1105                 0.1055                 0.1403
 IR Inten    --      0.2442                 0.3044                 0.3153

                     16                     17                     18
                      A                      A                      A
 Frequencies --    339.7987               358.8793               405.7587
 Red. masses --      2.0499                 1.9479                 3.1052
 Frc consts  --      0.1395                 0.1478                 0.3012
 IR Inten    --      0.1673                 1.9000                 0.3771

                     19                     20                     21
                      A                      A                      A
 Frequencies --    428.3978               432.4446               444.8625
 Red. masses --      3.1103                 2.1112                 2.3453
 Frc consts  --      0.3363                 0.2326                 0.2735
 IR Inten    --      1.8974                 2.1326                 3.0477

                     22                     23                     24
                      A                      A                      A
 Frequencies --    456.0958               480.1548               522.8670
 Red. masses --      2.0911                 2.0592                 2.5346
 Frc consts  --      0.2563                 0.2797                 0.4083
 IR Inten    --      4.8087                 5.4220                 9.0177

                     25                     26                     27
                      A                      A                      A
 Frequencies --    545.0747               582.0830               606.7153
 Red. masses --      2.4594                 2.6383                 2.4724
 Frc consts  --      0.4305                 0.5267                 0.5362
 IR Inten    --      6.8826                 0.1951                 1.7932

                     28                     29                     30
                      A                      A                      A
 Frequencies --    675.6032               715.1275               738.0942
 Red. masses --      2.1803                 3.1182                 2.1573
 Frc consts  --      0.5863                 0.9396                 0.6924
 IR Inten    --     51.2966                 6.1067                 1.7135

                     31                     32                     33
                      A                      A                      A
 Frequencies --    775.3354               788.4017               824.7734
 Red. masses --      2.7433                 2.3981                 1.7730
 Frc consts  --      0.9716                 0.8782                 0.7106
 IR Inten    --      5.4225                 1.1525                 1.9151

                     34                     35                     36
                      A                      A                      A
 Frequencies --    844.6123               857.9546               866.6547
 Red. masses --      2.0978                 2.7324                 1.8235
 Frc consts  --      0.8817                 1.1850                 0.8069
 IR Inten    --      0.5370                 2.1182                 0.9673

                     37                     38                     39
                      A                      A                      A
 Frequencies --    894.0144               902.3693               934.7957
 Red. masses --      2.2314                 1.4945                 1.9153
 Frc consts  --      1.0508                 0.7170                 0.9861
 IR Inten    --      3.3507                 1.1960                 3.0734

                     40                     41                     42
                      A                      A                      A
 Frequencies --    957.3946               979.5157               985.9381
 Red. masses --      2.1804                 2.0248                 1.6340
 Frc consts  --      1.1775                 1.1446                 0.9358
 IR Inten    --      4.8145                 4.5205                 1.5892

                     43                     44                     45
                      A                      A                      A
 Frequencies --   1000.8669              1015.2702              1031.2225
 Red. masses --      1.8696                 1.5272                 2.0652
 Frc consts  --      1.1034                 0.9275                 1.2939
 IR Inten    --      2.5516                 7.1183                16.3415

                     46                     47                     48
                      A                      A                      A
 Frequencies --   1045.3445              1048.9592              1067.1942
 Red. masses --      1.9360                 1.7523                 1.7469
 Frc consts  --      1.2464                 1.1360                 1.1722
 IR Inten    --      1.9100                 2.8665                12.0521

                     49                     50                     51
                      A                      A                      A
 Frequencies --   1096.2457              1100.5165              1105.8252
 Red. masses --      1.9064                 2.0697                 2.0315
 Frc consts  --      1.3498                 1.4769                 1.4637
 IR Inten    --      8.9913                13.9654                10.2223

                     52                     53                     54
                      A                      A                      A
 Frequencies --   1116.2870              1126.6101              1137.8870
 Red. masses --      1.3792                 2.5715                 1.6551
 Frc consts  --      1.0125                 1.9231                 1.2626
 IR Inten    --      4.0150                 1.9819                15.8505

                     55                     56                     57
                      A                      A                      A
 Frequencies --   1142.4507              1166.4863              1168.9661
 Red. masses --      1.7294                 1.4529                 1.5653
 Frc consts  --      1.3299                 1.1648                 1.2602
 IR Inten    --      7.0824                17.7208                13.4778

                     58                     59                     60
                      A                      A                      A
 Frequencies --   1180.1740              1198.8494              1219.8952
 Red. masses --      1.5538                 2.1185                 2.2242
 Frc consts  --      1.2751                 1.7940                 1.9502
 IR Inten    --      3.7746                15.4662                34.8000

                     61                     62                     63
                      A                      A                      A
 Frequencies --   1254.4047              1266.1468              1282.1696
 Red. masses --      1.6028                 1.6754                 1.3290
 Frc consts  --      1.4859                 1.5825                 1.2873
 IR Inten    --     20.4855                12.6168                 5.7584

                     64                     65                     66
                      A                      A                      A
 Frequencies --   1292.2496              1311.5119              1324.5919
 Red. masses --      1.2246                 1.7315                 1.2813
 Frc consts  --      1.2049                 1.7548                 1.3246
 IR Inten    --      0.9755                21.5002                12.5779

                     67                     68                     69
                      A                      A                      A
 Frequencies --   1330.1439              1353.0365              1354.5826
 Red. masses --      1.3581                 1.3127                 1.3820
 Frc consts  --      1.4157                 1.4159                 1.4940
 IR Inten    --     22.0801                 1.0783                 2.5619

                     70                     71                     72
                      A                      A                      A
 Frequencies --   1361.1821              1374.5057              1381.7075
 Red. masses --      1.3923                 1.3845                 1.3170
 Frc consts  --      1.5199                 1.5411                 1.4813
 IR Inten    --      0.3916                 0.5075                 0.2113

                     73                     74                     75
                      A                      A                      A
 Frequencies --   1384.6554              1389.2906              1399.0542
 Red. masses --      1.4368                 1.4329                 1.3349
 Frc consts  --      1.6230                 1.6294                 1.5394
 IR Inten    --      1.8327                 6.0065                 5.4886

                     76                     77                     78
                      A                      A                      A
 Frequencies --   1400.0383              1407.2084              1409.9246
 Red. masses --      1.4425                 1.3826                 1.2960
 Frc consts  --      1.6658                 1.6131                 1.5180
 IR Inten    --      0.3089                 1.2070                 4.4712

                     79                     80                     81
                      A                      A                      A
 Frequencies --   1422.1272              1426.1353              1430.5557
 Red. masses --      1.4887                 1.3661                 1.2717
 Frc consts  --      1.7739                 1.6370                 1.5334
 IR Inten    --      2.0294                21.5885                 6.0148

                     82                     83                     84
                      A                      A                      A
 Frequencies --   1438.5255              1442.9664              1484.2799
 Red. masses --      1.2702                 1.2590                 1.1721
 Frc consts  --      1.5487                 1.5446                 1.5214
 IR Inten    --     16.5885                 5.5126                 0.5270

                     85                     86                     87
                      A                      A                      A
 Frequencies --   1500.3806              1504.4753              1511.3427
 Red. masses --      1.0826                 1.0763                 1.0830
 Frc consts  --      1.4359                 1.4354                 1.4574
 IR Inten    --      2.7265                16.2243                12.2642

                     88                     89                     90
                      A                      A                      A
 Frequencies --   1515.4994              1517.2620              1520.1774
 Red. masses --      1.0675                 1.1063                 1.0839
 Frc consts  --      1.4446                 1.5006                 1.4758
 IR Inten    --      7.1566                 0.0593                 2.3019

                     91                     92                     93
                      A                      A                      A
 Frequencies --   1522.9599              1526.2271              1530.5393
 Red. masses --      1.0553                 1.0762                 1.0944
 Frc consts  --      1.4422                 1.4770                 1.5105
 IR Inten    --     10.7195                 4.8614                 9.5894

                     94                     95                     96
                      A                      A                      A
 Frequencies --   1531.5543              1537.8817              1539.9484
 Red. masses --      1.0947                 1.0597                 1.0616
 Frc consts  --      1.5129                 1.4766                 1.4833
 IR Inten    --      1.4521                 1.4382                14.0529

                     97                     98                     99
                      A                      A                      A
 Frequencies --   1547.6416              1552.0074              2956.7733
 Red. masses --      1.0513                 1.1811                 1.0601
 Frc consts  --      1.4836                 1.6762                 5.4605
 IR Inten    --      0.5175                14.0907                65.1987

                    100                    101                    102
                      A                      A                      A
 Frequencies --   2995.0491              3012.9177              3017.6557
 Red. masses --      1.0818                 1.0717                 1.0785
 Frc consts  --      5.7173                 5.7317                 5.7866
 IR Inten    --     21.8679                14.9561                 2.7472

                    103                    104                    105
                      A                      A                      A
 Frequencies --   3023.2799              3029.9346              3030.3261
 Red. masses --      1.0653                 1.0820                 1.0607
 Frc consts  --      5.7372                 5.8525                 5.7386
 IR Inten    --     29.4999                23.9345                16.3699

                    106                    107                    108
                      A                      A                      A
 Frequencies --   3034.0560              3041.7459              3043.3411
 Red. masses --      1.0676                 1.0387                 1.0711
 Frc consts  --      5.7902                 5.6624                 5.8452
 IR Inten    --     42.6605                27.4077                65.0263

                    109                    110                    111
                      A                      A                      A
 Frequencies --   3051.7313              3056.5674              3064.3657
 Red. masses --      1.0613                 1.0697                 1.0444
 Frc consts  --      5.8233                 5.8884                 5.7785
 IR Inten    --     32.0288                45.9052                 7.1089

                    112                    113                    114
                      A                      A                      A
 Frequencies --   3068.3938              3068.5938              3071.2965
 Red. masses --      1.0927                 1.0767                 1.0918
 Frc consts  --      6.0616                 5.9735                 6.0679
 IR Inten    --     98.5304                29.7949                69.2194

                    115                    116                    117
                      A                      A                      A
 Frequencies --   3075.5006              3075.8586              3089.4486
 Red. masses --      1.0991                 1.1025                 1.0996
 Frc consts  --      6.1249                 6.1456                 6.1835
 IR Inten    --     13.0527                92.5905                73.1847

                    118                    119                    120
                      A                      A                      A
 Frequencies --   3099.5407              3104.4037              3110.6306
 Red. masses --      1.1011                 1.0934                 1.0854
 Frc consts  --      6.2328                 6.2087                 6.1879
 IR Inten    --     53.3566                33.2385                43.9507

                    121                    122                    123
                      A                      A                      A
 Frequencies --   3112.3092              3118.2021              3127.8087
 Red. masses --      1.1031                 1.0950                 1.1013
 Frc consts  --      6.2953                 6.2728                 6.3482
 IR Inten    --     39.0148                16.7867                32.2002

                    124                    125                    126
                      A                      A                      A
 Frequencies --   3130.4525              3157.3132              3530.1457
 Red. masses --      1.0998                 1.0964                 1.0737
 Frc consts  --      6.3503                 6.4396                 7.8838
 IR Inten    --     26.8345                31.9867                 0.2775

 - Thermochemistry -
 -------------------
 Temperature   298.150 Kelvin.  Pressure   1.00000 Atm.
 Atom     1 has atomic number  6 and mass  12.00000

 Molecular mass:   224.22525 amu.
 Principal axes and moments of inertia in atomic units:
                           1         2         3
     Eigenvalues --  1810.900205646.158676402.24174
           X            0.99999  -0.00035  -0.00344
           Y            0.00034   1.00000  -0.00211
           Z            0.00344   0.00210   0.99999
 This molecule is an asymmetric top.
 Rotational symmetry number  1.
 Warning -- assumption of classical behavior for rotation
           may cause significant error
 Rotational temperatures (Kelvin)      0.04783     0.01534     0.01353
 Rotational constants (GHZ):           0.99660     0.31964     0.28189
 Zero-point vibrational energy    1087358.7 (Joules/Mol)
                                  259.88497 (Kcal/Mol)
 Warning -- explicit consideration of  27 degrees of freedom as
           vibrations may cause significant error
 Vibrational temperatures:     69.25    85.33   113.90   158.55   200.63
          (Kelvin)            223.53   274.13   317.11   319.76   358.82
                              368.77   369.71   419.29   429.73   468.09
                              488.89   516.35   583.80   616.37   622.19
                              640.06   656.22   690.84   752.29   784.24
                              837.49   872.93   972.04  1028.91  1061.95
                             1115.53  1134.33  1186.66  1215.21  1234.41
                             1246.92  1286.29  1298.31  1344.96  1377.48
                             1409.30  1418.54  1440.02  1460.75  1483.70
                             1504.02  1509.22  1535.45  1577.25  1583.40
                             1591.04  1606.09  1620.94  1637.17  1643.73
                             1678.31  1681.88  1698.01  1724.88  1755.16
                             1804.81  1821.70  1844.76  1859.26  1886.97
                             1905.79  1913.78  1946.72  1948.94  1958.44
                             1977.61  1987.97  1992.21  1998.88  2012.93
                             2014.34  2024.66  2028.57  2046.12  2051.89
                             2058.25  2069.72  2076.11  2135.55  2158.71
                             2164.60  2174.49  2180.47  2183.00  2187.20
                             2191.20  2195.90  2202.10  2203.57  2212.67
                             2215.64  2226.71  2232.99  4254.14  4309.21
                             4334.92  4341.73  4349.83  4359.40  4359.96
                             4365.33  4376.39  4378.69  4390.76  4397.72
                             4408.94  4414.73  4415.02  4418.91  4424.96
                             4425.47  4445.03  4459.55  4466.54  4475.50
                             4477.92  4486.40  4500.22  4504.02  4542.67
                             5079.09

 Zero-point correction=                           0.414153 (Hartree/Particle)
 Thermal correction to Energy=                    0.430575
 Thermal correction to Enthalpy=                  0.431519
 Thermal correction to Gibbs Free Energy=         0.371696
 Sum of electronic and zero-point Energies=           -659.509408
 Sum of electronic and thermal Energies=              -659.492986
 Sum of electronic and thermal Enthalpies=            -659.492042
 Sum of electronic and thermal Free Energies=         -659.551864

                     E (Thermal)             CV                S
                      KCal/Mol        Cal/Mol-Kelvin    Cal/Mol-Kelvin
 Total                  270.190             66.786            125.908
 Electronic               0.000              0.000              0.000
 Translational            0.889              2.981             42.125
 Rotational               0.889              2.981             32.548
 Vibrational            268.413             60.824             51.235
 Vibration     1          0.595              1.978              4.893
 Vibration     2          0.597              1.974              4.480
 Vibration     3          0.600              1.963              3.911
 Vibration     4          0.606              1.941              3.265
 Vibration     5          0.615              1.914              2.811
 Vibration     6          0.620              1.897              2.606
 Vibration     7          0.634              1.853              2.223
 Vibration     8          0.647              1.810              1.956
 Vibration     9          0.648              1.807              1.941
 Vibration    10          0.662              1.764              1.735
 Vibration    11          0.666              1.752              1.687
 Vibration    12          0.667              1.751              1.682
 Vibration    13          0.687              1.690              1.466
 Vibration    14          0.692              1.676              1.424
 Vibration    15          0.709              1.625              1.283
 Vibration    16          0.720              1.596              1.213
 Vibration    17          0.734              1.557              1.127
 Vibration    18          0.771              1.458              0.942
 Vibration    19          0.790              1.408              0.864
 Vibration    20          0.793              1.400              0.851
 Vibration    21          0.804              1.372              0.811
 Vibration    22          0.814              1.347              0.778
 Vibration    23          0.837              1.294              0.710
 Vibration    24          0.878              1.199              0.603
 Vibration    25          0.900              1.150              0.554
 Vibration    26          0.939              1.070              0.482
 Vibration    27          0.965              1.018              0.438

                           ! Non-Optimized Parameters !
 Normal termination of Gaussian 16 at Thu Dec 10 22:59:07 2020.

 ----------------------------------------------------------------------
 # B3LYP/6-311++G(d,p) empiricaldispersion=gd3bj scf=xqc pop=npa geom=c
 heck
 ----------------------------------------------------------------------

 --------------------------------------
 CID_81300775_JID_6603_Energie_neutraal
 --------------------------------------
 Structure from the checkpoint file:  "JID_6603.chk"
 Charge =  0 Multiplicity = 1

 SCF Done:  E(RB3LYP) =  -660.103897555     A.U. after   14 cycles
 Normal termination of Gaussian 16 at Thu Dec 10 23:07:37 2020.

 ----------------------------------------------------------------------
 # B3LYP/6-311++G(d,p) empiricaldispersion=gd3bj scf=xqc pop=npa geom=c
 heck
 ----------------------------------------------------------------------

 ------------------------------------
 CID_81300775_JID_6603_Energie_kation
 ------------------------------------
 Structure from the checkpoint file:  "JID_6603.chk"
 Charge =  1 Multiplicity = 2

 SCF Done:  E(UB3LYP) =  -659.833569577     A.U. after   22 cycles
 Normal termination of Gaussian 16 at Thu Dec 10 23:25:16 2020.
 Gaussian 16:  ES64L-G16RevA.03 25-Dec-2016

 ----------------------------------------------------------------------
 # B3LYP/6-311++G(d,p) empiricaldispersion=gd3bj scf=xqc pop=npa geom=c
 heck
 ----------------------------------------------------------------------

 -----------------------------------
 CID_81300775_JID_6603_Energie_anion
 -----------------------------------
 Structure from the checkpoint file:  "JID_6603.chk"
 Charge = -1 Multiplicity = 2

                         Standard orientation:
 ---------------------------------------------------------------------
 Center     Atomic      Atomic             Coordinates (Angstroms)
 Number     Number       Type             X           Y           Z
 ---------------------------------------------------------------------
      1          6           0        1.886320    2.434362   -0.660065
      2          6           0        2.318692    0.969754   -0.697858
      3          6           0        3.539863    0.712973    0.198209
      4          6           0        4.024367   -0.738536    0.092103
      5          6           0        2.894127   -1.726049    0.407802
      6          6           0        1.650420   -1.452769   -0.451435
      7          6           0        1.160704    0.006553   -0.324013
      8          7           0        0.629612    0.318563    1.007564
      9          6           0       -0.811496    0.368693    1.289480
     10          6           0       -1.522212    1.539882    0.572823
     11          6           0       -2.231012    1.152967   -0.734360
     12          7           0       -3.157259    0.027352   -0.597398
     13          6           0       -2.473568   -1.188203   -0.122746
     14          6           0       -1.646281   -0.949711    1.170934
     15          6           0       -1.721126   -1.855663   -1.278479
     16          6           0       -4.345498    0.358885    0.175761
     17          1           0        1.577040    2.709755    0.352684
     18          1           0        2.706930    3.094427   -0.965209
     19          1           0        1.040245    2.617560   -1.334230
     20          1           0        2.606703    0.720750   -1.731887
     21          1           0        4.349758    1.403737   -0.069072
     22          1           0        3.264867    0.940801    1.237990
     23          1           0        4.877473   -0.910020    0.760417
     24          1           0        4.384322   -0.922515   -0.930807
     25          1           0        2.636689   -1.650588    1.475278
     26          1           0        3.230445   -2.758832    0.255263
     27          1           0        0.845003   -2.142316   -0.179822
     28          1           0        1.896973   -1.652997   -1.503710
     29          1           0        0.360533    0.174233   -1.048538
     30          1           0        1.074429   -0.269238    1.705222
     31          1           0       -0.827097    0.614215    2.358643
     32          1           0       -2.275682    1.947773    1.257973
     33          1           0       -0.798251    2.340459    0.395364
     34          1           0       -1.500256    0.899331   -1.509997
     35          1           0       -2.795592    2.011887   -1.116752
     36          1           0       -3.271600   -1.889704    0.152610
     37          1           0       -0.995608   -1.811318    1.364630
     38          1           0       -2.365670   -0.928097    2.000090
     39          1           0       -1.286454   -2.807812   -0.955053
     40          1           0       -2.421004   -2.051095   -2.096552
     41          1           0       -0.910616   -1.241296   -1.675494
     42          1           0       -4.166937    0.589430    1.241988
     43          1           0       -4.833959    1.231209   -0.273030
     44          1           0       -5.048959   -0.479976    0.131917
 ---------------------------------------------------------------------

 SCF Done:  E(UB3LYP) =  -660.090346006     A.U. after   29 cycles

 The electronic state is 2-A.
 Alpha  occ. eigenvalues --  -14.19972 -14.18896 -10.09780 -10.09748 -10.09645
 Alpha  occ. eigenvalues --  -10.09074 -10.08527 -10.07204 -10.06854 -10.06830
 Alpha  occ. eigenvalues --  -10.06596 -10.06486 -10.06049 -10.05927 -10.05913
 Alpha  occ. eigenvalues --  -10.05814  -0.82775  -0.80480  -0.72891  -0.67453
 Alpha  occ. eigenvalues --   -0.66870  -0.66748  -0.63568  -0.60848  -0.57696
 Alpha  occ. eigenvalues --   -0.57027  -0.52344  -0.52082  -0.49906  -0.49065
 Alpha  occ. eigenvalues --   -0.44885  -0.43190  -0.39536  -0.39133  -0.37159
 Alpha  occ. eigenvalues --   -0.36552  -0.35902  -0.35179  -0.34435  -0.34110
 Alpha  occ. eigenvalues --   -0.32563  -0.31897  -0.31553  -0.31180  -0.30475
 Alpha  occ. eigenvalues --   -0.29658  -0.28352  -0.28035  -0.27562  -0.26656
 Alpha  occ. eigenvalues --   -0.26377  -0.26144  -0.25188  -0.24453  -0.23885
 Alpha  occ. eigenvalues --   -0.23130  -0.22628  -0.22421  -0.21453  -0.20708
 Alpha  occ. eigenvalues --   -0.19852  -0.11628  -0.10977   0.04211
 Alpha virt. eigenvalues --    0.05990   0.06668   0.07056   0.07922   0.08060
 Alpha virt. eigenvalues --    0.08463   0.09219   0.09609   0.09932   0.10064
 Alpha virt. eigenvalues --    0.10665   0.11102   0.11515   0.12156   0.12458

  Beta  occ. eigenvalues --  -14.19971 -14.18885 -10.09770 -10.09739 -10.09643
  Beta  occ. eigenvalues --  -10.09063 -10.08494 -10.07200 -10.06834 -10.06812
  Beta  occ. eigenvalues --  -10.06588 -10.06475 -10.06036 -10.05917 -10.05890
  Beta  occ. eigenvalues --  -10.05802  -0.82762  -0.80461  -0.72868  -0.67422
  Beta  occ. eigenvalues --   -0.66845  -0.66723  -0.63543  -0.60810  -0.57665
  Beta  occ. eigenvalues --   -0.56978  -0.52300  -0.52052  -0.49871  -0.49024
  Beta  occ. eigenvalues --   -0.44849  -0.43143  -0.39499  -0.39088  -0.37130
  Beta  occ. eigenvalues --   -0.36527  -0.35865  -0.35157  -0.34408  -0.34080
  Beta  occ. eigenvalues --   -0.32542  -0.31876  -0.31524  -0.31160  -0.30452
  Beta  occ. eigenvalues --   -0.29630  -0.28327  -0.28009  -0.27532  -0.26632
  Beta  occ. eigenvalues --   -0.26354  -0.26120  -0.25165  -0.24424  -0.23859
  Beta  occ. eigenvalues --   -0.23095  -0.22603  -0.22391  -0.21422  -0.20683
  Beta  occ. eigenvalues --   -0.19831  -0.11613  -0.10961
  Beta virt. eigenvalues --    0.06125   0.06764   0.07164   0.07412   0.08334
  Beta virt. eigenvalues --    0.08532   0.08885   0.09514   0.09817   0.10210
  Beta virt. eigenvalues --    0.10447   0.10946   0.11345   0.11783   0.12394

 Mulliken charges and spin densities:
               1          2
     1  C   -0.135561  -0.690722
     2  C   -0.139290   0.476202
     3  C   -0.169308  -0.249466
     4  C    0.145182  -0.714952
     5  C    0.051299  -0.299679
     6  C   -0.886627   0.275627
     7  C    1.152924  -0.979057
     8  N   -0.041594   0.170477
     9  C   -0.404501   0.335533
    10  C    0.149917  -0.461276
    11  C   -0.586315   0.071414
    12  N    0.193189  -0.001464
    13  C   -1.057632   1.003836
    14  C    0.887257  -1.466851
    15  C    0.213119  -0.837416
    16  C    0.758100  -1.036201
    17  H    0.131801   0.050499
    18  H   -0.024609   0.165687
    19  H    0.068704   0.053344
    20  H   -0.106825   0.279114
    21  H   -0.020068   0.177724
    22  H   -0.009689   0.157178
    23  H   -0.363480   0.540850
    24  H    0.182378  -0.069184
    25  H   -0.125692   0.235249
    26  H   -0.566741   0.752195
    27  H    0.548259  -0.424903
    28  H   -0.078814   0.225043
    29  H    0.661159  -0.570089
    30  H    0.428669  -0.176529
    31  H   -0.530422   0.707416
    32  H   -0.046395   0.238999
    33  H    0.110373   0.002247
    34  H   -0.074295   0.224654
    35  H   -0.046992   0.219132
    36  H   -0.105267   0.286824
    37  H   -0.499323   0.667622
    38  H   -0.068955   0.254733
    39  H   -0.110229   0.248477
    40  H    0.065735   0.094117
    41  H   -0.015353   0.127567
    42  H   -0.139345   0.262098
    43  H   -0.136953   0.274694
    44  H   -0.257792   0.399238
 Sum of Mulliken charges =  -1.00000   1.00000

 Dipole moment (field-independent basis, Debye):
    X=              1.3599    Y=              2.1589    Z=             -3.4984  Tot=              4.3300
 Quadrupole moment (field-independent basis, Debye-Ang):
   XX=           -193.1139   YY=           -150.4358   ZZ=           -144.3396
   XY=              5.0818   XZ=              1.2859   YZ=              1.8295

 Summary of Natural Population Analysis:

                                       Natural Population
                Natural  -----------------------------------------------
    Atom  No    Charge         Core      Valence    Rydberg      Total
 -----------------------------------------------------------------------
      C    1   -0.28481      0.99964     2.28011    0.00505     3.28481
      C    2   -0.10905      0.99958     2.09943    0.01004     3.10905
      C    3   -0.19173      0.99961     2.18311    0.00901     3.19173
      C    4   -0.18811      0.99963     2.18029    0.00820     3.18811
      C    5   -0.19040      0.99963     2.18220    0.00858     3.19040
      C    6   -0.19535      0.99960     2.18688    0.00887     3.19535
      C    7   -0.01023      0.99955     1.99805    0.01262     3.01023
      N    8   -0.35289      0.99972     2.84038    0.01279     3.85289
      C    9   -0.00473      0.99957     1.99045    0.01470     3.00473
      C   10   -0.20787      0.99960     2.20003    0.00825     3.20787
      C   11   -0.08451      0.99960     2.07370    0.01121     3.08451
      N   12   -0.28452      0.99972     2.77102    0.01377     3.78452
      C   13   -0.00549      0.99958     1.99215    0.01375     3.00549
      C   14   -0.20889      0.99959     2.19913    0.01018     3.20889
      C   15   -0.28634      0.99963     2.28034    0.00637     3.28634
      C   16   -0.17669      0.99964     2.16855    0.00851     3.17669
      H   17    0.10593      0.00000     0.39297    0.00110     0.39407
      H   18    0.09521      0.00000     0.40401    0.00078     0.40479
      H   19    0.09595      0.00000     0.40316    0.00088     0.40405
      H   20    0.08991      0.00000     0.40861    0.00148     0.41009
      H   21    0.09669      0.00000     0.40240    0.00091     0.40331
      H   22    0.09803      0.00000     0.40055    0.00142     0.40197
      H   23    0.09826      0.00000     0.40070    0.00104     0.40174
      H   24    0.09055      0.00000     0.40820    0.00125     0.40945
      H   25    0.09095      0.00000     0.40744    0.00161     0.40905
      H   26    0.10099      0.00000     0.39778    0.00123     0.39901
      H   27    0.10293      0.00000     0.39569    0.00138     0.39707
      H   28    0.09436      0.00000     0.40440    0.00124     0.40564
      H   29    0.09464      0.00000     0.40295    0.00242     0.40536
      H   30    0.17611      0.00000     0.32067    0.00323     0.32389
      H   31    0.09560      0.00000     0.40271    0.00169     0.40440
      H   32    0.10019      0.00000     0.39861    0.00120     0.39981
      H   33    0.10628      0.00000     0.39248    0.00124     0.39372
      H   34    0.08997      0.00000     0.40855    0.00148     0.41003
      H   35    0.09484      0.00000     0.40422    0.00094     0.40516
      H   36    0.09502      0.00000     0.40308    0.00189     0.40498
      H   37    0.10204      0.00000     0.39655    0.00141     0.39796
      H   38    0.10296      0.00000     0.39513    0.00191     0.39704
      H   39    0.09847      0.00000     0.40069    0.00084     0.40153
      H   40    0.10124      0.00000     0.39751    0.00125     0.39876
      H   41    0.09432      0.00000     0.40431    0.00137     0.40568
      H   42    0.08190      0.00000     0.41647    0.00163     0.41810
      H   43    0.09315      0.00000     0.40582    0.00102     0.40685
      H   44    0.09511      0.00000     0.40367    0.00122     0.40489
 =======================================================================
   * Total *    0.00000     15.99389    46.80512    0.20099    63.00000

 Normal termination of Gaussian 16 at Thu Dec 10 23:47:55 2020.
