 Gaussian 16, Revision A.03,

 -----------------------------------------------------------
 # opt freq B3LYP/6-31G(d) empiricaldispersion=gd3bj scf=xqc
 -----------------------------------------------------------

 -----------------------------
 CID_3072332_JID_7053_neutraal
 -----------------------------
 Symbolic Z-matrix:
 Charge =  0 Multiplicity = 1

 SCF Done:  E(RB3LYP) =  -751.387991171     A.U. after   14 cycles
 SCF Done:  E(RB3LYP) =  -751.290941720     A.U. after   15 cycles
 SCF Done:  E(RB3LYP) =  -751.390635094     A.U. after   14 cycles
 SCF Done:  E(RB3LYP) =  -751.392490751     A.U. after   12 cycles
 SCF Done:  E(RB3LYP) =  -751.392753883     A.U. after   12 cycles
 SCF Done:  E(RB3LYP) =  -751.392323876     A.U. after   13 cycles
 SCF Done:  E(RB3LYP) =  -751.393231501     A.U. after   12 cycles
 SCF Done:  E(RB3LYP) =  -751.393375653     A.U. after   12 cycles
 SCF Done:  E(RB3LYP) =  -751.393463062     A.U. after   11 cycles
 SCF Done:  E(RB3LYP) =  -751.393472618     A.U. after   12 cycles
 SCF Done:  E(RB3LYP) =  -751.393509975     A.U. after    8 cycles
 SCF Done:  E(RB3LYP) =  -751.393510652     A.U. after    9 cycles
 SCF Done:  E(RB3LYP) =  -751.393511135     A.U. after    9 cycles
 SCF Done:  E(RB3LYP) =  -751.393511164     A.U. after    8 cycles
 SCF Done:  E(RB3LYP) =  -751.393511138     A.U. after    6 cycles
 Optimization completed.
    -- Stationary point found.
 Normal termination of Gaussian 16 at Fri Dec 11 11:57:59 2020.

 --------------------------------------------------------------------
 #N Geom=AllCheck Guess=TCheck SCRF=Check GenChk RB3LYP/6-31G(d) Freq
 --------------------------------------------------------------------

 Structure from the checkpoint file:  "JID_7053.chk"
 -----------------------------
 CID_3072332_JID_7053_neutraal
 -----------------------------
 Charge =  0 Multiplicity = 1

 SCF Done:  E(RB3LYP) =  -751.393511138     A.U. after    1 cycles

  Exact polarizability: 164.430  21.802 158.493  -8.730  11.309 131.153
 Approx polarizability: 237.984  40.744 224.394 -23.760  22.351 220.840

                      1                      2                      3
                      A                      A                      A
 Frequencies --     13.5495                29.5983                32.5732
 Red. masses --      4.5339                 5.5890                 3.6506
 Frc consts  --      0.0005                 0.0029                 0.0023
 IR Inten    --      1.6321                 2.8683                 1.8138

                      4                      5                      6
                      A                      A                      A
 Frequencies --     39.9244                61.1325                86.4267
 Red. masses --      4.2889                 4.6744                 3.7406
 Frc consts  --      0.0040                 0.0103                 0.0165
 IR Inten    --      0.5774                 2.2222                 0.4453

                      7                      8                      9
                      A                      A                      A
 Frequencies --     97.9906               125.1211               151.6730
 Red. masses --      3.8922                 3.1037                 3.8827
 Frc consts  --      0.0220                 0.0286                 0.0526
 IR Inten    --      0.1406                 1.8843                 0.9540

                     10                     11                     12
                      A                      A                      A
 Frequencies --    190.3584               235.0529               253.8047
 Red. masses --      3.5497                 2.2729                 1.4305
 Frc consts  --      0.0758                 0.0740                 0.0543
 IR Inten    --      0.1288                 2.3839                 0.4565

                     13                     14                     15
                      A                      A                      A
 Frequencies --    270.8965               295.6855               321.4006
 Red. masses --      2.5482                 2.6586                 2.1717
 Frc consts  --      0.1102                 0.1370                 0.1322
 IR Inten    --      1.6107                 1.8657                 1.8699

                     16                     17                     18
                      A                      A                      A
 Frequencies --    352.0994               373.2548               401.4207
 Red. masses --      2.7256                 2.8989                 2.1572
 Frc consts  --      0.1991                 0.2380                 0.2048
 IR Inten    --      0.7803                 1.4975                 3.1088

                     19                     20                     21
                      A                      A                      A
 Frequencies --    418.5191               433.1959               464.9245
 Red. masses --      2.9644                 2.8459                 3.0364
 Frc consts  --      0.3059                 0.3147                 0.3867
 IR Inten    --      0.0404                 3.7509                 0.9710

                     22                     23                     24
                      A                      A                      A
 Frequencies --    511.4566               521.5185               576.8140
 Red. masses --      2.6961                 2.4990                 1.1646
 Frc consts  --      0.4155                 0.4005                 0.2283
 IR Inten    --      5.7518                16.9486                50.2106

                     25                     26                     27
                      A                      A                      A
 Frequencies --    594.1443               633.8383               636.6869
 Red. masses --      3.4553                 2.7221                 5.6961
 Frc consts  --      0.7186                 0.6443                 1.3604
 IR Inten    --     11.0849                11.2641                 1.0410

                     28                     29                     30
                      A                      A                      A
 Frequencies --    655.1961               716.9200               725.9081
 Red. masses --      3.2677                 2.2442                 2.2496
 Frc consts  --      0.8265                 0.6796                 0.6984
 IR Inten    --      9.3759                29.3846                21.8582

                     31                     32                     33
                      A                      A                      A
 Frequencies --    763.3444               795.4770               806.1160
 Red. masses --      1.5660                 1.6320                 1.9846
 Frc consts  --      0.5376                 0.6084                 0.7598
 IR Inten    --     33.1735                 7.4335                48.2075

                     34                     35                     36
                      A                      A                      A
 Frequencies --    833.3160               854.0990               864.6336
 Red. masses --      2.3649                 3.5450                 1.3078
 Frc consts  --      0.9676                 1.5236                 0.5760
 IR Inten    --      5.3777                 1.2134                 1.0623

                     37                     38                     39
                      A                      A                      A
 Frequencies --    878.1469               917.8615               927.2211
 Red. masses --      2.0436                 1.7538                 1.6001
 Frc consts  --      0.9285                 0.8705                 0.8105
 IR Inten    --     14.2338                 4.3136                 0.9744

                     40                     41                     42
                      A                      A                      A
 Frequencies --    941.6683               971.8951               972.6474
 Red. masses --      1.8420                 1.3603                 1.7416
 Frc consts  --      0.9624                 0.7570                 0.9708
 IR Inten    --      9.4266                 0.1699                 0.9568

                     43                     44                     45
                      A                      A                      A
 Frequencies --    977.7387               999.5698              1007.9168
 Red. masses --      2.0999                 1.2556                 1.8872
 Frc consts  --      1.1827                 0.7392                 1.1296
 IR Inten    --     29.3116                 0.1103                 5.0475

                     46                     47                     48
                      A                      A                      A
 Frequencies --   1022.5725              1047.1635              1061.2878
 Red. masses --      6.1108                 1.6592                 2.2177
 Frc consts  --      3.7648                 1.0720                 1.4717
 IR Inten    --      1.3079                 5.7596                 1.8402

                     49                     50                     51
                      A                      A                      A
 Frequencies --   1077.6121              1088.6196              1114.6512
 Red. masses --      2.2219                 2.4653                 1.6703
 Frc consts  --      1.5202                 1.7214                 1.2227
 IR Inten    --     23.3812                10.6542                 6.2121

                     52                     53                     54
                      A                      A                      A
 Frequencies --   1129.1614              1133.5613              1161.3671
 Red. masses --      1.7569                 1.9934                 1.7302
 Frc consts  --      1.3198                 1.5091                 1.3750
 IR Inten    --     33.9006                72.3222                28.9632

                     55                     56                     57
                      A                      A                      A
 Frequencies --   1192.6663              1195.4927              1203.5072
 Red. masses --      2.6188                 1.1021                 1.3236
 Frc consts  --      2.1948                 0.9281                 1.1295
 IR Inten    --     31.9421                 0.2412                 3.5098

                     58                     59                     60
                      A                      A                      A
 Frequencies --   1217.8138              1234.7702              1245.2393
 Red. masses --      1.1651                 2.2070                 1.4037
 Frc consts  --      1.0181                 1.9826                 1.2825
 IR Inten    --      0.5235                 2.4051                31.5408

                     61                     62                     63
                      A                      A                      A
 Frequencies --   1256.7463              1284.8735              1313.1431
 Red. masses --      1.3916                 1.3606                 1.3283
 Frc consts  --      1.2950                 1.3234                 1.3495
 IR Inten    --     26.1337                26.8315                 2.9335

                     64                     65                     66
                      A                      A                      A
 Frequencies --   1324.1158              1352.7432              1361.2501
 Red. masses --      1.7636                 1.2800                 3.2494
 Frc consts  --      1.8218                 1.3800                 3.5475
 IR Inten    --      3.7313                 0.7539                 0.8886

                     67                     68                     69
                      A                      A                      A
 Frequencies --   1367.7535              1374.3006              1386.8911
 Red. masses --      1.6532                 1.3125                 1.3393
 Frc consts  --      1.8222                 1.4605                 1.5178
 IR Inten    --     22.1529                 3.5549                20.5468

                     70                     71                     72
                      A                      A                      A
 Frequencies --   1398.4206              1406.9504              1415.4019
 Red. masses --      1.3443                 1.3443                 1.3045
 Frc consts  --      1.5489                 1.5679                 1.5398
 IR Inten    --      6.5483                 0.3285                12.1650

                     73                     74                     75
                      A                      A                      A
 Frequencies --   1436.8918              1465.9226              1480.0263
 Red. masses --      1.2888                 1.2029                 1.1155
 Frc consts  --      1.5678                 1.5230                 1.4397
 IR Inten    --      9.4162               109.8952                10.5844

                     76                     77                     78
                      A                      A                      A
 Frequencies --   1502.6766              1509.6939              1512.6387
 Red. masses --      2.0454                 1.1111                 1.0970
 Frc consts  --      2.7212                 1.4921                 1.4789
 IR Inten    --      4.9544                 2.2801                16.5442

                     79                     80                     81
                      A                      A                      A
 Frequencies --   1515.9053              1518.8573              1524.5748
 Red. masses --      1.1066                 1.0893                 1.1096
 Frc consts  --      1.4983                 1.4806                 1.5195
 IR Inten    --      3.5478                10.3299                11.0180

                     82                     83                     84
                      A                      A                      A
 Frequencies --   1536.1853              1543.4708              1548.8193
 Red. masses --      1.1035                 1.1174                 2.1220
 Frc consts  --      1.5343                 1.5684                 2.9991
 IR Inten    --     16.8399                15.9361                 8.2605

                     85                     86                     87
                      A                      A                      A
 Frequencies --   1644.3575              1666.5354              1803.7140
 Red. masses --      5.4760                 5.5524                11.0527
 Frc consts  --      8.7238                 9.0857                21.1863
 IR Inten    --      2.1056                 6.4145               190.2123

                     88                     89                     90
                      A                      A                      A
 Frequencies --   2987.4718              3045.0361              3046.7132
 Red. masses --      1.0697                 1.0628                 1.0463
 Frc consts  --      5.6249                 5.8061                 5.7225
 IR Inten    --     40.8656                 5.2662                16.4140

                     91                     92                     93
                      A                      A                      A
 Frequencies --   3049.5147              3050.7620              3055.2702
 Red. masses --      1.0623                 1.0771                 1.0612
 Frc consts  --      5.8207                 5.9064                 5.8365
 IR Inten    --     23.4166                47.3485                33.2120

                     94                     95                     96
                      A                      A                      A
 Frequencies --   3077.1836              3079.9360              3085.6221
 Red. masses --      1.0685                 1.0916                 1.0951
 Frc consts  --      5.9613                 6.1009                 6.1434
 IR Inten    --      1.1202                21.4896                45.3429

                     97                     98                     99
                      A                      A                      A
 Frequencies --   3097.3749              3100.1991              3116.1164
 Red. masses --      1.0984                 1.1001                 1.0991
 Frc consts  --      6.2086                 6.2297                 6.2882
 IR Inten    --     35.5721                23.1041                29.4858

                    100                    101                    102
                      A                      A                      A
 Frequencies --   3127.1296              3133.5974              3177.9646
 Red. masses --      1.1052                 1.1021                 1.0878
 Frc consts  --      6.3674                 6.3761                 6.4726
 IR Inten    --     22.2745                30.2482                 6.2963

                    103                    104                    105
                      A                      A                      A
 Frequencies --   3183.6244              3195.1708              3204.0057
 Red. masses --      1.0874                 1.0896                 1.0936
 Frc consts  --      6.4936                 6.5538                 6.6144
 IR Inten    --      5.1549                 4.1044                25.0848

                    106                    107                    108
                      A                      A                      A
 Frequencies --   3215.8958              3517.4600              3591.1592
 Red. masses --      1.0978                 1.0736                 1.0645
 Frc consts  --      6.6894                 7.8262                 8.0883
 IR Inten    --     13.9279                17.9452                96.4780

 - Thermochemistry -
 -------------------
 Temperature   298.150 Kelvin.  Pressure   1.00000 Atm.
 Atom     1 has atomic number  6 and mass  12.00000

 Molecular mass:   235.15723 amu.
 Principal axes and moments of inertia in atomic units:
                           1         2         3
     Eigenvalues --  3381.315824845.413487097.99140
           X            0.99995  -0.00227   0.00983
           Y            0.00221   0.99998   0.00625
           Z           -0.00984  -0.00623   0.99993
 This molecule is an asymmetric top.
 Rotational symmetry number  1.
 Warning -- assumption of classical behavior for rotation
           may cause significant error
 Rotational temperatures (Kelvin)      0.02562     0.01788     0.01220
 Rotational constants (GHZ):           0.53374     0.37246     0.25426
 Zero-point vibrational energy     875955.3 (Joules/Mol)
                                  209.35834 (Kcal/Mol)
 Warning -- explicit consideration of  25 degrees of freedom as
           vibrations may cause significant error
 Vibrational temperatures:     19.49    42.59    46.87    57.44    87.96
          (Kelvin)            124.35   140.99   180.02   218.22   273.88
                              338.19   365.17   389.76   425.43   462.42
                              506.59   537.03   577.55   602.16   623.27
                              668.92   735.87   750.35   829.91   854.84
                              911.95   916.05   942.68  1031.49  1044.42
                             1098.28  1144.51  1159.82  1198.96  1228.86
                             1244.01  1263.46  1320.60  1334.06  1354.85
                             1398.34  1399.42  1406.75  1438.16  1450.17
                             1471.25  1506.63  1526.96  1550.44  1566.28
                             1603.73  1624.61  1630.94  1670.95  1715.98
                             1720.05  1731.58  1752.16  1776.56  1791.62
                             1808.18  1848.65  1889.32  1905.11  1946.30
                             1958.54  1967.89  1977.31  1995.43  2012.02
                             2024.29  2036.45  2067.37  2109.14  2129.43
                             2162.02  2172.11  2176.35  2181.05  2185.30
                             2193.52  2210.23  2220.71  2228.41  2365.86
                             2397.77  2595.14  4298.31  4381.13  4383.54
                             4387.57  4389.37  4395.85  4427.38  4431.34
                             4439.52  4456.43  4460.50  4483.40  4499.24
                             4508.55  4572.38  4580.53  4597.14  4609.85
                             4626.96  5060.84  5166.88

 Zero-point correction=                           0.333634 (Hartree/Particle)
 Thermal correction to Energy=                    0.351020
 Thermal correction to Enthalpy=                  0.351965
 Thermal correction to Gibbs Free Energy=         0.285441
 Sum of electronic and zero-point Energies=           -751.059877
 Sum of electronic and thermal Energies=              -751.042491
 Sum of electronic and thermal Enthalpies=            -751.041546
 Sum of electronic and thermal Free Energies=         -751.108070

                     E (Thermal)             CV                S
                      KCal/Mol        Cal/Mol-Kelvin    Cal/Mol-Kelvin
 Total                  220.269             65.601            140.010
 Electronic               0.000              0.000              0.000
 Translational            0.889              2.981             42.267
 Rotational               0.889              2.981             33.119
 Vibrational            218.491             59.639             64.624
 Vibration     1          0.593              1.986              7.408
 Vibration     2          0.593              1.984              5.856
 Vibration     3          0.594              1.983              5.666
 Vibration     4          0.594              1.981              5.263
 Vibration     5          0.597              1.973              4.420
 Vibration     6          0.601              1.959              3.739
 Vibration     7          0.603              1.951              3.494
 Vibration     8          0.610              1.928              3.020
 Vibration     9          0.619              1.901              2.651
 Vibration    10          0.634              1.853              2.224
 Vibration    11          0.655              1.787              1.840
 Vibration    12          0.665              1.756              1.704
 Vibration    13          0.675              1.727              1.590
 Vibration    14          0.690              1.682              1.441
 Vibration    15          0.707              1.633              1.303
 Vibration    16          0.729              1.571              1.157
 Vibration    17          0.745              1.527              1.066
 Vibration    18          0.767              1.467              0.957
 Vibration    19          0.781              1.430              0.897
 Vibration    20          0.794              1.398              0.848
 Vibration    21          0.822              1.328              0.752
 Vibration    22          0.867              1.225              0.630
 Vibration    23          0.876              1.202              0.606
 Vibration    24          0.933              1.081              0.491
 Vibration    25          0.952              1.044              0.460

                           ! Non-Optimized Parameters !
 Normal termination of Gaussian 16 at Fri Dec 11 12:13:39 2020.

 ----------------------------------------------------------------------
 # B3LYP/6-311++G(d,p) empiricaldispersion=gd3bj scf=xqc pop=npa geom=c
 heck
 ----------------------------------------------------------------------

 -------------------------------------
 CID_3072332_JID_7053_Energie_neutraal
 -------------------------------------
 Structure from the checkpoint file:  "JID_7053.chk"
 Charge =  0 Multiplicity = 1

 SCF Done:  E(RB3LYP) =  -751.615764992     A.U. after   15 cycles
 Normal termination of Gaussian 16 at Fri Dec 11 12:20:18 2020.

 ----------------------------------------------------------------------
 # B3LYP/6-311++G(d,p) empiricaldispersion=gd3bj scf=xqc pop=npa geom=c
 heck
 ----------------------------------------------------------------------

 -----------------------------------
 CID_3072332_JID_7053_Energie_kation
 -----------------------------------
 Structure from the checkpoint file:  "JID_7053.chk"
 Charge =  1 Multiplicity = 2

 SCF Done:  E(UB3LYP) =  -751.306700899     A.U. after   30 cycles
 Normal termination of Gaussian 16 at Fri Dec 11 12:39:29 2020.
 Gaussian 16:  ES64L-G16RevA.03 25-Dec-2016

 ----------------------------------------------------------------------
 # B3LYP/6-311++G(d,p) empiricaldispersion=gd3bj scf=xqc pop=npa geom=c
 heck
 ----------------------------------------------------------------------

 ----------------------------------
 CID_3072332_JID_7053_Energie_anion
 ----------------------------------
 Structure from the checkpoint file:  "JID_7053.chk"
 Charge = -1 Multiplicity = 2

                         Standard orientation:
 ---------------------------------------------------------------------
 Center     Atomic      Atomic             Coordinates (Angstroms)
 Number     Number       Type             X           Y           Z
 ---------------------------------------------------------------------
      1          6           0        3.088236    0.938486    1.005964
      2          6           0        3.444956   -0.451238    0.468071
      3          6           0        2.266573   -1.437602    0.546699
      4          7           0        1.289776   -1.093762   -0.489440
      5          6           0        0.330931   -2.144370   -0.823997
      6          6           0       -0.556305   -2.647515    0.328867
      7          6           0       -1.430129   -1.565157    1.002278
      8          6           0       -2.647232   -1.200859    0.162220
      9          8           0       -3.681771   -1.831796    0.270696
     10          6           0       -2.553149   -0.076375   -0.880989
     11          6           0       -1.692601    1.107671   -0.513014
     12          6           0       -0.611017    1.494758   -1.312472
     13          6           0        0.183287    2.589412   -0.962380
     14          6           0       -0.093847    3.310474    0.198679
     15          6           0       -1.172650    2.935165    1.002982
     16          6           0       -1.965563    1.846081    0.647393
     17          8           0        3.898394   -0.381139   -0.875704
     18          1           0        2.257702    1.382361    0.445847
     19          1           0        3.950042    1.605009    0.904480
     20          1           0        2.803650    0.895655    2.064858
     21          1           0        4.273189   -0.856577    1.063244
     22          1           0        2.636863   -2.444689    0.321518
     23          1           0        1.850777   -1.457234    1.567724
     24          1           0        0.796740   -0.238928   -0.242634
     25          1           0       -0.289482   -1.772718   -1.648202
     26          1           0        0.896824   -2.994624   -1.224694
     27          1           0       -1.203871   -3.454226   -0.036602
     28          1           0        0.084810   -3.090651    1.099814
     29          1           0       -1.815914   -1.962051    1.945647
     30          1           0       -0.825188   -0.681341    1.226861
     31          1           0       -2.175246   -0.534474   -1.805169
     32          1           0       -3.584392    0.228213   -1.090085
     33          1           0       -0.385567    0.934050   -2.216071
     34          1           0        1.019666    2.872114   -1.594993
     35          1           0        0.525798    4.158040    0.475901
     36          1           0       -1.396638    3.492944    1.907816
     37          1           0       -2.805648    1.560062    1.276256
     38          1           0        3.075527   -0.474695   -1.397175
 ---------------------------------------------------------------------

 SCF Done:  E(UB3LYP) =  -751.610373706     A.U. after   33 cycles
 SCF Done:  E(UB3LYP) =  -751.610373705     a.u. after    1 cycles

 The electronic state is 2-A.
 Alpha  occ. eigenvalues --  -19.00855 -18.97170 -14.20178 -10.11736 -10.11461
 Alpha  occ. eigenvalues --  -10.09400 -10.09063 -10.07939 -10.07241 -10.06857
 Alpha  occ. eigenvalues --  -10.06761 -10.06594 -10.06501 -10.06442 -10.06126
 Alpha  occ. eigenvalues --  -10.05611 -10.05326  -0.91742  -0.90942  -0.80763
 Alpha  occ. eigenvalues --   -0.75551  -0.68496  -0.67029  -0.65159  -0.64325
 Alpha  occ. eigenvalues --   -0.60188  -0.58926  -0.56206  -0.50543  -0.50172
 Alpha  occ. eigenvalues --   -0.48755  -0.47705  -0.42030  -0.41160  -0.39780
 Alpha  occ. eigenvalues --   -0.38639  -0.36801  -0.36151  -0.35647  -0.34714
 Alpha  occ. eigenvalues --   -0.34144  -0.32737  -0.32490  -0.31895  -0.31539
 Alpha  occ. eigenvalues --   -0.30745  -0.30394  -0.29050  -0.28518  -0.27089
 Alpha  occ. eigenvalues --   -0.26323  -0.25627  -0.25424  -0.24609  -0.24175
 Alpha  occ. eigenvalues --   -0.23766  -0.23272  -0.21845  -0.21534  -0.17096
 Alpha  occ. eigenvalues --   -0.15611  -0.15182  -0.13591  -0.11786   0.04686
 Alpha virt. eigenvalues --    0.06795   0.07179   0.07960   0.08295   0.08464
 Alpha virt. eigenvalues --    0.08945   0.09242   0.09746   0.10248   0.10488
 Alpha virt. eigenvalues --    0.10776   0.11673   0.12051   0.12234   0.12941

  Beta  occ. eigenvalues --  -19.00853 -18.96915 -14.20167 -10.11731 -10.11180
  Beta  occ. eigenvalues --  -10.09396 -10.09039 -10.07957 -10.07271 -10.06764
  Beta  occ. eigenvalues --  -10.06655 -10.06619 -10.06409 -10.06372 -10.06068
  Beta  occ. eigenvalues --  -10.05601 -10.05349  -0.91735  -0.90440  -0.80740
  Beta  occ. eigenvalues --   -0.75408  -0.68346  -0.66960  -0.65094  -0.64089
  Beta  occ. eigenvalues --   -0.60030  -0.58854  -0.56145  -0.50283  -0.50060
  Beta  occ. eigenvalues --   -0.48668  -0.47622  -0.41831  -0.41117  -0.39547
  Beta  occ. eigenvalues --   -0.38556  -0.36611  -0.36100  -0.35529  -0.34651
  Beta  occ. eigenvalues --   -0.34043  -0.32581  -0.32331  -0.31813  -0.31475
  Beta  occ. eigenvalues --   -0.30629  -0.30278  -0.28908  -0.28377  -0.26973
  Beta  occ. eigenvalues --   -0.25920  -0.25538  -0.25137  -0.24535  -0.24096
  Beta  occ. eigenvalues --   -0.23688  -0.23143  -0.21818  -0.20683  -0.17086
  Beta  occ. eigenvalues --   -0.14999  -0.14823  -0.13557  -0.11569
  Beta virt. eigenvalues --    0.06857   0.07619   0.07978   0.08287   0.08530
  Beta virt. eigenvalues --    0.08735   0.09408   0.09735   0.10209   0.10522
  Beta virt. eigenvalues --    0.10753   0.11327   0.11924   0.12109   0.12554

 Mulliken charges and spin densities:
               1          2
     1  C    0.050219  -0.485326
     2  C   -0.734906   0.394764
     3  C    0.276159  -0.686761
     4  N   -0.252466   0.006413
     5  C   -0.305014   0.066438
     6  C    0.529688  -0.794816
     7  C   -0.251270   0.184279
     8  C   -0.201239   0.000446
     9  O   -0.316406   0.094801
    10  C   -0.414343  -0.199599
    11  C    0.448165   0.186148
    12  C   -0.524990   0.248419
    13  C   -0.107137   0.041900
    14  C   -0.263174  -0.115076
    15  C   -0.401103   0.192714
    16  C    0.284835  -0.408224
    17  O   -0.191288  -0.005083
    18  H    0.419406  -0.295137
    19  H    0.112028   0.042149
    20  H   -0.189219   0.314825
    21  H   -0.112416   0.289033
    22  H   -0.050271   0.240708
    23  H   -0.064896   0.212605
    24  H    0.287279   0.035613
    25  H    0.137655   0.025487
    26  H    0.082437   0.061463
    27  H    0.206614  -0.027891
    28  H   -0.425142   0.597834
    29  H   -0.118391   0.341306
    30  H    0.075648   0.085918
    31  H    0.099756   0.037231
    32  H    0.181382   0.024982
    33  H    0.149033   0.002486
    34  H    0.134122   0.025434
    35  H    0.060839   0.072749
    36  H   -0.052510   0.200587
    37  H    0.165426   0.000183
    38  H    0.275489  -0.009004
 Sum of Mulliken charges =  -1.00000   1.00000

 Dipole moment (field-independent basis, Debye):
    X=              1.0985    Y=              3.2962    Z=             -3.3921  Tot=              4.8557
 Quadrupole moment (field-independent basis, Debye-Ang):
   XX=           -172.1235   YY=           -145.5949   ZZ=           -130.7685
   XY=             -4.8756   XZ=              1.5479   YZ=              8.6653

 Summary of Natural Population Analysis:

                                       Natural Population
                Natural  -----------------------------------------------
    Atom  No    Charge         Core      Valence    Rydberg      Total
 -----------------------------------------------------------------------
      C    1   -0.30031      0.99964     2.29438    0.00629     3.30031
      C    2    0.05759      0.99959     1.92762    0.01520     2.94241
      C    3   -0.10027      0.99961     2.08901    0.01165     3.10027
      N    4   -0.36416      0.99974     2.85214    0.01228     3.86416
      C    5   -0.08419      0.99962     2.07322    0.01134     3.08419
      C    6   -0.19275      0.99962     2.18482    0.00831     3.19275
      C    7   -0.24128      0.99958     2.23204    0.00966     3.24128
      C    8    0.32855      0.99967     1.64962    0.02216     2.67145
      O    9   -0.27776      0.99987     3.27105    0.00684     4.27776
      C   10   -0.24512      0.99956     2.23600    0.00957     3.24512
      C   11   -0.01765      0.99950     2.00817    0.00998     3.01765
      C   12   -0.10097      0.99951     2.09185    0.00961     3.10097
      C   13   -0.08993      0.99956     2.08050    0.00987     3.08993
      C   14   -0.11634      0.99956     2.10662    0.01016     3.11634
      C   15   -0.08346      0.99957     2.07409    0.00980     3.08346
      C   16   -0.09140      0.99951     2.08325    0.00864     3.09140
      O   17   -0.38327      0.99990     3.37691    0.00647     4.38327
      H   18    0.10243      0.00000     0.39630    0.00127     0.39757
      H   19    0.09876      0.00000     0.40040    0.00084     0.40124
      H   20    0.09950      0.00000     0.39941    0.00109     0.40050
      H   21    0.08230      0.00000     0.41656    0.00114     0.41770
      H   22    0.09464      0.00000     0.40427    0.00109     0.40536
      H   23    0.09064      0.00000     0.40745    0.00191     0.40936
      H   24    0.18898      0.00000     0.30823    0.00279     0.31102
      H   25    0.09080      0.00000     0.40814    0.00106     0.40920
      H   26    0.09021      0.00000     0.40883    0.00095     0.40979
      H   27    0.09959      0.00000     0.39944    0.00097     0.40041
      H   28    0.10051      0.00000     0.39753    0.00196     0.39949
      H   29    0.11190      0.00000     0.38678    0.00132     0.38810
      H   30    0.10268      0.00000     0.39530    0.00202     0.39732
      H   31    0.10863      0.00000     0.39038    0.00099     0.39137
      H   32    0.11387      0.00000     0.38513    0.00100     0.38613
      H   33    0.09868      0.00000     0.40029    0.00103     0.40132
      H   34    0.09780      0.00000     0.40139    0.00081     0.40220
      H   35    0.09753      0.00000     0.40169    0.00079     0.40247
      H   36    0.09688      0.00000     0.40238    0.00074     0.40312
      H   37    0.09959      0.00000     0.39909    0.00132     0.40041
      H   38    0.23683      0.00000     0.26021    0.00296     0.26317
 =======================================================================
   * Total *    0.00000     16.99361    46.80050    0.20590    64.00000

 Normal termination of Gaussian 16 at Fri Dec 11 13:02:32 2020.
