 Gaussian 16, Revision A.03,

 -----------------------------------------------------------
 # opt freq B3LYP/6-31G(d) empiricaldispersion=gd3bj scf=xqc
 -----------------------------------------------------------

 ------------------------------
 CID_90923805_JID_4638_neutraal
 ------------------------------
 Symbolic Z-matrix:
 Charge =  0 Multiplicity = 1

 SCF Done:  E(RB3LYP) =  -684.004326840     A.U. after   15 cycles
 SCF Done:  E(RB3LYP) =  -684.021218738     A.U. after   13 cycles
 SCF Done:  E(RB3LYP) =  -684.026008055     A.U. after   12 cycles
 SCF Done:  E(RB3LYP) =  -684.031060439     A.U. after   13 cycles
 SCF Done:  E(RB3LYP) =  -684.033484502     A.U. after   12 cycles
 SCF Done:  E(RB3LYP) =  -684.035610965     A.U. after   12 cycles
 SCF Done:  E(RB3LYP) =  -684.036124771     A.U. after   11 cycles
 SCF Done:  E(RB3LYP) =  -684.036431809     A.U. after   11 cycles
 SCF Done:  E(RB3LYP) =  -684.036889748     A.U. after   12 cycles
 SCF Done:  E(RB3LYP) =  -684.037817326     A.U. after   13 cycles
 SCF Done:  E(RB3LYP) =  -684.043504306     A.U. after   11 cycles
 SCF Done:  E(RB3LYP) =  -684.043514957     A.U. after   10 cycles
 SCF Done:  E(RB3LYP) =  -684.043519448     A.U. after    9 cycles
 SCF Done:  E(RB3LYP) =  -684.043521670     A.U. after    9 cycles
 SCF Done:  E(RB3LYP) =  -684.043522154     A.U. after    7 cycles
 SCF Done:  E(RB3LYP) =  -684.043522244     A.U. after    7 cycles
 Optimization completed.
    -- Stationary point found.
 Normal termination of Gaussian 16 at Thu Dec 10 10:24:42 2020.

 --------------------------------------------------------------------
 #N Geom=AllCheck Guess=TCheck SCRF=Check GenChk RB3LYP/6-31G(d) Freq
 --------------------------------------------------------------------

 Structure from the checkpoint file:  "JID_4638.chk"
 ------------------------------
 CID_90923805_JID_4638_neutraal
 ------------------------------
 Charge =  0 Multiplicity = 1

 SCF Done:  E(RB3LYP) =  -684.043522244     A.U. after    1 cycles

  Exact polarizability: 136.288  -0.042 109.648  -2.789   2.057  90.870
 Approx polarizability: 170.126   0.449 182.693  -5.969  12.630 134.630

                      1                      2                      3
                      A                      A                      A
 Frequencies --     51.5088                61.3740                72.2302
 Red. masses --      4.3624                 2.7095                 3.5980
 Frc consts  --      0.0068                 0.0060                 0.0111
 IR Inten    --      1.2945                 0.0771                 0.9720

                      4                      5                      6
                      A                      A                      A
 Frequencies --    101.1714               130.0618               140.4867
 Red. masses --      5.5199                 8.2709                 4.0163
 Frc consts  --      0.0333                 0.0824                 0.0467
 IR Inten    --      0.6704                 5.0638                 0.1797

                      7                      8                      9
                      A                      A                      A
 Frequencies --    228.3856               245.5456               271.3272
 Red. masses --      1.0540                 1.1804                 2.4241
 Frc consts  --      0.0324                 0.0419                 0.1051
 IR Inten    --      0.0074                 0.2214                 1.7087

                     10                     11                     12
                      A                      A                      A
 Frequencies --    276.3967               303.5470               321.7974
 Red. masses --      2.4883                 2.9351                 1.1901
 Frc consts  --      0.1120                 0.1593                 0.0726
 IR Inten    --      5.2590                 3.1521                18.7173

                     13                     14                     15
                      A                      A                      A
 Frequencies --    350.0265               359.3778               389.1432
 Red. masses --      1.8763                 2.9076                 2.5654
 Frc consts  --      0.1354                 0.2213                 0.2289
 IR Inten    --     25.3003                 4.0795                23.2143

                     16                     17                     18
                      A                      A                      A
 Frequencies --    403.6077               408.3639               437.8203
 Red. masses --      3.1398                 2.2798                 1.8780
 Frc consts  --      0.3013                 0.2240                 0.2121
 IR Inten    --      0.9245                 4.7172                 3.4376

                     19                     20                     21
                      A                      A                      A
 Frequencies --    459.1683               499.4729               524.3886
 Red. masses --      2.9371                 4.7319                 3.3072
 Frc consts  --      0.3648                 0.6955                 0.5358
 IR Inten    --      1.5358                17.4572                22.3773

                     22                     23                     24
                      A                      A                      A
 Frequencies --    532.1862               610.8357               638.6336
 Red. masses --      4.6580                 2.3908                 2.4808
 Frc consts  --      0.7773                 0.5256                 0.5961
 IR Inten    --     10.4817                44.1895                20.2120

                     25                     26                     27
                      A                      A                      A
 Frequencies --    649.5728               671.0384               759.5791
 Red. masses --      3.0507                 2.4999                 7.8193
 Frc consts  --      0.7584                 0.6632                 2.6580
 IR Inten    --     53.8097                37.0848                43.7357

                     28                     29                     30
                      A                      A                      A
 Frequencies --    797.4011               828.5428               855.6669
 Red. masses --      3.8500                 2.7193                 2.2197
 Frc consts  --      1.4423                 1.0999                 0.9575
 IR Inten    --     18.4184                 5.6850               131.8032

                     31                     32                     33
                      A                      A                      A
 Frequencies --    878.6844               893.1516               924.9408
 Red. masses --      1.9121                 1.5783                 1.5720
 Frc consts  --      0.8698                 0.7418                 0.7924
 IR Inten    --    105.9224                27.0213               148.9197

                     34                     35                     36
                      A                      A                      A
 Frequencies --    945.4188               960.6539               966.7663
 Red. masses --      1.2277                 1.9028                 1.9921
 Frc consts  --      0.6465                 1.0346                 1.0970
 IR Inten    --      1.9814                15.7817                20.7757

                     37                     38                     39
                      A                      A                      A
 Frequencies --    982.5299              1027.5722              1048.8826
 Red. masses --      1.4668                 2.1996                 2.4060
 Frc consts  --      0.8343                 1.3684                 1.5595
 IR Inten    --      0.0192                23.1938                 0.6431

                     40                     41                     42
                      A                      A                      A
 Frequencies --   1079.6135              1139.0645              1159.9304
 Red. masses --      2.0163                 2.9581                 2.2907
 Frc consts  --      1.3847                 2.2613                 1.8159
 IR Inten    --     21.9144                41.9070                 2.7546

                     43                     44                     45
                      A                      A                      A
 Frequencies --   1198.0108              1209.2713              1218.5773
 Red. masses --      1.4258                 1.7619                 2.9047
 Frc consts  --      1.2057                 1.5180                 2.5413
 IR Inten    --     19.1589                 3.0956                25.7427

                     46                     47                     48
                      A                      A                      A
 Frequencies --   1228.2517              1280.4480              1320.9101
 Red. masses --      2.8749                 1.6816                 1.8501
 Frc consts  --      2.5553                 1.6244                 1.9019
 IR Inten    --     25.6727                52.6524                89.8596

                     49                     50                     51
                      A                      A                      A
 Frequencies --   1340.3545              1352.1600              1361.0081
 Red. masses --      1.5883                 1.6624                 1.3821
 Frc consts  --      1.6812                 1.7908                 1.5083
 IR Inten    --     11.7956                36.3892                 9.0429

                     52                     53                     54
                      A                      A                      A
 Frequencies --   1387.3499              1403.3168              1417.8414
 Red. masses --      1.9506                 1.5922                 1.5990
 Frc consts  --      2.2120                 1.8474                 1.8939
 IR Inten    --     80.7582                55.4633                89.3680

                     55                     56                     57
                      A                      A                      A
 Frequencies --   1431.1824              1443.1246              1453.3654
 Red. masses --      1.3244                 1.8502                 1.3412
 Frc consts  --      1.5983                 2.2703                 1.6691
 IR Inten    --     11.1551                91.1557                 3.2421

                     58                     59                     60
                      A                      A                      A
 Frequencies --   1463.6717              1486.1674              1500.4989
 Red. masses --      1.8321                 1.2352                 1.1238
 Frc consts  --      2.3125                 1.6074                 1.4907
 IR Inten    --    170.0466                38.9934                47.3748

                     61                     62                     63
                      A                      A                      A
 Frequencies --   1517.4019              1523.3973              1534.2144
 Red. masses --      1.0508                 1.0506                 1.0558
 Frc consts  --      1.4255                 1.4366                 1.4643
 IR Inten    --      6.1084                 6.5366                 5.1440

                     64                     65                     66
                      A                      A                      A
 Frequencies --   1540.3179              1671.7844              1687.7155
 Red. masses --      1.0492                 1.1164                 1.1044
 Frc consts  --      1.4667                 1.8383                 1.8534
 IR Inten    --      9.0686                60.6430                25.5470

                     67                     68                     69
                      A                      A                      A
 Frequencies --   1777.1685              1818.2536              3041.0441
 Red. masses --     10.9014                 9.9510                 1.0368
 Frc consts  --     20.2856                19.3833                 5.6494
 IR Inten    --    469.7542               200.8351                34.0434

                     70                     71                     72
                      A                      A                      A
 Frequencies --   3048.4260              3055.0048              3069.1114
 Red. masses --      1.0359                 1.0830                 1.0679
 Frc consts  --      5.6717                 5.9554                 5.9265
 IR Inten    --     16.5358                 6.2845                 5.6138

                     73                     74                     75
                      A                      A                      A
 Frequencies --   3106.3896              3107.5666              3109.1459
 Red. masses --      1.0981                 1.0961                 1.0687
 Frc consts  --      6.2429                 6.2367                 6.0868
 IR Inten    --     23.8157                30.1753                41.3606

                     76                     77                     78
                      A                      A                      A
 Frequencies --   3116.8169              3124.5135              3157.8936
 Red. masses --      1.1012                 1.1023                 1.0968
 Frc consts  --      6.3028                 6.3405                 6.4444
 IR Inten    --     28.8339                36.2713                 3.1578

                     79                     80                     81
                      A                      A                      A
 Frequencies --   3168.7667              3487.6514              3494.8431
 Red. masses --      1.1054                 1.0491                 1.0493
 Frc consts  --      6.5397                 7.5186                 7.5512
 IR Inten    --      3.7710                 1.1432                 2.9466

                     82                     83                     84
                      A                      A                      A
 Frequencies --   3579.2303              3590.5752              3594.3487
 Red. masses --      1.0938                 1.0938                 1.0764
 Frc consts  --      8.2556                 8.3087                 8.1932
 IR Inten    --      2.4780                 3.3664                42.2731

 - Thermochemistry -
 -------------------
 Temperature   298.150 Kelvin.  Pressure   1.00000 Atm.
 Atom     1 has atomic number  6 and mass  12.00000

 Molecular mass:   200.12733 amu.
 Principal axes and moments of inertia in atomic units:
                           1         2         3
     Eigenvalues --  1504.597023791.994674239.44850
           X            0.99994  -0.00740   0.00745
           Y            0.00778   0.99861  -0.05215
           Z           -0.00706   0.05221   0.99861
 This molecule is an asymmetric top.
 Rotational symmetry number  1.
 Warning -- assumption of classical behavior for rotation
           may cause significant error
 Rotational temperatures (Kelvin)      0.05757     0.02284     0.02043
 Rotational constants (GHZ):           1.19948     0.47593     0.42570
 Zero-point vibrational energy     680692.9 (Joules/Mol)
                                  162.68950 (Kcal/Mol)
 Warning -- explicit consideration of  23 degrees of freedom as
           vibrations may cause significant error
 Vibrational temperatures:     74.11    88.30   103.92   145.56   187.13
          (Kelvin)            202.13   328.60   353.29   390.38   397.67
                              436.74   462.99   503.61   517.06   559.89
                              580.70   587.54   629.93   660.64   718.63
                              754.48   765.70   878.86   918.85   934.59
                              965.47  1092.86  1147.28  1192.09  1231.11
                             1264.23  1285.05  1330.78  1360.25  1382.17
                             1390.96  1413.64  1478.45  1509.11  1553.32
                             1638.86  1668.88  1723.67  1739.87  1753.26
                             1767.18  1842.28  1900.50  1928.47  1945.46
                             1958.19  1996.09  2019.06  2039.96  2059.15
                             2076.33  2091.07  2105.90  2138.26  2158.88
                             2183.20  2191.83  2207.39  2216.17  2405.32
                             2428.25  2556.95  2616.06  4375.38  4386.01
                             4395.47  4415.77  4469.40  4471.10  4473.37
                             4484.40  4495.48  4543.50  4559.15  5017.95
                             5028.30  5149.71  5166.04  5171.47

 Zero-point correction=                           0.259262 (Hartree/Particle)
 Thermal correction to Energy=                    0.273645
 Thermal correction to Enthalpy=                  0.274589
 Thermal correction to Gibbs Free Energy=         0.218574
 Sum of electronic and zero-point Energies=           -683.784260
 Sum of electronic and thermal Energies=              -683.769877
 Sum of electronic and thermal Enthalpies=            -683.768933
 Sum of electronic and thermal Free Energies=         -683.824948

                     E (Thermal)             CV                S
                      KCal/Mol        Cal/Mol-Kelvin    Cal/Mol-Kelvin
 Total                  171.715             55.504            117.893
 Electronic               0.000              0.000              0.000
 Translational            0.889              2.981             41.786
 Rotational               0.889              2.981             31.559
 Vibrational            169.937             49.542             44.548
 Vibration     1          0.596              1.977              4.759
 Vibration     2          0.597              1.973              4.413
 Vibration     3          0.598              1.967              4.092
 Vibration     4          0.604              1.948              3.432
 Vibration     5          0.612              1.923              2.945
 Vibration     6          0.615              1.913              2.797
 Vibration     7          0.651              1.798              1.892
 Vibration     8          0.660              1.770              1.762
 Vibration     9          0.675              1.726              1.588
 Vibration    10          0.678              1.717              1.556
 Vibration    11          0.695              1.667              1.397
 Vibration    12          0.707              1.632              1.301
 Vibration    13          0.727              1.575              1.166
 Vibration    14          0.734              1.556              1.125
 Vibration    15          0.757              1.493              1.003
 Vibration    16          0.769              1.462              0.949
 Vibration    17          0.773              1.452              0.932
 Vibration    18          0.798              1.388              0.833
 Vibration    19          0.817              1.341              0.769
 Vibration    20          0.855              1.251              0.659
 Vibration    21          0.879              1.196              0.600
 Vibration    22          0.887              1.179              0.582
 Vibration    23          0.970              1.009              0.431

 Optimization completed.
    -- Stationary point found.
 Normal termination of Gaussian 16 at Thu Dec 10 10:33:49 2020.

 ----------------------------------------------------------------------
 # B3LYP/6-311++G(d,p) empiricaldispersion=gd3bj scf=xqc pop=npa geom=c
 heck
 ----------------------------------------------------------------------

 --------------------------------------
 CID_90923805_JID_4638_Energie_neutraal
 --------------------------------------
 Structure from the checkpoint file:  "JID_4638.chk"
 Charge =  0 Multiplicity = 1

 SCF Done:  E(RB3LYP) =  -684.258260439     A.U. after   14 cycles
 Normal termination of Gaussian 16 at Thu Dec 10 10:38:09 2020.

 ----------------------------------------------------------------------
 # B3LYP/6-311++G(d,p) empiricaldispersion=gd3bj scf=xqc pop=npa geom=c
 heck
 ----------------------------------------------------------------------

 ------------------------------------
 CID_90923805_JID_4638_Energie_kation
 ------------------------------------
 Structure from the checkpoint file:  "JID_4638.chk"
 Charge =  1 Multiplicity = 2

 SCF Done:  E(UB3LYP) =  -683.924410708     A.U. after   30 cycles
 Normal termination of Gaussian 16 at Thu Dec 10 10:50:19 2020.
 Gaussian 16:  ES64L-G16RevA.03 25-Dec-2016

 ----------------------------------------------------------------------
 # B3LYP/6-311++G(d,p) empiricaldispersion=gd3bj scf=xqc pop=npa geom=c
 heck
 ----------------------------------------------------------------------

 -----------------------------------
 CID_90923805_JID_4638_Energie_anion
 -----------------------------------
 Structure from the checkpoint file:  "JID_4638.chk"
 Charge = -1 Multiplicity = 2

                         Standard orientation:
 ---------------------------------------------------------------------
 Center     Atomic      Atomic             Coordinates (Angstroms)
 Number     Number       Type             X           Y           Z
 ---------------------------------------------------------------------
      1          6           0        2.193875   -0.994137    1.391471
      2          6           0        2.569514    0.189306    0.492808
      3          6           0        4.076171    0.215430    0.212187
      4          6           0        1.812494    0.163478   -0.844182
      5          7           0        0.351214    0.154026   -0.677994
      6          6           0       -0.281370    1.365097   -0.415216
      7          8           0        0.346819    2.405532   -0.312680
      8          6           0       -1.793388    1.308305   -0.292738
      9          6           0       -2.288866   -0.015624    0.302952
     10          7           0       -1.657693   -1.066273   -0.509354
     11          6           0       -0.316091   -1.088645   -0.795928
     12          8           0        0.272213   -2.102801   -1.136650
     13          7           0       -3.715637   -0.264947    0.203398
     14          7           0       -1.984596   -0.037247    1.725404
     15          1           0        2.405149   -1.948594    0.896847
     16          1           0        1.127433   -0.987908    1.645717
     17          1           0        2.756929   -0.959600    2.330845
     18          1           0        2.297049    1.121374    1.003601
     19          1           0        4.393343   -0.698820   -0.305466
     20          1           0        4.351176    1.071222   -0.415085
     21          1           0        4.646524    0.285342    1.144807
     22          1           0        2.065161    1.049577   -1.429937
     23          1           0        2.066352   -0.732139   -1.411827
     24          1           0       -2.214226    1.417275   -1.299737
     25          1           0       -2.116867    2.154688    0.314916
     26          1           0       -2.065278   -1.990499   -0.425659
     27          1           0       -4.205672    0.392431    0.805342
     28          1           0       -4.032553   -0.128474   -0.754072
     29          1           0       -0.993726    0.126304    1.890921
     30          1           0       -2.220095   -0.952199    2.105133
 ---------------------------------------------------------------------

 SCF Done:  E(UB3LYP) =  -684.250579679     A.U. after   31 cycles

 The electronic state is 2-A.
 Alpha  occ. eigenvalues --  -19.00021 -18.99452 -14.26153 -14.23310 -14.19976
 Alpha  occ. eigenvalues --  -14.19793 -10.20704 -10.18052 -10.17784 -10.10637
 Alpha  occ. eigenvalues --  -10.08433 -10.07903 -10.07645 -10.06367  -0.96971
 Alpha  occ. eigenvalues --   -0.94608  -0.87558  -0.83916  -0.78270  -0.74964
 Alpha  occ. eigenvalues --   -0.71447  -0.66270  -0.60407  -0.59724  -0.55071
 Alpha  occ. eigenvalues --   -0.53219  -0.48707  -0.45402  -0.44169  -0.42455
 Alpha  occ. eigenvalues --   -0.40899  -0.37560  -0.37348  -0.36443  -0.36222
 Alpha  occ. eigenvalues --   -0.33798  -0.33537  -0.32471  -0.32245  -0.31683
 Alpha  occ. eigenvalues --   -0.30821  -0.30061  -0.29130  -0.28515  -0.27090
 Alpha  occ. eigenvalues --   -0.25185  -0.24945  -0.23921  -0.20368  -0.18829
 Alpha  occ. eigenvalues --   -0.17774  -0.17198  -0.15121  -0.14715   0.04364
 Alpha virt. eigenvalues --    0.06303   0.07656   0.07697   0.08954   0.09309
 Alpha virt. eigenvalues --    0.09447   0.10109   0.11023   0.11333   0.11554
 Alpha virt. eigenvalues --    0.11873   0.12864   0.13627   0.13869   0.14418

  Beta  occ. eigenvalues --  -18.99948 -18.99430 -14.26155 -14.23287 -14.19912
  Beta  occ. eigenvalues --  -14.19727 -10.20675 -10.17970 -10.17781 -10.10634
  Beta  occ. eigenvalues --  -10.08430 -10.07878 -10.07638 -10.06344  -0.96903
  Beta  occ. eigenvalues --   -0.94493  -0.87508  -0.83871  -0.78207  -0.74833
  Beta  occ. eigenvalues --   -0.71423  -0.66173  -0.60366  -0.59694  -0.54975
  Beta  occ. eigenvalues --   -0.53127  -0.48666  -0.45348  -0.44108  -0.42375
  Beta  occ. eigenvalues --   -0.40757  -0.37502  -0.37306  -0.36379  -0.36155
  Beta  occ. eigenvalues --   -0.33711  -0.33469  -0.32406  -0.32070  -0.31576
  Beta  occ. eigenvalues --   -0.30776  -0.30037  -0.29098  -0.28481  -0.26963
  Beta  occ. eigenvalues --   -0.25091  -0.24885  -0.23884  -0.20306  -0.18760
  Beta  occ. eigenvalues --   -0.17725  -0.17074  -0.15052  -0.14641
  Beta virt. eigenvalues --    0.06350   0.07444   0.08359   0.08538   0.09296
  Beta virt. eigenvalues --    0.09570   0.09944   0.10461   0.11347   0.11549
  Beta virt. eigenvalues --    0.11878   0.12013   0.12995   0.13531   0.14169

 Mulliken charges and spin densities:
               1          2
     1  C    0.170517  -0.746388
     2  C   -0.327209   0.845364
     3  C   -0.457279  -0.199649
     4  C    0.089297  -0.684429
     5  N   -0.033177   0.114715
     6  C   -0.219771   0.224840
     7  O   -0.326246   0.052935
     8  C    0.745664  -1.070428
     9  C    0.578551  -1.156815
    10  N   -0.344479   0.137462
    11  C    0.533231  -0.381741
    12  O   -0.328773   0.013279
    13  N   -0.675306   0.400456
    14  N    0.043615  -0.289248
    15  H    0.111690   0.052274
    16  H   -0.078307   0.225963
    17  H   -0.227695   0.363950
    18  H    0.162638   0.030594
    19  H    0.085062   0.043919
    20  H    0.069777   0.055441
    21  H    0.050276   0.086000
    22  H    0.197303   0.001647
    23  H    0.200109   0.013556
    24  H   -0.476909   0.711311
    25  H    0.097729   0.133408
    26  H    0.038151   0.290140
    27  H   -0.262085   0.539866
    28  H   -0.349012   0.601809
    29  H    0.211274   0.027274
    30  H   -0.278636   0.562496
 Sum of Mulliken charges =  -1.00000   1.00000

 Dipole moment (field-independent basis, Debye):
    X=              7.1728    Y=             -0.0895    Z=             -0.4680  Tot=              7.1886
 Quadrupole moment (field-independent basis, Debye-Ang):
   XX=           -151.4507   YY=           -124.7983   ZZ=           -120.2729
   XY=              3.1831   XZ=             -4.4356   YZ=              2.5632

 Summary of Natural Population Analysis:

                                       Natural Population
                Natural  -----------------------------------------------
    Atom  No    Charge         Core      Valence    Rydberg      Total
 -----------------------------------------------------------------------
      C    1   -0.28660      0.99965     2.28038    0.00656     3.28660
      C    2   -0.12237      0.99961     2.11393    0.00884     3.12237
      C    3   -0.28299      0.99965     2.27885    0.00448     3.28299
      C    4   -0.08652      0.99959     2.07610    0.01083     3.08652
      N    5   -0.27423      0.99961     2.76528    0.00934     3.77423
      C    6    0.36541      0.99965     1.61249    0.02245     2.63459
      O    7   -0.30334      0.99988     3.29793    0.00554     4.30334
      C    8   -0.24481      0.99953     2.23391    0.01137     3.24481
      C    9    0.23341      0.99964     1.74890    0.01805     2.76659
      N   10   -0.33761      0.99964     2.82705    0.01092     3.83761
      C   11    0.42275      0.99967     1.55444    0.02314     2.57725
      O   12   -0.32623      0.99988     3.32109    0.00526     4.32623
      N   13   -0.42533      0.99974     2.91398    0.01162     3.92533
      N   14   -0.42260      0.99973     2.91299    0.00987     3.92260
      H   15    0.10165      0.00000     0.39754    0.00081     0.39835
      H   16    0.09951      0.00000     0.39895    0.00154     0.40049
      H   17    0.09765      0.00000     0.40156    0.00079     0.40235
      H   18    0.10115      0.00000     0.39705    0.00179     0.39885
      H   19    0.09535      0.00000     0.40379    0.00086     0.40465
      H   20    0.09804      0.00000     0.40115    0.00081     0.40196
      H   21    0.09906      0.00000     0.40012    0.00083     0.40094
      H   22    0.10585      0.00000     0.39320    0.00095     0.39415
      H   23    0.11116      0.00000     0.38773    0.00110     0.38884
      H   24    0.12380      0.00000     0.37224    0.00396     0.37620
      H   25    0.11973      0.00000     0.37900    0.00127     0.38027
      H   26    0.20227      0.00000     0.29528    0.00245     0.29773
      H   27    0.18656      0.00000     0.30978    0.00366     0.31344
      H   28    0.18665      0.00000     0.30496    0.00839     0.31335
      H   29    0.17915      0.00000     0.31845    0.00241     0.32085
      H   30    0.18347      0.00000     0.31358    0.00296     0.31653
 =======================================================================
   * Total *    0.00000     13.99545    39.81170    0.19285    54.00000

 Normal termination of Gaussian 16 at Thu Dec 10 11:03:00 2020.
