 Gaussian 16, Revision A.03,

 -----------------------------------------------------------
 # opt freq B3LYP/6-31G(d) empiricaldispersion=gd3bj scf=xqc
 -----------------------------------------------------------

 -------------------------------
 CID_131912745_JID_7198_neutraal
 -------------------------------
 Symbolic Z-matrix:
 Charge =  0 Multiplicity = 1

 SCF Done:  E(RB3LYP) =  -782.013350457     A.U. after   14 cycles
 SCF Done:  E(RB3LYP) =  -782.002660420     A.U. after   12 cycles
 SCF Done:  E(RB3LYP) =  -782.019758922     A.U. after   12 cycles
 SCF Done:  E(RB3LYP) =  -782.020509653     A.U. after   12 cycles
 SCF Done:  E(RB3LYP) =  -782.021925676     A.U. after   11 cycles
 SCF Done:  E(RB3LYP) =  -782.022562089     A.U. after   11 cycles
 SCF Done:  E(RB3LYP) =  -782.022767894     A.U. after   11 cycles
 SCF Done:  E(RB3LYP) =  -782.023008354     A.U. after   12 cycles
 SCF Done:  E(RB3LYP) =  -782.023349510     A.U. after   12 cycles
 SCF Done:  E(RB3LYP) =  -782.023432581     A.U. after   11 cycles
 SCF Done:  E(RB3LYP) =  -782.023780028     A.U. after    7 cycles
 SCF Done:  E(RB3LYP) =  -782.023780934     A.U. after    8 cycles
 SCF Done:  E(RB3LYP) =  -782.023781543     A.U. after    8 cycles
 SCF Done:  E(RB3LYP) =  -782.023782169     A.U. after    8 cycles
 SCF Done:  E(RB3LYP) =  -782.023782485     A.U. after    7 cycles
 SCF Done:  E(RB3LYP) =  -782.023782567     A.U. after    7 cycles
 Optimization completed.
    -- Stationary point found.
 Normal termination of Gaussian 16 at Sun Dec 13 12:45:13 2020.

 --------------------------------------------------------------------
 #N Geom=AllCheck Guess=TCheck SCRF=Check GenChk RB3LYP/6-31G(d) Freq
 --------------------------------------------------------------------

 Structure from the checkpoint file:  "JID_7198.chk"
 -------------------------------
 CID_131912745_JID_7198_neutraal
 -------------------------------
 Charge =  0 Multiplicity = 1

 SCF Done:  E(RB3LYP) =  -782.023782567     A.U. after    1 cycles

  Exact polarizability: 175.768   1.767 139.247  -1.488   9.279 130.817
 Approx polarizability: 227.703   3.186 204.918  -3.619  26.086 203.687

                      1                      2                      3
                      A                      A                      A
 Frequencies --     32.2440                42.2264                48.7108
 Red. masses --      4.0494                 3.3473                 3.9625
 Frc consts  --      0.0025                 0.0035                 0.0055
 IR Inten    --      1.5631                 0.4888                 0.1024

                      4                      5                      6
                      A                      A                      A
 Frequencies --     73.6937                75.5791                84.2260
 Red. masses --      4.2980                 3.6065                 2.8738
 Frc consts  --      0.0138                 0.0121                 0.0120
 IR Inten    --      0.1670                 2.0218                 0.3043

                      7                      8                      9
                      A                      A                      A
 Frequencies --    102.3926               134.7226               147.4643
 Red. masses --      4.3060                 1.8947                 2.8749
 Frc consts  --      0.0266                 0.0203                 0.0368
 IR Inten    --      3.3561                 0.6245                 2.0254

                     10                     11                     12
                      A                      A                      A
 Frequencies --    160.6876               201.3280               222.3022
 Red. masses --      2.7546                 2.2142                 2.3722
 Frc consts  --      0.0419                 0.0529                 0.0691
 IR Inten    --      2.4888                 8.2726                 2.4039

                     13                     14                     15
                      A                      A                      A
 Frequencies --    236.8967               265.2007               269.7222
 Red. masses --      1.7391                 1.4412                 2.7335
 Frc consts  --      0.0575                 0.0597                 0.1172
 IR Inten    --      2.3640                 1.9977                 0.9171

                     16                     17                     18
                      A                      A                      A
 Frequencies --    284.4361               289.9309               297.4974
 Red. masses --      1.3313                 2.0897                 1.5136
 Frc consts  --      0.0635                 0.1035                 0.0789
 IR Inten    --    138.4217                42.7060                 2.4696

                     19                     20                     21
                      A                      A                      A
 Frequencies --    314.6831               332.0390               365.8528
 Red. masses --      2.2711                 3.0354                 2.4764
 Frc consts  --      0.1325                 0.1972                 0.1953
 IR Inten    --      3.4974                24.9057                 4.6113

                     22                     23                     24
                      A                      A                      A
 Frequencies --    419.3087               432.7096               456.3544
 Red. masses --      1.8467                 2.5133                 1.9126
 Frc consts  --      0.1913                 0.2773                 0.2347
 IR Inten    --      9.6571                 2.8479                 0.3336

                     25                     26                     27
                      A                      A                      A
 Frequencies --    473.4352               494.5543               544.6747
 Red. masses --      2.6121                 2.2109                 2.0138
 Frc consts  --      0.3450                 0.3186                 0.3520
 IR Inten    --      3.5496                 6.2680                 9.1031

                     28                     29                     30
                      A                      A                      A
 Frequencies --    618.9080               650.8400               680.1004
 Red. masses --      2.2319                 4.1645                 4.4704
 Frc consts  --      0.5037                 1.0394                 1.2183
 IR Inten    --     13.3435                 5.6890                 8.4744

                     31                     32                     33
                      A                      A                      A
 Frequencies --    725.0848               727.3022               747.4140
 Red. masses --      2.4876                 4.4997                 3.4697
 Frc consts  --      0.7706                 1.4024                 1.1420
 IR Inten    --     43.6285                 6.3637                 3.1354

                     34                     35                     36
                      A                      A                      A
 Frequencies --    786.7399               823.2347               870.5233
 Red. masses --      2.3586                 2.4974                 2.4578
 Frc consts  --      0.8601                 0.9972                 1.0974
 IR Inten    --     25.3407                 1.4104                14.0431

                     37                     38                     39
                      A                      A                      A
 Frequencies --    887.7858               890.2800               938.3292
 Red. masses --      1.3839                 2.3351                 1.9724
 Frc consts  --      0.6426                 1.0905                 1.0232
 IR Inten    --      6.2895                 3.4553                13.7918

                     40                     41                     42
                      A                      A                      A
 Frequencies --    952.5400               968.6589               979.4398
 Red. masses --      1.9583                 2.3558                 1.7422
 Frc consts  --      1.0469                 1.3024                 0.9847
 IR Inten    --     10.2343                 4.4634                 5.6423

                     43                     44                     45
                      A                      A                      A
 Frequencies --    998.4611              1043.8830              1054.4100
 Red. masses --      7.4831                 1.9596                 2.1870
 Frc consts  --      4.3954                 1.2581                 1.4326
 IR Inten    --      3.9066                21.1196                 7.7752

                     46                     47                     48
                      A                      A                      A
 Frequencies --   1062.7835              1069.4902              1076.7184
 Red. masses --      1.8724                 2.5120                 2.3434
 Frc consts  --      1.2461                 1.6929                 1.6007
 IR Inten    --     16.3229                47.8877                25.8019

                     49                     50                     51
                      A                      A                      A
 Frequencies --   1104.0009              1118.5750              1151.9831
 Red. masses --      2.3242                 1.8210                 2.2858
 Frc consts  --      1.6690                 1.3424                 1.7872
 IR Inten    --     30.1090                 1.6276                54.5522

                     52                     53                     54
                      A                      A                      A
 Frequencies --   1165.0668              1171.0567              1174.0608
 Red. masses --      1.4364                 1.3429                 1.5227
 Frc consts  --      1.1488                 1.0851                 1.2367
 IR Inten    --      6.1971                 3.0910                20.2422

                     55                     56                     57
                      A                      A                      A
 Frequencies --   1184.9218              1213.8652              1226.2245
 Red. masses --      2.0018                 1.7748                 2.3570
 Frc consts  --      1.6559                 1.5408                 2.0881
 IR Inten    --      8.8132                11.6391                12.3432

                     58                     59                     60
                      A                      A                      A
 Frequencies --   1244.6757              1260.9916              1266.5951
 Red. masses --      1.4796                 1.5198                 1.6448
 Frc consts  --      1.3505                 1.4239                 1.5547
 IR Inten    --     24.8212                 2.4294                13.5270

                     61                     62                     63
                      A                      A                      A
 Frequencies --   1310.7958              1315.6474              1322.1139
 Red. masses --      4.0940                 1.3557                 2.9339
 Frc consts  --      4.1444                 1.3826                 3.0216
 IR Inten    --     13.4115                 9.9746                16.1926

                     64                     65                     66
                      A                      A                      A
 Frequencies --   1326.3539              1373.5246              1378.3683
 Red. masses --      1.4439                 1.4535                 1.4030
 Frc consts  --      1.4966                 1.6157                 1.5705
 IR Inten    --     19.2346                 4.5167                25.0935

                     67                     68                     69
                      A                      A                      A
 Frequencies --   1387.4869              1392.4153              1405.8829
 Red. masses --      1.3341                 1.3174                 1.3089
 Frc consts  --      1.5132                 1.5049                 1.5243
 IR Inten    --      7.8210                66.2685                 7.1629

                     70                     71                     72
                      A                      A                      A
 Frequencies --   1413.0409              1426.6029              1431.3073
 Red. masses --      1.1703                 1.5016                 1.2771
 Frc consts  --      1.3767                 1.8006                 1.5415
 IR Inten    --     19.7601                 3.1949                15.2907

                     73                     74                     75
                      A                      A                      A
 Frequencies --   1436.4907              1448.0897              1456.5725
 Red. masses --      1.2587                 3.0953                 1.2835
 Frc consts  --      1.5303                 3.8242                 1.6044
 IR Inten    --      4.8717                19.3116                18.4534

                     76                     77                     78
                      A                      A                      A
 Frequencies --   1484.0035              1485.7829              1502.3691
 Red. masses --      1.1852                 1.2365                 1.1000
 Frc consts  --      1.5378                 1.6083                 1.4629
 IR Inten    --      2.3007                 6.7559                 7.3926

                     79                     80                     81
                      A                      A                      A
 Frequencies --   1505.1401              1508.8270              1513.8621
 Red. masses --      1.2221                 1.1383                 1.1153
 Frc consts  --      1.6313                 1.5268                 1.5060
 IR Inten    --      3.1413                 4.4218                11.7334

                     82                     83                     84
                      A                      A                      A
 Frequencies --   1516.5497              1523.1642              1524.5450
 Red. masses --      1.1126                 1.0723                 1.1101
 Frc consts  --      1.5076                 1.4657                 1.5201
 IR Inten    --      4.6838                23.2769                 4.3486

                     85                     86                     87
                      A                      A                      A
 Frequencies --   1528.7938              1533.6141              1536.6491
 Red. masses --      1.3170                 1.3065                 1.0953
 Frc consts  --      1.8136                 1.8105                 1.5238
 IR Inten    --     16.3136                 2.9493                 2.7637

                     88                     89                     90
                      A                      A                      A
 Frequencies --   1549.1611              1550.2510              1554.5213
 Red. masses --      1.6211                 1.2871                 1.0639
 Frc consts  --      2.2922                 1.8225                 1.5147
 IR Inten    --     29.0793                 3.9432                 8.1958

                     91                     92                     93
                      A                      A                      A
 Frequencies --   1576.2868              2890.2264              2943.3666
 Red. masses --      2.4365                 1.0806                 1.0682
 Frc consts  --      3.5668                 5.3183                 5.4523
 IR Inten    --     24.1909                61.7514                41.1108

                     94                     95                     96
                      A                      A                      A
 Frequencies --   2950.8532              3000.2997              3022.3232
 Red. masses --      1.0673                 1.0692                 1.0681
 Frc consts  --      5.4758                 5.6706                 5.7486
 IR Inten    --    208.6153                59.1655                28.8485

                     97                     98                     99
                      A                      A                      A
 Frequencies --   3033.3931              3054.9765              3064.8119
 Red. masses --      1.0723                 1.0406                 1.0845
 Frc consts  --      5.8132                 5.7219                 6.0018
 IR Inten    --     65.0615                25.0058                21.7596

                    100                    101                    102
                      A                      A                      A
 Frequencies --   3066.6722              3072.5515              3080.0683
 Red. masses --      1.0338                 1.0701                 1.0676
 Frc consts  --      5.7282                 5.9522                 5.9675
 IR Inten    --     35.5862                40.2773                10.4060

                    103                    104                    105
                      A                      A                      A
 Frequencies --   3088.6363              3090.3530              3116.7747
 Red. masses --      1.0882                 1.0987                 1.0988
 Frc consts  --      6.1162                 6.1821                 6.2888
 IR Inten    --     24.8272                39.2392                24.9946

                    106                    107                    108
                      A                      A                      A
 Frequencies --   3118.7205              3135.0337              3136.3110
 Red. masses --      1.1033                 1.1031                 1.1047
 Frc consts  --      6.3227                 6.3880                 6.4021
 IR Inten    --     40.8567                17.4538                15.7518

                    109                    110                    111
                      A                      A                      A
 Frequencies --   3155.3658              3171.6735              3178.7352
 Red. masses --      1.1013                 1.0880                 1.1059
 Frc consts  --      6.4604                 6.4485                 6.5839
 IR Inten    --      6.1762                14.8128                34.7051

                    112                    113                    114
                      A                      A                      A
 Frequencies --   3267.4900              3532.0173              3771.7496
 Red. masses --      1.0966                 1.0753                 1.0665
 Frc consts  --      6.8980                 7.9039                 8.9392
 IR Inten    --     14.4978                 0.3800                11.0877

 - Thermochemistry -
 -------------------
 Temperature   298.150 Kelvin.  Pressure   1.00000 Atm.
 Atom     1 has atomic number  6 and mass  12.00000

 Molecular mass:   241.19026 amu.
 Principal axes and moments of inertia in atomic units:
                           1         2         3
     Eigenvalues --  2140.786767151.961737686.13780
           X            0.99997   0.00710  -0.00132
           Y           -0.00713   0.99965  -0.02536
           Z            0.00114   0.02537   0.99968
 This molecule is an asymmetric top.
 Rotational symmetry number  1.
 Warning -- assumption of classical behavior for rotation
           may cause significant error
 Rotational temperatures (Kelvin)      0.04046     0.01211     0.01127
 Rotational constants (GHZ):           0.84303     0.25234     0.23480
 Zero-point vibrational energy     937862.9 (Joules/Mol)
                                  224.15462 (Kcal/Mol)
 Warning -- explicit consideration of  28 degrees of freedom as
           vibrations may cause significant error
 Vibrational temperatures:     46.39    60.75    70.08   106.03   108.74
          (Kelvin)            121.18   147.32   193.84   212.17   231.19
                              289.67   319.84   340.84   381.56   388.07
                              409.24   417.15   428.03   452.76   477.73
                              526.38   603.29   622.57   656.59   681.17
                              711.55   783.67   890.47   936.41   978.51
                             1043.24  1046.43  1075.36  1131.94  1184.45
                             1252.49  1277.33  1280.91  1350.05  1370.49
                             1393.68  1409.20  1436.56  1501.91  1517.06
                             1529.11  1538.76  1549.16  1588.41  1609.38
                             1657.45  1676.27  1684.89  1689.21  1704.84
                             1746.48  1764.26  1790.81  1814.29  1822.35
                             1885.94  1892.92  1902.23  1908.33  1976.20
                             1983.16  1996.28  2003.38  2022.75  2033.05
                             2052.56  2059.33  2066.79  2083.48  2095.68
                             2135.15  2137.71  2161.57  2165.56  2170.87
                             2178.11  2181.98  2191.49  2193.48  2199.59
                             2206.53  2210.90  2228.90  2230.47  2236.61
                             2267.93  4158.39  4234.85  4245.62  4316.76
                             4348.45  4364.38  4395.43  4409.58  4412.26
                             4420.72  4431.53  4443.86  4446.33  4484.34
                             4487.14  4510.61  4512.45  4539.87  4563.33
                             4573.49  4701.19  5081.79  5426.71

 Zero-point correction=                           0.357213 (Hartree/Particle)
 Thermal correction to Energy=                    0.375838
 Thermal correction to Enthalpy=                  0.376782
 Thermal correction to Gibbs Free Energy=         0.309830
 Sum of electronic and zero-point Energies=           -781.666569
 Sum of electronic and thermal Energies=              -781.647944
 Sum of electronic and thermal Enthalpies=            -781.647000
 Sum of electronic and thermal Free Energies=         -781.713953

                     E (Thermal)             CV                S
                      KCal/Mol        Cal/Mol-Kelvin    Cal/Mol-Kelvin
 Total                  235.842             69.059            140.913
 Electronic               0.000              0.000              0.000
 Translational            0.889              2.981             42.342
 Rotational               0.889              2.981             33.131
 Vibrational            234.065             63.097             65.440
 Vibration     1          0.594              1.983              5.686
 Vibration     2          0.595              1.980              5.152
 Vibration     3          0.595              1.978              4.869
 Vibration     4          0.599              1.966              4.052
 Vibration     5          0.599              1.965              4.003
 Vibration     6          0.601              1.960              3.790
 Vibration     7          0.604              1.947              3.408
 Vibration     8          0.613              1.919              2.877
 Vibration     9          0.617              1.905              2.705
 Vibration    10          0.622              1.891              2.542
 Vibration    11          0.638              1.838              2.121
 Vibration    12          0.648              1.807              1.940
 Vibration    13          0.656              1.784              1.826
 Vibration    14          0.671              1.737              1.627
 Vibration    15          0.674              1.729              1.598
 Vibration    16          0.683              1.703              1.507
 Vibration    17          0.686              1.692              1.474
 Vibration    18          0.691              1.678              1.431
 Vibration    19          0.702              1.646              1.338
 Vibration    20          0.714              1.612              1.250
 Vibration    21          0.739              1.543              1.097
 Vibration    22          0.782              1.428              0.894
 Vibration    23          0.794              1.399              0.850
 Vibration    24          0.815              1.347              0.777
 Vibration    25          0.830              1.309              0.728
 Vibration    26          0.850              1.262              0.672
 Vibration    27          0.900              1.151              0.555
 Vibration    28          0.979              0.992              0.418

                           ! Non-Optimized Parameters !
 Normal termination of Gaussian 16 at Sun Dec 13 13:02:47 2020.

 ----------------------------------------------------------------------
 # B3LYP/6-311++G(d,p) empiricaldispersion=gd3bj scf=xqc pop=npa geom=c
 heck
 ----------------------------------------------------------------------

 ---------------------------------------
 CID_131912745_JID_7198_Energie_neutraal
 ---------------------------------------
 Structure from the checkpoint file:  "JID_7198.chk"
 Charge =  0 Multiplicity = 1

 SCF Done:  E(RB3LYP) =  -782.252928176     A.U. after   14 cycles
 Normal termination of Gaussian 16 at Sun Dec 13 13:11:38 2020.

 ----------------------------------------------------------------------
 # B3LYP/6-311++G(d,p) empiricaldispersion=gd3bj scf=xqc pop=npa geom=c
 heck
 ----------------------------------------------------------------------

 -------------------------------------
 CID_131912745_JID_7198_Energie_kation
 -------------------------------------
 Structure from the checkpoint file:  "JID_7198.chk"
 Charge =  1 Multiplicity = 2

 SCF Done:  E(UB3LYP) =  -781.962879172     A.U. after   26 cycles
 Normal termination of Gaussian 16 at Sun Dec 13 13:34:47 2020.
 Gaussian 16:  ES64L-G16RevA.03 25-Dec-2016

 ----------------------------------------------------------------------
 # B3LYP/6-311++G(d,p) empiricaldispersion=gd3bj scf=xqc pop=npa geom=c
 heck
 ----------------------------------------------------------------------

 ------------------------------------
 CID_131912745_JID_7198_Energie_anion
 ------------------------------------
 Structure from the checkpoint file:  "JID_7198.chk"
 Charge = -1 Multiplicity = 2

                         Standard orientation:
 ---------------------------------------------------------------------
 Center     Atomic      Atomic             Coordinates (Angstroms)
 Number     Number       Type             X           Y           Z
 ---------------------------------------------------------------------
      1          6           0       -1.869196    1.725121   -1.669563
      2          6           0       -1.174922    1.786985   -0.302989
      3          6           0       -1.763571    0.886158    0.803881
      4          7           0       -1.584687   -0.559902    0.709508
      5          6           0       -1.799554   -1.206658    1.996495
      6          6           0       -2.243640   -1.265985   -0.391833
      7          6           0       -3.770980   -1.411808   -0.353463
      8          8           0       -4.483648   -0.190543   -0.551880
      9          7           0        0.260263    1.566603   -0.491679
     10          6           0        1.117729    1.921734    0.641931
     11          6           0        1.704522    0.677645    1.339447
     12          6           0        2.737247    0.006069    0.493493
     13          7           0        4.034797    0.308459    0.509524
     14          6           0        4.550752   -0.504030   -0.451515
     15          7           0        3.672553   -1.285735   -1.062975
     16          7           0        2.506270   -0.943784   -0.447024
     17          6           0        1.268160   -1.584629   -0.846176
     18          1           0       -1.469186    0.903725   -2.271461
     19          1           0       -1.689441    2.654262   -2.223482
     20          1           0       -2.947606    1.579163   -1.570371
     21          1           0       -1.364956    2.803282    0.100537
     22          1           0       -1.275996    1.182833    1.740036
     23          1           0       -2.821618    1.184083    0.927255
     24          1           0       -2.819183   -1.077621    2.406135
     25          1           0       -1.610554   -2.281268    1.901157
     26          1           0       -1.097162   -0.802874    2.733969
     27          1           0       -1.960194   -0.789238   -1.329638
     28          1           0       -1.823882   -2.282426   -0.415593
     29          1           0       -4.068667   -2.068308   -1.178895
     30          1           0       -4.091455   -1.903256    0.576560
     31          1           0       -4.506445    0.281032    0.292922
     32          1           0        0.555672    2.072859   -1.320411
     33          1           0        1.953455    2.538563    0.293970
     34          1           0        0.567598    2.524507    1.381616
     35          1           0        2.196402    0.982961    2.268559
     36          1           0        0.893594   -0.012234    1.587622
     37          1           0        5.601982   -0.525803   -0.706379
     38          1           0        1.073119   -1.373003   -1.900666
     39          1           0        1.360613   -2.666226   -0.709317
     40          1           0        0.449444   -1.183771   -0.248814
 ---------------------------------------------------------------------

 SCF Done:  E(UB3LYP) =  -782.246640304     A.U. after   32 cycles

 The electronic state is 2-A.
 Alpha  occ. eigenvalues --  -19.02371 -14.30546 -14.24438 -14.21320 -14.21079
 Alpha  occ. eigenvalues --  -14.20732 -10.14969 -10.12778 -10.11757 -10.11202
 Alpha  occ. eigenvalues --  -10.10955 -10.10892 -10.09788 -10.09668 -10.09012
 Alpha  occ. eigenvalues --  -10.08994 -10.06386  -0.98559  -0.92465  -0.83500
 Alpha  occ. eigenvalues --   -0.81510  -0.81133  -0.75705  -0.68806  -0.65744
 Alpha  occ. eigenvalues --   -0.64471  -0.62199  -0.60318  -0.56689  -0.54624
 Alpha  occ. eigenvalues --   -0.53020  -0.51052  -0.48154  -0.46250  -0.43456
 Alpha  occ. eigenvalues --   -0.42170  -0.40262  -0.40036  -0.39017  -0.38929
 Alpha  occ. eigenvalues --   -0.36893  -0.36122  -0.35638  -0.34042  -0.33443
 Alpha  occ. eigenvalues --   -0.32538  -0.31953  -0.31386  -0.30995  -0.30655
 Alpha  occ. eigenvalues --   -0.30313  -0.29321  -0.28627  -0.27874  -0.27376
 Alpha  occ. eigenvalues --   -0.25597  -0.24590  -0.24153  -0.23829  -0.23122
 Alpha  occ. eigenvalues --   -0.19619  -0.19242  -0.19089  -0.17105  -0.14047
 Alpha  occ. eigenvalues --   -0.11882   0.03899
 Alpha virt. eigenvalues --    0.06115   0.06753   0.07275   0.07961   0.08348
 Alpha virt. eigenvalues --    0.08675   0.08794   0.09407   0.09484   0.10351
 Alpha virt. eigenvalues --    0.11297   0.11534   0.11689   0.12021   0.12329

  Beta  occ. eigenvalues --  -19.02331 -14.30541 -14.24435 -14.21321 -14.21075
  Beta  occ. eigenvalues --  -14.20717 -10.14966 -10.12779 -10.11727 -10.11195
  Beta  occ. eigenvalues --  -10.10938 -10.10876 -10.09779 -10.09631 -10.09003
  Beta  occ. eigenvalues --  -10.08941 -10.06369  -0.98551  -0.92380  -0.83480
  Beta  occ. eigenvalues --   -0.81493  -0.81124  -0.75695  -0.68776  -0.65698
  Beta  occ. eigenvalues --   -0.64430  -0.62179  -0.60258  -0.56599  -0.54590
  Beta  occ. eigenvalues --   -0.53008  -0.50991  -0.48135  -0.46179  -0.43428
  Beta  occ. eigenvalues --   -0.42095  -0.40222  -0.40012  -0.38974  -0.38873
  Beta  occ. eigenvalues --   -0.36848  -0.36099  -0.35605  -0.33999  -0.33411
  Beta  occ. eigenvalues --   -0.32489  -0.31937  -0.31369  -0.30980  -0.30630
  Beta  occ. eigenvalues --   -0.30272  -0.29278  -0.28592  -0.27846  -0.27336
  Beta  occ. eigenvalues --   -0.25570  -0.24548  -0.24119  -0.23813  -0.23081
  Beta  occ. eigenvalues --   -0.19598  -0.19200  -0.19079  -0.17086  -0.13993
  Beta  occ. eigenvalues --   -0.11849
  Beta virt. eigenvalues --    0.06183   0.06821   0.07416   0.07553   0.08358
  Beta virt. eigenvalues --    0.08500   0.08951   0.09288   0.09580   0.09871
  Beta virt. eigenvalues --    0.10638   0.11624   0.11655   0.11977   0.12389

 Mulliken charges and spin densities:
               1          2
     1  C    0.299039  -1.011599
     2  C   -1.099568   0.798450
     3  C    0.801630  -1.185079
     4  N   -0.138162   0.228492
     5  C    0.961281  -1.331605
     6  C   -0.744384   0.881697
     7  C    0.949357  -1.645928
     8  O   -0.232192  -0.005912
     9  N   -0.052089  -0.015192
    10  C    0.187890  -0.409884
    11  C   -0.317284   0.179110
    12  C   -0.256834  -0.244710
    13  N   -0.082619   0.026808
    14  C   -0.016773   0.050039
    15  N   -0.100829  -0.013587
    16  N    0.115866   0.007958
    17  C   -0.709863   0.271148
    18  H    0.096046   0.058972
    19  H   -0.239611   0.383902
    20  H    0.151364   0.034373
    21  H   -0.334868   0.526902
    22  H   -0.036914   0.159036
    23  H   -0.328434   0.427291
    24  H   -0.707406   0.858750
    25  H   -0.227646   0.388471
    26  H   -0.197807   0.335366
    27  H    0.183558  -0.039587
    28  H   -0.056592   0.208195
    29  H   -0.116020   0.291362
    30  H   -0.181770   0.345525
    31  H   -0.078886   0.334669
    32  H    0.184068   0.089025
    33  H    0.045337   0.124874
    34  H   -0.114893   0.281587
    35  H   -0.023578   0.232410
    36  H    0.094572  -0.024603
    37  H    0.131859   0.018810
    38  H    0.027207   0.166880
    39  H    0.067227   0.116242
    40  H    1.098719  -0.898657
 Sum of Mulliken charges =  -1.00000   1.00000

 Dipole moment (field-independent basis, Debye):
    X=              5.8227    Y=             -0.8468    Z=             -3.2842  Tot=              6.7384
 Quadrupole moment (field-independent basis, Debye-Ang):
   XX=           -197.1578   YY=           -148.9891   ZZ=           -148.9348
   XY=              1.0105   XZ=              8.9567   YZ=              0.1134

 Summary of Natural Population Analysis:

                                       Natural Population
                Natural  -----------------------------------------------
    Atom  No    Charge         Core      Valence    Rydberg      Total
 -----------------------------------------------------------------------
      C    1   -0.29431      0.99964     2.28811    0.00656     3.29431
      C    2   -0.00759      0.99960     1.99530    0.01270     3.00759
      C    3   -0.08474      0.99957     2.06979    0.01539     3.08474
      N    4   -0.29553      0.99973     2.78002    0.01577     3.79553
      C    5   -0.17684      0.99963     2.16812    0.00909     3.17684
      C    6   -0.09788      0.99959     2.08651    0.01178     3.09788
      C    7   -0.01897      0.99959     2.00670    0.01268     3.01897
      O    8   -0.37278      0.99990     3.36612    0.00676     4.37278
      N    9   -0.34744      0.99971     2.83549    0.01224     3.84744
      C   10   -0.08185      0.99961     2.07185    0.01039     3.08185
      C   11   -0.22101      0.99958     2.21229    0.00914     3.22101
      C   12    0.20705      0.99959     1.77706    0.01630     2.79295
      N   13   -0.27421      0.99970     2.76527    0.00924     3.77421
      C   14    0.08326      0.99971     1.89731    0.01972     2.91674
      N   15   -0.16585      0.99974     2.65544    0.01068     3.66585
      N   16   -0.10978      0.99960     2.59905    0.01112     3.60978
      C   17   -0.18077      0.99962     2.17370    0.00744     3.18077
      H   18    0.09621      0.00000     0.40251    0.00128     0.40379
      H   19    0.09747      0.00000     0.40162    0.00091     0.40253
      H   20    0.11525      0.00000     0.38371    0.00105     0.38475
      H   21    0.08047      0.00000     0.41744    0.00208     0.41953
      H   22    0.09772      0.00000     0.39992    0.00236     0.40228
      H   23    0.08488      0.00000     0.41243    0.00269     0.41512
      H   24    0.08783      0.00000     0.40946    0.00271     0.41217
      H   25    0.09548      0.00000     0.40329    0.00124     0.40452
      H   26    0.09538      0.00000     0.40338    0.00124     0.40462
      H   27    0.09924      0.00000     0.39903    0.00172     0.40076
      H   28    0.09452      0.00000     0.40417    0.00130     0.40548
      H   29    0.08419      0.00000     0.41465    0.00117     0.41581
      H   30    0.08215      0.00000     0.41622    0.00163     0.41785
      H   31    0.23345      0.00000     0.26162    0.00492     0.26655
      H   32    0.17673      0.00000     0.32091    0.00236     0.32327
      H   33    0.09542      0.00000     0.40351    0.00107     0.40458
      H   34    0.09003      0.00000     0.40846    0.00151     0.40997
      H   35    0.11114      0.00000     0.38758    0.00128     0.38886
      H   36    0.11353      0.00000     0.38411    0.00236     0.38647
      H   37    0.08918      0.00000     0.41004    0.00078     0.41082
      H   38    0.10071      0.00000     0.39805    0.00124     0.39929
      H   39    0.09596      0.00000     0.40279    0.00125     0.40404
      H   40    0.12230      0.00000     0.37504    0.00266     0.37770
 =======================================================================
   * Total *   -0.00000     16.99412    48.76808    0.23781    66.00000

 Normal termination of Gaussian 16 at Sun Dec 13 14:02:56 2020.
