 Gaussian 16, Revision A.03,

 -----------------------------------------------------------
 # opt freq B3LYP/6-31G(d) empiricaldispersion=gd3bj scf=xqc
 -----------------------------------------------------------

 ------------------------------
 CID_142909919_JID_605_neutraal
 ------------------------------
 Symbolic Z-matrix:
 Charge =  0 Multiplicity = 1

 SCF Done:  E(RB3LYP) =  -421.597667455     A.U. after   15 cycles
 SCF Done:  E(RB3LYP) =  -421.603055760     A.U. after   12 cycles
 SCF Done:  E(RB3LYP) =  -421.603824313     A.U. after   11 cycles
 SCF Done:  E(RB3LYP) =  -421.604043774     A.U. after   11 cycles
 SCF Done:  E(RB3LYP) =  -421.604502648     A.U. after   11 cycles
 SCF Done:  E(RB3LYP) =  -421.604652479     A.U. after   13 cycles
 SCF Done:  E(RB3LYP) =  -421.605039392     A.U. after   11 cycles
 SCF Done:  E(RB3LYP) =  -421.605565575     A.U. after   12 cycles
 SCF Done:  E(RB3LYP) =  -421.605635231     A.U. after   11 cycles
 SCF Done:  E(RB3LYP) =  -421.605647800     A.U. after    9 cycles
 SCF Done:  E(RB3LYP) =  -421.605654170     A.U. after    9 cycles
 SCF Done:  E(RB3LYP) =  -421.605655875     A.U. after    8 cycles
 SCF Done:  E(RB3LYP) =  -421.605656659     A.U. after    8 cycles
 SCF Done:  E(RB3LYP) =  -421.605656773     A.U. after    7 cycles
 Optimization completed.
    -- Stationary point found.

 1\1\GINC-NODE320\FOpt\RB3LYP\6-31G(d)\C8H12N2\VSC10255\08-Dec-2020\0\\
 # opt freq B3LYP/6-31G(d) empiricaldispersion=gd3bj scf=xqc\\CID_14290
 9919_JID_605_neutraal\\0,1\C,1.0378276365,0.1259454533,-0.0031536506\C
 ,0.6724052495,-1.2439223611,-0.4758652219\N,-0.5031139512,-1.755096843
 1,-0.4145158233\C,-0.401472986,-3.0840808768,-1.0499571867\C,-1.051427
 5269,-4.2608812477,-0.3285514149\C,-0.6832498619,-5.5396431507,-1.1008
 256039\C,0.8396017511,-5.7987231914,-1.163233523\C,1.6659566003,-4.536
 9624701,-1.2643406862\C,1.0883766013,-3.3354792873,-1.195333521\N,1.65

 Normal termination of Gaussian 16 at Tue Dec  8 12:17:01 2020.

 --------------------------------------------------------------------
 #N Geom=AllCheck Guess=TCheck SCRF=Check GenChk RB3LYP/6-31G(d) Freq
 --------------------------------------------------------------------

 Structure from the checkpoint file:  "JID_605.chk"
 ------------------------------
 CID_142909919_JID_605_neutraal
 ------------------------------
 Charge =  0 Multiplicity = 1

 SCF Done:  E(RB3LYP) =  -421.605656773     A.U. after    1 cycles

  Exact polarizability: 122.106   2.210  91.733   0.427   3.617  62.873
 Approx polarizability: 158.161   5.118 146.087   3.390   6.872  97.616

                      1                      2                      3
                      A                      A                      A
 Frequencies --    119.1682               123.0727               159.2259
 Red. masses --      3.0278                 1.6142                 1.4511
 Frc consts  --      0.0253                 0.0144                 0.0217
 IR Inten    --      0.6159                 3.4482                 1.9371

                      4                      5                      6
                      A                      A                      A
 Frequencies --    252.2873               263.2406               285.6993
 Red. masses --      2.5650                 2.6424                 2.1666
 Frc consts  --      0.0962                 0.1079                 0.1042
 IR Inten    --      1.1883                 0.6017                 3.3305

                      7                      8                      9
                      A                      A                      A
 Frequencies --    370.7149               427.4165               436.2172
 Red. masses --      2.7388                 3.9190                 2.9958
 Frc consts  --      0.2218                 0.4218                 0.3359
 IR Inten    --      4.0991                 5.8643                 2.1553

                     10                     11                     12
                      A                      A                      A
 Frequencies --    491.9251               567.3527               607.4548
 Red. masses --      2.0434                 1.9356                 3.0334
 Frc consts  --      0.2913                 0.3671                 0.6595
 IR Inten    --     81.5405                47.2984                 6.5547

                     13                     14                     15
                      A                      A                      A
 Frequencies --    635.9143               700.3216               735.4886
 Red. masses --      3.4192                 2.6512                 4.0583
 Frc consts  --      0.8147                 0.7661                 1.2934
 IR Inten    --      2.8118                15.0435                 9.2765

                     16                     17                     18
                      A                      A                      A
 Frequencies --    802.1065               811.9666               865.3642
 Red. masses --      1.5833                 2.1430                 2.7307
 Frc consts  --      0.6002                 0.8324                 1.2048
 IR Inten    --     22.3735                 3.7357                 2.2169

                     19                     20                     21
                      A                      A                      A
 Frequencies --    887.1653               928.0030               961.1619
 Red. masses --      1.9549                 1.6734                 2.4221
 Frc consts  --      0.9066                 0.8491                 1.3184
 IR Inten    --      2.2881                 7.6028                 6.2676

                     22                     23                     24
                      A                      A                      A
 Frequencies --    987.3255              1024.2444              1059.1633
 Red. masses --      2.2342                 2.2920                 2.3331
 Frc consts  --      1.2832                 1.4167                 1.5421
 IR Inten    --     10.1264                 8.9409                 1.8864

                     25                     26                     27
                      A                      A                      A
 Frequencies --   1073.2805              1095.4826              1099.9277
 Red. masses --      1.6738                 1.9242                 1.9902
 Frc consts  --      1.1360                 1.3606                 1.4187
 IR Inten    --      2.8236                 6.8734                17.8960

                     28                     29                     30
                      A                      A                      A
 Frequencies --   1130.5794              1179.2255              1188.9375
 Red. masses --      1.8856                 1.4859                 2.0200
 Frc consts  --      1.4201                 1.2174                 1.6824
 IR Inten    --     25.9605                 5.7581                36.9322

                     31                     32                     33
                      A                      A                      A
 Frequencies --   1239.7340              1276.5716              1288.8277
 Red. masses --      1.3911                 1.4083                 2.0087
 Frc consts  --      1.2597                 1.3522                 1.9659
 IR Inten    --     16.6411                 1.5581                 2.5693

                     34                     35                     36
                      A                      A                      A
 Frequencies --   1296.8089              1332.0797              1370.1763
 Red. masses --      1.3386                 1.3690                 1.5729
 Frc consts  --      1.3264                 1.4313                 1.7398
 IR Inten    --     19.3897                24.1127                66.9816

                     37                     38                     39
                      A                      A                      A
 Frequencies --   1388.6428              1392.2851              1395.4082
 Red. masses --      1.5606                 1.6646                 1.4223
 Frc consts  --      1.7731                 1.9012                 1.6317
 IR Inten    --      3.4444                 8.3579                 4.9061

                     40                     41                     42
                      A                      A                      A
 Frequencies --   1432.8152              1457.0134              1510.3180
 Red. masses --      1.3472                 1.9950                 1.0464
 Frc consts  --      1.6295                 2.4953                 1.4063
 IR Inten    --      0.4225               118.0557                 8.7281

                     43                     44                     45
                      A                      A                      A
 Frequencies --   1511.1324              1514.7916              1521.3063
 Red. masses --      1.0985                 1.0829                 1.0980
 Frc consts  --      1.4779                 1.4640                 1.4972
 IR Inten    --      7.4860                 1.7872                 4.5454

                     46                     47                     48
                      A                      A                      A
 Frequencies --   1531.9836              1715.2890              1782.7398
 Red. masses --      1.0951                 7.9444                 7.8759
 Frc consts  --      1.5142                13.7716                14.7478
 IR Inten    --      0.3926                96.9976                65.1135

                     49                     50                     51
                      A                      A                      A
 Frequencies --   2981.8276              3001.3847              3027.6899
 Red. masses --      1.0818                 1.0690                 1.0835
 Frc consts  --      5.6672                 5.6738                 5.8521
 IR Inten    --     27.6810                52.5070                18.1980

                     52                     53                     54
                      A                      A                      A
 Frequencies --   3044.5310              3050.6034              3054.4964
 Red. masses --      1.0748                 1.0406                 1.0614
 Frc consts  --      5.8697                 5.7055                 5.8343
 IR Inten    --     61.5558                17.3249                27.7641

                     55                     56                     57
                      A                      A                      A
 Frequencies --   3087.3615              3103.0420              3104.0693
 Red. masses --      1.0979                 1.1046                 1.0996
 Frc consts  --      6.1655                 6.2663                 6.2422
 IR Inten    --     56.4640                39.8097                16.5170

                     58                     59                     60
                      A                      A                      A
 Frequencies --   3160.2382              3173.1588              3596.6219
 Red. masses --      1.0900                 1.0991                 1.0775
 Frc consts  --      6.4137                 6.5202                 8.2120
 IR Inten    --     25.5911                 5.5247                11.2454

 - Thermochemistry -
 -------------------
 Temperature   298.150 Kelvin.  Pressure   1.00000 Atm.
 Atom     1 has atomic number  6 and mass  12.00000

 Molecular mass:   136.10005 amu.
 Principal axes and moments of inertia in atomic units:
                           1         2         3
     Eigenvalues --   553.910261888.170832325.93502
           X            0.99993  -0.01099  -0.00357
           Y            0.01103   0.99987   0.01181
           Z            0.00344  -0.01185   0.99992
 This molecule is an asymmetric top.
 Rotational symmetry number  1.
 Warning -- assumption of classical behavior for rotation
           may cause significant error
 Rotational temperatures (Kelvin)      0.15637     0.04587     0.03724
 Rotational constants (GHZ):           3.25818     0.95581     0.77592
 Zero-point vibrational energy     506094.4 (Joules/Mol)
                                  120.95947 (Kcal/Mol)
 Warning -- explicit consideration of  12 degrees of freedom as
           vibrations may cause significant error
 Vibrational temperatures:    171.46   177.07   229.09   362.99   378.74
          (Kelvin)            411.06   533.38   614.96   627.62   707.77
                              816.29   873.99   914.94  1007.61  1058.20
                             1154.05  1168.24  1245.07  1276.43  1335.19
                             1382.90  1420.54  1473.66  1523.90  1544.21
                             1576.16  1582.55  1626.65  1696.64  1710.62
                             1783.70  1836.70  1854.34  1865.82  1916.57
                             1971.38  1997.95  2003.19  2007.68  2061.50
                             2096.32  2173.01  2174.18  2179.45  2188.82
                             2204.18  2467.92  2564.96  4290.18  4318.32
                             4356.17  4380.40  4389.14  4394.74  4442.02
                             4464.59  4466.06  4546.88  4565.47  5174.74

 Zero-point correction=                           0.192761 (Hartree/Particle)
 Thermal correction to Energy=                    0.201546
 Thermal correction to Enthalpy=                  0.202491
 Thermal correction to Gibbs Free Energy=         0.159387
 Sum of electronic and zero-point Energies=           -421.412896
 Sum of electronic and thermal Energies=              -421.404110
 Sum of electronic and thermal Enthalpies=            -421.403166
 Sum of electronic and thermal Free Energies=         -421.446269

                     E (Thermal)             CV                S
                      KCal/Mol        Cal/Mol-Kelvin    Cal/Mol-Kelvin
 Total                  126.472             34.844             90.718
 Electronic               0.000              0.000              0.000
 Translational            0.889              2.981             40.637
 Rotational               0.889              2.981             29.277
 Vibrational            124.695             28.882             20.805
 Vibration     1          0.609              1.933              3.114
 Vibration     2          0.610              1.930              3.052
 Vibration     3          0.621              1.892              2.559
 Vibration     4          0.664              1.759              1.715
 Vibration     5          0.670              1.740              1.640
 Vibration     6          0.683              1.700              1.499
 Vibration     7          0.743              1.532              1.077
 Vibration     8          0.789              1.411              0.867
 Vibration     9          0.797              1.391              0.839
 Vibration    10          0.848              1.268              0.679
 Vibration    11          0.923              1.102              0.509
 Vibration    12          0.966              1.016              0.437

 Optimization completed.
    -- Stationary point found.

 1\1\GINC-NODE320\Freq\RB3LYP\6-31G(d)\C8H12N2\VSC10255\08-Dec-2020\0\\
 #N Geom=AllCheck Guess=TCheck SCRF=Check GenChk RB3LYP/6-31G(d) Freq\\
 CID_142909919_JID_605_neutraal\\0,1\C,1.0378276365,0.1259454533,-0.003
 1536506\C,0.6724052495,-1.2439223611,-0.4758652219\N,-0.5031139512,-1.
 7550968431,-0.4145158233\C,-0.401472986,-3.0840808768,-1.0499571867\C,
 -1.0514275269,-4.2608812477,-0.3285514149\C,-0.6832498619,-5.539643150
 7,-1.1008256039\C,0.8396017511,-5.7987231914,-1.163233523\C,1.66595660
 03,-4.5369624701,-1.2643406862\C,1.0883766013,-3.3354792873,-1.1953335

 Normal termination of Gaussian 16 at Tue Dec  8 12:22:01 2020.

 ----------------------------------------------------------------------
 # B3LYP/6-311++G(d,p) empiricaldispersion=gd3bj scf=xqc pop=npa geom=c
 heck
 ----------------------------------------------------------------------

 --------------------------------------
 CID_142909919_JID_605_Energie_neutraal
 --------------------------------------
 Structure from the checkpoint file:  "JID_605.chk"
 Charge =  0 Multiplicity = 1

 SCF Done:  E(RB3LYP) =  -421.721152026     A.U. after   15 cycles
 Normal termination of Gaussian 16 at Tue Dec  8 12:24:47 2020.

 ----------------------------------------------------------------------
 # B3LYP/6-311++G(d,p) empiricaldispersion=gd3bj scf=xqc pop=npa geom=c
 heck
 ----------------------------------------------------------------------

 ------------------------------------
 CID_142909919_JID_605_Energie_kation
 ------------------------------------
 Structure from the checkpoint file:  "JID_605.chk"
 Charge =  1 Multiplicity = 2

 SCF Done:  E(UB3LYP) =  -421.443830775     A.U. after   19 cycles
 Normal termination of Gaussian 16 at Tue Dec  8 12:27:56 2020.
 Gaussian 16:  ES64L-G16RevA.03 25-Dec-2016

 -----------------------------------
 CID_142909919_JID_605_Energie_anion
 -----------------------------------
 Structure from the checkpoint file:  "JID_605.chk"
 Charge = -1 Multiplicity = 2

                         Standard orientation:
 ---------------------------------------------------------------------
 Center     Atomic      Atomic             Coordinates (Angstroms)
 Number     Number       Type             X           Y           Z
 ---------------------------------------------------------------------
      1          6           0       -3.423107   -0.012980    0.269375
      2          6           0       -1.955844   -0.085091   -0.005338
      3          7           0       -1.273926   -1.169269   -0.085671
      4          6           0        0.101636   -0.758877   -0.431678
      5          6           0        1.244839   -1.398183    0.350692
      6          6           0        2.548594   -0.706024   -0.083283
      7          6           0        2.560348    0.812366    0.207317
      8          6           0        1.210470    1.472224    0.041364
      9          6           0        0.124021    0.745241   -0.228913
     10          7           0       -1.236792    1.103932   -0.240093
     11          1           0       -3.629014    0.588729    1.163697
     12          1           0       -3.810656   -1.021041    0.422644
     13          1           0       -3.951152    0.452887   -0.570946
     14          1           0        0.244121   -0.995994   -1.499287
     15          1           0        1.290800   -2.475527    0.158732
     16          1           0        1.070004   -1.258984    1.424845
     17          1           0        3.410717   -1.175238    0.404242
     18          1           0        2.677175   -0.865684   -1.162394
     19          1           0        2.901049    0.984606    1.240548
     20          1           0        3.314362    1.295739   -0.430119
     21          1           0        1.136674    2.540568    0.238378
     22          1           0       -1.544796    1.975239    0.172795
 ---------------------------------------------------------------------

 SCF Done:  E(UB3LYP) =  -421.705700728     A.U. after   32 cycles

 The electronic state is 2-A.
 Alpha  occ. eigenvalues --  -14.22649 -14.17685 -10.13358 -10.09348 -10.09173
 Alpha  occ. eigenvalues --  -10.06735 -10.06645 -10.06590 -10.06351 -10.04811
 Alpha  occ. eigenvalues --   -0.88417  -0.75676  -0.72400  -0.65500  -0.63131
 Alpha  occ. eigenvalues --   -0.59908  -0.51091  -0.50223  -0.46494  -0.43844
 Alpha  occ. eigenvalues --   -0.39804  -0.37682  -0.34522  -0.33636  -0.32967
 Alpha  occ. eigenvalues --   -0.30969  -0.29428  -0.29144  -0.28967  -0.27169
 Alpha  occ. eigenvalues --   -0.24073  -0.23542  -0.23063  -0.21653  -0.17628
 Alpha  occ. eigenvalues --   -0.15782  -0.09451   0.04841
 Alpha virt. eigenvalues --    0.06734   0.08127   0.08662   0.09289   0.10078
 Alpha virt. eigenvalues --    0.10228   0.10975   0.11834   0.12182   0.12425
 Alpha virt. eigenvalues --    0.12680   0.13526   0.14732   0.15515   0.16947

  Beta  occ. eigenvalues --  -14.22602 -14.17678 -10.13355 -10.09350 -10.09164
  Beta  occ. eigenvalues --  -10.06721 -10.06629 -10.06537 -10.06343 -10.04789
  Beta  occ. eigenvalues --   -0.88385  -0.75630  -0.72373  -0.65453  -0.63096
  Beta  occ. eigenvalues --   -0.59846  -0.51050  -0.50162  -0.46423  -0.43787
  Beta  occ. eigenvalues --   -0.39744  -0.37646  -0.34491  -0.33587  -0.32925
  Beta  occ. eigenvalues --   -0.30920  -0.29384  -0.29089  -0.28931  -0.27133
  Beta  occ. eigenvalues --   -0.24034  -0.23512  -0.23034  -0.21622  -0.17611
  Beta  occ. eigenvalues --   -0.15756  -0.09417
  Beta virt. eigenvalues --    0.07062   0.08014   0.08770   0.09024   0.09822
  Beta virt. eigenvalues --    0.10807   0.10993   0.11172   0.12065   0.12336
  Beta virt. eigenvalues --    0.12777   0.13132   0.14117   0.14847   0.15817

 Mulliken charges and spin densities:
               1          2
     1  C    3.531156  -4.113743
     2  C   -1.558646   1.465987
     3  N   -0.131937   0.071049
     4  C   -0.388510   0.465024
     5  C   -0.537946   0.421072
     6  C   -0.616214   0.479764
     7  C    1.959934  -2.833205
     8  C   -1.729405   2.110167
     9  C    1.417747  -1.992878
    10  N   -0.183481   0.144725
    11  H   -0.665402   0.843223
    12  H    0.032118   0.121442
    13  H   -0.408984   0.572235
    14  H   -0.053785   0.247439
    15  H    0.097478   0.055448
    16  H   -0.067826   0.218569
    17  H   -0.225466   0.384130
    18  H    0.026938   0.108182
    19  H    0.014286   0.117854
    20  H   -0.153126   0.286180
    21  H   -1.072381   1.260386
    22  H   -0.286551   0.566950
 Sum of Mulliken charges =  -1.00000   1.00000

 Dipole moment (field-independent basis, Debye):
    X=              3.5376    Y=             -4.7663    Z=             -1.8303  Tot=              6.2115
 Quadrupole moment (field-independent basis, Debye-Ang):
   XX=           -121.6619   YY=           -105.1294   ZZ=            -88.6834
   XY=              4.3521   XZ=              3.0550   YZ=             -3.1855

 Summary of Natural Population Analysis:

                                       Natural Population
                Natural  -----------------------------------------------
    Atom  No    Charge         Core      Valence    Rydberg      Total
 -----------------------------------------------------------------------
      C    1   -0.30877      0.99962     2.30297    0.00618     3.30877
      C    2    0.22918      0.99961     1.75343    0.01778     2.77082
      N    3   -0.26994      0.99968     2.75994    0.01033     3.76994
      C    4   -0.03214      0.99952     2.01961    0.01301     3.03214
      C    5   -0.18627      0.99961     2.17878    0.00787     3.18627
      C    6   -0.18619      0.99963     2.17950    0.00706     3.18619
      C    7   -0.19599      0.99963     2.18695    0.00941     3.19599
      C    8   -0.12973      0.99946     2.12023    0.01004     3.12973
      C    9    0.08331      0.99945     1.90339    0.01385     2.91669
      N   10   -0.31775      0.99964     2.80559    0.01252     3.81775
      H   11    0.11245      0.00000     0.38414    0.00341     0.38755
      H   12    0.11089      0.00000     0.38785    0.00126     0.38911
      H   13    0.10981      0.00000     0.38856    0.00163     0.39019
      H   14    0.09651      0.00000     0.40198    0.00151     0.40349
      H   15    0.09831      0.00000     0.40039    0.00130     0.40169
      H   16    0.09824      0.00000     0.40023    0.00153     0.40176
      H   17    0.09794      0.00000     0.40081    0.00124     0.40206
      H   18    0.09185      0.00000     0.40650    0.00165     0.40815
      H   19    0.09666      0.00000     0.40184    0.00150     0.40334
      H   20    0.09741      0.00000     0.40123    0.00136     0.40259
      H   21    0.10116      0.00000     0.39666    0.00219     0.39884
      H   22    0.20304      0.00000     0.28278    0.01418     0.29696
 =======================================================================
   * Total *   -0.00000      9.99585    26.86336    0.14079    37.00000

 Normal termination of Gaussian 16 at Tue Dec  8 12:39:33 2020.
