 Gaussian 16, Revision A.03,

 -----------------------------------------------------------
 # opt freq B3LYP/6-31G(d) empiricaldispersion=gd3bj scf=xqc
 -----------------------------------------------------------

 ------------------------------
 CID_65249946_JID_6863_neutraal
 ------------------------------
 Symbolic Z-matrix:
 Charge =  0 Multiplicity = 1

 SCF Done:  E(RB3LYP) =  -711.869588892     A.U. after   14 cycles
 SCF Done:  E(RB3LYP) =  -711.875579302     A.U. after   12 cycles
 SCF Done:  E(RB3LYP) =  -711.877063617     A.U. after   12 cycles
 SCF Done:  E(RB3LYP) =  -711.878039312     A.U. after   12 cycles
 SCF Done:  E(RB3LYP) =  -711.878671425     A.U. after   12 cycles
 SCF Done:  E(RB3LYP) =  -711.879127541     A.U. after   12 cycles
 SCF Done:  E(RB3LYP) =  -711.879313699     A.U. after   11 cycles
 SCF Done:  E(RB3LYP) =  -711.879487514     A.U. after   11 cycles
 SCF Done:  E(RB3LYP) =  -711.879551271     A.U. after   10 cycles
 SCF Done:  E(RB3LYP) =  -711.879624734     A.U. after   11 cycles
 SCF Done:  E(RB3LYP) =  -711.879780952     A.U. after    9 cycles
 SCF Done:  E(RB3LYP) =  -711.879783139     A.U. after    9 cycles
 SCF Done:  E(RB3LYP) =  -711.879783585     A.U. after    8 cycles
 SCF Done:  E(RB3LYP) =  -711.879783718     A.U. after    7 cycles
 SCF Done:  E(RB3LYP) =  -711.879783781     A.U. after    7 cycles
 Optimization completed.
    -- Stationary point found.
 Normal termination of Gaussian 16 at Fri Dec 11 01:03:06 2020.

 --------------------------------------------------------------------
 #N Geom=AllCheck Guess=TCheck SCRF=Check GenChk RB3LYP/6-31G(d) Freq
 --------------------------------------------------------------------

 Structure from the checkpoint file:  "JID_6863.chk"
 ------------------------------
 CID_65249946_JID_6863_neutraal
 ------------------------------
 Charge =  0 Multiplicity = 1

 SCF Done:  E(RB3LYP) =  -711.879783781     A.U. after    1 cycles

  Exact polarizability: 184.235  -0.716 141.664  -2.415  -1.642 119.951
 Approx polarizability: 229.971   9.305 210.472  -3.761  -3.383 177.557

                      1                      2                      3
                      A                      A                      A
 Frequencies --     18.6986                19.9860                47.4974
 Red. masses --      4.4993                 3.9420                 3.4674
 Frc consts  --      0.0009                 0.0009                 0.0046
 IR Inten    --      0.7976                 0.2216                 1.9414

                      4                      5                      6
                      A                      A                      A
 Frequencies --     83.2797                94.1051               105.9217
 Red. masses --      4.8191                 3.3618                 3.0548
 Frc consts  --      0.0197                 0.0175                 0.0202
 IR Inten    --      0.3803                 1.3644                 2.1241

                      7                      8                      9
                      A                      A                      A
 Frequencies --    155.3622               159.6579               167.6705
 Red. masses --      3.1510                 2.0766                 2.2632
 Frc consts  --      0.0448                 0.0312                 0.0375
 IR Inten    --      0.2128                 9.1893                 1.5999

                     10                     11                     12
                      A                      A                      A
 Frequencies --    195.9987               219.7492               233.2857
 Red. masses --      1.0955                 1.6762                 1.3700
 Frc consts  --      0.0248                 0.0477                 0.0439
 IR Inten    --      0.9104                 2.6795                 4.5050

                     13                     14                     15
                      A                      A                      A
 Frequencies --    249.5693               260.2784               278.6264
 Red. masses --      1.2913                 1.2342                 1.7098
 Frc consts  --      0.0474                 0.0493                 0.0782
 IR Inten    --     45.8248                 2.0660                 6.8157

                     16                     17                     18
                      A                      A                      A
 Frequencies --    329.5069               342.6199               352.7183
 Red. masses --      2.4619                 1.9680                 2.6701
 Frc consts  --      0.1575                 0.1361                 0.1957
 IR Inten    --      3.4567                 0.7078                 3.1668

                     19                     20                     21
                      A                      A                      A
 Frequencies --    363.5112               376.7234               411.4457
 Red. masses --      2.7229                 4.1830                 2.1632
 Frc consts  --      0.2120                 0.3498                 0.2158
 IR Inten    --      5.8200                 2.3235                 2.0894

                     22                     23                     24
                      A                      A                      A
 Frequencies --    431.2297               447.5798               463.0678
 Red. masses --      1.9399                 2.4214                 2.6661
 Frc consts  --      0.2125                 0.2858                 0.3368
 IR Inten    --      0.0658                 2.9170                 2.2860

                     25                     26                     27
                      A                      A                      A
 Frequencies --    485.7466               509.2238               526.0366
 Red. masses --      3.1978                 2.3266                 2.8264
 Frc consts  --      0.4445                 0.3555                 0.4608
 IR Inten    --      3.9844                 5.0799                 6.0891

                     28                     29                     30
                      A                      A                      A
 Frequencies --    572.7256               591.4296               613.7738
 Red. masses --      3.3445                 3.3596                 2.3861
 Frc consts  --      0.6464                 0.6924                 0.5296
 IR Inten    --     10.5047                 8.0710                12.3096

                     31                     32                     33
                      A                      A                      A
 Frequencies --    721.1368               756.0373               774.6923
 Red. masses --      3.0508                 3.2677                 1.2238
 Frc consts  --      0.9348                 1.1005                 0.4327
 IR Inten    --      3.3058                 2.5431                 5.8226

                     34                     35                     36
                      A                      A                      A
 Frequencies --    798.2324               849.8434               870.1007
 Red. masses --      2.7254                 1.6023                 1.3583
 Frc consts  --      1.0232                 0.6818                 0.6059
 IR Inten    --      9.4520                 0.6656                72.2705

                     37                     38                     39
                      A                      A                      A
 Frequencies --    907.1418               912.6182               937.1531
 Red. masses --      2.0978                 2.1220                 2.2246
 Frc consts  --      1.0171                 1.0413                 1.1511
 IR Inten    --      2.9724                 5.2125                 9.7977

                     40                     41                     42
                      A                      A                      A
 Frequencies --    951.4105               963.5841               975.7839
 Red. masses --      2.8109                 1.5353                 1.5704
 Frc consts  --      1.4991                 0.8399                 0.8810
 IR Inten    --      0.9652                 1.0954                23.8458

                     43                     44                     45
                      A                      A                      A
 Frequencies --    995.3259              1011.7416              1028.4887
 Red. masses --      2.0460                 1.8569                 2.2645
 Frc consts  --      1.1942                 1.1199                 1.4113
 IR Inten    --      2.6005                 9.9510               100.1565

                     46                     47                     48
                      A                      A                      A
 Frequencies --   1048.8775              1058.0311              1067.6275
 Red. masses --      2.1446                 1.7820                 2.0344
 Frc consts  --      1.3901                 1.1753                 1.3662
 IR Inten    --      2.6499                 5.5852                 6.0368

                     49                     50                     51
                      A                      A                      A
 Frequencies --   1075.4536              1087.9792              1091.4375
 Red. masses --      1.6234                 1.7040                 2.5192
 Frc consts  --      1.1062                 1.1884                 1.7681
 IR Inten    --      4.7335                12.1171                 5.0550

                     52                     53                     54
                      A                      A                      A
 Frequencies --   1110.1099              1141.8647              1168.7226
 Red. masses --      2.0327                 1.6991                 1.5287
 Frc consts  --      1.4759                 1.3053                 1.2303
 IR Inten    --     16.2781                16.1757                 8.0711

                     55                     56                     57
                      A                      A                      A
 Frequencies --   1191.9415              1216.3253              1224.8342
 Red. masses --      2.0859                 2.3816                 2.2934
 Frc consts  --      1.7461                 2.0760                 2.0271
 IR Inten    --     43.7329                17.0051                 3.0907

                     58                     59                     60
                      A                      A                      A
 Frequencies --   1249.0853              1266.5935              1278.0595
 Red. masses --      1.3093                 1.8027                 1.5844
 Frc consts  --      1.2036                 1.7039                 1.5248
 IR Inten    --      7.9280                19.5127               115.7629

                     61                     62                     63
                      A                      A                      A
 Frequencies --   1304.4183              1309.4618              1336.6813
 Red. masses --      2.2140                 1.8662                 1.3429
 Frc consts  --      2.2195                 1.8853                 1.4137
 IR Inten    --     10.3475                53.1712                 2.4733

                     64                     65                     66
                      A                      A                      A
 Frequencies --   1346.1258              1369.6717              1372.2993
 Red. masses --      1.3744                 1.2959                 1.2922
 Frc consts  --      1.4674                 1.4323                 1.4337
 IR Inten    --      1.3201                 3.6285                 0.9620

                     67                     68                     69
                      A                      A                      A
 Frequencies --   1399.3740              1401.4934              1406.7292
 Red. masses --      1.3457                 1.4267                 1.2324
 Frc consts  --      1.5527                 1.6510                 1.4369
 IR Inten    --     27.5508                 8.1334                 0.4729

                     70                     71                     72
                      A                      A                      A
 Frequencies --   1412.5770              1418.5910              1422.8134
 Red. masses --      1.2817                 1.4526                 1.2665
 Frc consts  --      1.5068                 1.7223                 1.5107
 IR Inten    --     11.5444                34.5140                 5.7316

                     73                     74                     75
                      A                      A                      A
 Frequencies --   1426.2136              1433.2629              1436.1072
 Red. masses --      1.3345                 1.3645                 1.2957
 Frc consts  --      1.5993                 1.6515                 1.5745
 IR Inten    --     21.4409                 1.2490                 4.2414

                     76                     77                     78
                      A                      A                      A
 Frequencies --   1455.5595              1480.1078              1495.6295
 Red. masses --      1.2779                 2.4508                 1.0847
 Frc consts  --      1.5951                 3.1633                 1.4295
 IR Inten    --      9.2618               241.8751                 3.2294

                     79                     80                     81
                      A                      A                      A
 Frequencies --   1498.3836              1503.8291              1509.2118
 Red. masses --      1.0893                 1.1096                 1.0958
 Frc consts  --      1.4410                 1.4784                 1.4705
 IR Inten    --     11.1326                 9.0713                 1.6579

                     82                     83                     84
                      A                      A                      A
 Frequencies --   1514.2447              1515.5543              1518.5079
 Red. masses --      1.0713                 1.0709                 1.0894
 Frc consts  --      1.4473                 1.4493                 1.4801
 IR Inten    --      4.0183                 0.6027                19.9459

                     85                     86                     87
                      A                      A                      A
 Frequencies --   1523.1681              1527.1471              1532.3279
 Red. masses --      1.0488                 1.0915                 1.0638
 Frc consts  --      1.4336                 1.4998                 1.4717
 IR Inten    --      1.4885                 2.2067                 2.8667

                     88                     89                     90
                      A                      A                      A
 Frequencies --   1534.2668              1539.5162              1547.3014
 Red. masses --      1.1047                 1.0741                 1.0612
 Frc consts  --      1.5321                 1.4998                 1.4968
 IR Inten    --      0.8517                 0.7326                15.1122

                     91                     92                     93
                      A                      A                      A
 Frequencies --   1698.8640              1762.4033              2966.2040
 Red. masses --      1.0877                 9.5378                 1.0726
 Frc consts  --      1.8496                17.4546                 5.5600
 IR Inten    --     25.9469               342.1852                63.0205

                     94                     95                     96
                      A                      A                      A
 Frequencies --   2999.5042              3014.3107              3028.4323
 Red. masses --      1.0685                 1.0686                 1.0636
 Frc consts  --      5.6641                 5.7206                 5.7472
 IR Inten    --     47.4584                45.7037                37.4281

                     97                     98                     99
                      A                      A                      A
 Frequencies --   3039.4314              3040.5142              3043.2651
 Red. masses --      1.0390                 1.0597                 1.0644
 Frc consts  --      5.6554                 5.7718                 5.8084
 IR Inten    --     34.6181                77.1243                21.5403

                    100                    101                    102
                      A                      A                      A
 Frequencies --   3045.7356              3056.2388              3058.0529
 Red. masses --      1.0488                 1.0618                 1.0413
 Frc consts  --      5.7323                 5.8436                 5.7374
 IR Inten    --     14.4546                46.9121                 7.1592

                    103                    104                    105
                      A                      A                      A
 Frequencies --   3068.7505              3071.1330              3082.1177
 Red. masses --      1.0895                 1.0956                 1.0960
 Frc consts  --      6.0453                 6.0882                 6.1342
 IR Inten    --     29.3101                10.2094                47.8360

                    106                    107                    108
                      A                      A                      A
 Frequencies --   3094.4251              3099.3840              3099.8350
 Red. masses --      1.0997                 1.0993                 1.1019
 Frc consts  --      6.2039                 6.2217                 6.2384
 IR Inten    --     18.6497                85.3366                15.2851

                    109                    110                    111
                      A                      A                      A
 Frequencies --   3107.7673              3112.1599              3118.4380
 Red. masses --      1.1012                 1.1012                 1.1011
 Frc consts  --      6.2661                 6.2843                 6.3087
 IR Inten    --     79.2647                35.3245                13.2317

                    112                    113                    114
                      A                      A                      A
 Frequencies --   3137.8745              3153.7403              3162.0709
 Red. masses --      1.0998                 1.0922                 1.0936
 Frc consts  --      6.3803                 6.4004                 6.4425
 IR Inten    --     19.1385                23.7613                 4.5449

                    115                    116                    117
                      A                      A                      A
 Frequencies --   3178.1471              3473.2990              3556.5600
 Red. masses --      1.0997                 1.0500                 1.0922
 Frc consts  --      6.5441                 7.4632                 8.1398
 IR Inten    --      8.4772                 2.0796                 0.3369

 - Thermochemistry -
 -------------------
 Temperature   298.150 Kelvin.  Pressure   1.00000 Atm.
 Atom     1 has atomic number  6 and mass  12.00000

 Molecular mass:   227.19976 amu.
 Principal axes and moments of inertia in atomic units:
                           1         2         3
     Eigenvalues --  1721.750407728.118648043.46378
           X            0.99990  -0.01368   0.00476
           Y            0.01369   0.99990  -0.00269
           Z           -0.00472   0.00276   0.99999
 This molecule is an asymmetric top.
 Rotational symmetry number  1.
 Warning -- assumption of classical behavior for rotation
           may cause significant error
 Rotational temperatures (Kelvin)      0.05031     0.01121     0.01077
 Rotational constants (GHZ):           1.04820     0.23353     0.22437
 Zero-point vibrational energy     984505.7 (Joules/Mol)
                                  235.30250 (Kcal/Mol)
 Warning -- explicit consideration of  30 degrees of freedom as
           vibrations may cause significant error
 Vibrational temperatures:     26.90    28.76    68.34   119.82   135.40
          (Kelvin)            152.40   223.53   229.71   241.24   282.00
                              316.17   335.65   359.07   374.48   400.88
                              474.09   492.95   507.48   523.01   542.02
                              591.98   620.44   643.97   666.25   698.88
                              732.66   756.85   824.02   850.94   883.08
                             1037.56  1087.77  1114.61  1148.48  1222.74
                             1251.88  1305.17  1313.05  1348.35  1368.87
                             1386.38  1403.94  1432.05  1455.67  1479.77
                             1509.10  1522.27  1536.08  1547.34  1565.36
                             1570.34  1597.20  1642.89  1681.53  1714.94
                             1750.02  1762.26  1797.16  1822.35  1838.84
                             1876.77  1884.02  1923.19  1936.77  1970.65
                             1974.43  2013.39  2016.44  2023.97  2032.38
                             2041.04  2047.11  2052.00  2062.15  2066.24
                             2094.23  2129.55  2151.88  2155.84  2163.67
                             2171.42  2178.66  2180.54  2184.79  2191.50
                             2197.22  2204.68  2207.47  2215.02  2226.22
                             2444.29  2535.71  4267.71  4315.62  4336.92
                             4357.24  4373.06  4374.62  4378.58  4382.13
                             4397.25  4399.86  4415.25  4418.68  4434.48
                             4452.19  4459.32  4459.97  4471.38  4477.70
                             4486.74  4514.70  4537.53  4549.51  4572.64
                             4997.30  5117.10

 Zero-point correction=                           0.374978 (Hartree/Particle)
 Thermal correction to Energy=                    0.393001
 Thermal correction to Enthalpy=                  0.393945
 Thermal correction to Gibbs Free Energy=         0.328017
 Sum of electronic and zero-point Energies=           -711.504805
 Sum of electronic and thermal Energies=              -711.486783
 Sum of electronic and thermal Enthalpies=            -711.485839
 Sum of electronic and thermal Free Energies=         -711.551767

                     E (Thermal)             CV                S
                      KCal/Mol        Cal/Mol-Kelvin    Cal/Mol-Kelvin
 Total                  246.612             68.592            138.757
 Electronic               0.000              0.000              0.000
 Translational            0.889              2.981             42.164
 Rotational               0.889              2.981             33.037
 Vibrational            244.834             62.631             63.556
 Vibration     1          0.593              1.986              6.768
 Vibration     2          0.593              1.986              6.636
 Vibration     3          0.595              1.979              4.919
 Vibration     4          0.600              1.961              3.812
 Vibration     5          0.603              1.953              3.573
 Vibration     6          0.605              1.944              3.342
 Vibration     7          0.620              1.897              2.606
 Vibration     8          0.622              1.892              2.554
 Vibration     9          0.624              1.882              2.461
 Vibration    10          0.636              1.845              2.170
 Vibration    11          0.647              1.811              1.961
 Vibration    12          0.654              1.790              1.854
 Vibration    13          0.662              1.763              1.734
 Vibration    14          0.668              1.745              1.660
 Vibration    15          0.679              1.713              1.542
 Vibration    16          0.712              1.617              1.263
 Vibration    17          0.722              1.590              1.200
 Vibration    18          0.729              1.570              1.154
 Vibration    19          0.737              1.547              1.107
 Vibration    20          0.747              1.520              1.052
 Vibration    21          0.775              1.445              0.922
 Vibration    22          0.792              1.402              0.855
 Vibration    23          0.807              1.366              0.803
 Vibration    24          0.821              1.332              0.757
 Vibration    25          0.842              1.282              0.695
 Vibration    26          0.864              1.230              0.635
 Vibration    27          0.881              1.192              0.596
 Vibration    28          0.929              1.090              0.499
 Vibration    29          0.949              1.050              0.465
 Vibration    30          0.973              1.003              0.427

                           ! Non-Optimized Parameters !
 Normal termination of Gaussian 16 at Fri Dec 11 01:17:18 2020.

 ----------------------------------------------------------------------
 # B3LYP/6-311++G(d,p) empiricaldispersion=gd3bj scf=xqc pop=npa geom=c
 heck
 ----------------------------------------------------------------------

 --------------------------------------
 CID_65249946_JID_6863_Energie_neutraal
 --------------------------------------
 Structure from the checkpoint file:  "JID_6863.chk"
 Charge =  0 Multiplicity = 1

 SCF Done:  E(RB3LYP) =  -712.088516551     A.U. after   15 cycles
 Normal termination of Gaussian 16 at Fri Dec 11 01:24:13 2020.

 ----------------------------------------------------------------------
 # B3LYP/6-311++G(d,p) empiricaldispersion=gd3bj scf=xqc pop=npa geom=c
 heck
 ----------------------------------------------------------------------

 ------------------------------------
 CID_65249946_JID_6863_Energie_kation
 ------------------------------------
 Structure from the checkpoint file:  "JID_6863.chk"
 Charge =  1 Multiplicity = 2

 SCF Done:  E(UB3LYP) =  -711.817494129     A.U. after   23 cycles
 Normal termination of Gaussian 16 at Fri Dec 11 01:38:22 2020.
 Gaussian 16:  ES64L-G16RevA.03 25-Dec-2016

 ----------------------------------------------------------------------
 # B3LYP/6-311++G(d,p) empiricaldispersion=gd3bj scf=xqc pop=npa geom=c
 heck
 ----------------------------------------------------------------------

 -----------------------------------
 CID_65249946_JID_6863_Energie_anion
 -----------------------------------
 Structure from the checkpoint file:  "JID_6863.chk"
 Charge = -1 Multiplicity = 2

                         Standard orientation:
 ---------------------------------------------------------------------
 Center     Atomic      Atomic             Coordinates (Angstroms)
 Number     Number       Type             X           Y           Z
 ---------------------------------------------------------------------
      1          6           0        4.538151   -1.372364   -0.588090
      2          6           0        3.863122   -0.007463   -0.544434
      3          8           0        4.519627    1.022075   -0.669259
      4          7           0        2.500026    0.015447   -0.371711
      5          6           0        1.647880   -1.137052   -0.107436
      6          6           0        0.987110   -0.984736    1.278073
      7          7           0        0.318986    0.288186    1.487812
      8          6           0        1.150244    1.425278    1.110994
      9          6           0        1.806848    1.298024   -0.273516
     10          6           0       -1.109859    0.362953    1.212976
     11          6           0       -1.574706    0.256103   -0.252970
     12          6           0       -3.104113    0.325354   -0.484945
     13          6           0       -3.660577    1.693538   -0.057915
     14          6           0       -3.367757    0.115530   -1.984969
     15          6           0       -3.838910   -0.772708    0.317621
     16          7           0       -3.304983   -2.112861    0.043649
     17          1           0        4.115698   -2.015466   -1.367928
     18          1           0        4.448272   -1.900442    0.368011
     19          1           0        5.594460   -1.203396   -0.798032
     20          1           0        0.882190   -1.201820   -0.891858
     21          1           0        2.234628   -2.055463   -0.140506
     22          1           0        1.783263   -1.089840    2.031961
     23          1           0        0.269244   -1.797232    1.441391
     24          1           0        1.958253    1.523810    1.851454
     25          1           0        0.544834    2.336841    1.159710
     26          1           0        2.547661    2.081732   -0.433652
     27          1           0        1.052015    1.354328   -1.068532
     28          1           0       -1.585298   -0.430847    1.805192
     29          1           0       -1.463603    1.308804    1.639737
     30          1           0       -1.106940    1.058779   -0.836572
     31          1           0       -1.210793   -0.685850   -0.679948
     32          1           0       -3.157610    2.504617   -0.597731
     33          1           0       -4.732305    1.761368   -0.280387
     34          1           0       -3.536012    1.875627    1.015338
     35          1           0       -3.063195   -0.890004   -2.288440
     36          1           0       -4.434911    0.230439   -2.212210
     37          1           0       -2.816421    0.848292   -2.586398
     38          1           0       -3.828602   -0.506944    1.389036
     39          1           0       -4.891980   -0.768913    0.010900
     40          1           0       -3.948609   -2.816721    0.398932
     41          1           0       -2.434052   -2.248452    0.554009
 ---------------------------------------------------------------------

 SCF Done:  E(UB3LYP) =  -712.079964520     A.U. after   33 cycles
 SCF Done:  E(UB3LYP) =  -712.079964520     a.u. after    1 cycles

 The electronic state is 2-A.
 Alpha  occ. eigenvalues --  -18.99255 -14.24994 -14.21002 -14.19236 -10.18074
 Alpha  occ. eigenvalues --  -10.11393 -10.10802 -10.10777 -10.10406 -10.10051
 Alpha  occ. eigenvalues --  -10.09241 -10.08850 -10.08477 -10.06880 -10.06846
 Alpha  occ. eigenvalues --  -10.05982  -0.94571  -0.86172  -0.81943  -0.78774
 Alpha  occ. eigenvalues --   -0.71888  -0.68505  -0.66340  -0.64419  -0.60353
 Alpha  occ. eigenvalues --   -0.59429  -0.56406  -0.56281  -0.54446  -0.49867
 Alpha  occ. eigenvalues --   -0.44988  -0.44071  -0.40694  -0.40438  -0.38638
 Alpha  occ. eigenvalues --   -0.38437  -0.38133  -0.37504  -0.36558  -0.35856
 Alpha  occ. eigenvalues --   -0.34594  -0.34114  -0.33322  -0.32750  -0.31761
 Alpha  occ. eigenvalues --   -0.31459  -0.30822  -0.29747  -0.29131  -0.27818
 Alpha  occ. eigenvalues --   -0.27642  -0.27332  -0.26772  -0.26641  -0.26374
 Alpha  occ. eigenvalues --   -0.24750  -0.23831  -0.22839  -0.22407  -0.16574
 Alpha  occ. eigenvalues --   -0.16286  -0.14581  -0.10913   0.03924
 Alpha virt. eigenvalues --    0.05859   0.06484   0.07233   0.07753   0.08463
 Alpha virt. eigenvalues --    0.08637   0.09447   0.09577   0.09993   0.10374
 Alpha virt. eigenvalues --    0.10528   0.10823   0.11554   0.11755   0.12301

  Beta  occ. eigenvalues --  -18.99245 -14.24997 -14.21000 -14.19185 -10.18064
  Beta  occ. eigenvalues --  -10.11374 -10.10794 -10.10765 -10.10371 -10.10031
  Beta  occ. eigenvalues --  -10.09218 -10.08850 -10.08450 -10.06864 -10.06834
  Beta  occ. eigenvalues --  -10.05970  -0.94552  -0.86161  -0.81931  -0.78704
  Beta  occ. eigenvalues --   -0.71852  -0.68478  -0.66303  -0.64385  -0.60326
  Beta  occ. eigenvalues --   -0.59399  -0.56336  -0.56216  -0.54405  -0.49824
  Beta  occ. eigenvalues --   -0.44949  -0.44028  -0.40654  -0.40402  -0.38612
  Beta  occ. eigenvalues --   -0.38419  -0.38090  -0.37468  -0.36496  -0.35832
  Beta  occ. eigenvalues --   -0.34554  -0.34081  -0.33291  -0.32725  -0.31736
  Beta  occ. eigenvalues --   -0.31433  -0.30781  -0.29713  -0.29097  -0.27790
  Beta  occ. eigenvalues --   -0.27609  -0.27303  -0.26730  -0.26617  -0.26344
  Beta  occ. eigenvalues --   -0.24726  -0.23809  -0.22817  -0.22385  -0.16560
  Beta  occ. eigenvalues --   -0.16265  -0.14532  -0.10878
  Beta virt. eigenvalues --    0.05978   0.06594   0.07334   0.07445   0.08081
  Beta virt. eigenvalues --    0.08802   0.09085   0.09672   0.09839   0.10177
  Beta virt. eigenvalues --    0.10517   0.10812   0.11156   0.11673   0.11885

 Mulliken charges and spin densities:
               1          2
     1  C    0.301513  -0.813346
     2  C   -0.014348   0.157586
     3  O   -0.357992  -0.000598
     4  N    0.034102   0.047316
     5  C   -0.401513   0.208518
     6  C    0.854519  -1.385905
     7  N    0.088489   0.157897
     8  C    0.197978  -0.350595
     9  C   -0.232644  -0.067758
    10  C   -0.033361  -0.716184
    11  C   -0.732717   0.087238
    12  C    0.193869   0.916533
    13  C    0.330683  -0.922219
    14  C   -0.592556  -0.027544
    15  C    0.503744  -1.255138
    16  N   -0.464635   0.071673
    17  H   -0.157760   0.319889
    18  H   -0.160850   0.328855
    19  H    0.153082   0.026696
    20  H    0.115990   0.107557
    21  H   -0.383156   0.587424
    22  H   -0.054665   0.255132
    23  H   -0.517574   0.645349
    24  H    0.067340   0.110806
    25  H    0.034518   0.098350
    26  H    0.201120   0.022536
    27  H   -0.031954   0.215655
    28  H    0.001012   0.230320
    29  H    0.072531   0.111915
    30  H    0.371906  -0.291414
    31  H    0.085478  -0.009798
    32  H   -0.054884   0.199493
    33  H   -0.005231   0.154577
    34  H    0.011220   0.111036
    35  H    0.108807   0.065360
    36  H   -0.018689   0.163673
    37  H   -0.030221   0.152277
    38  H   -0.197362   0.329757
    39  H   -0.162816   0.330872
    40  H   -0.280107   0.530266
    41  H    0.157133   0.095943
 Sum of Mulliken charges =  -1.00000   1.00000

 Dipole moment (field-independent basis, Debye):
    X=              1.0537    Y=              4.7092    Z=             -1.3845  Tot=              5.0203
 Quadrupole moment (field-independent basis, Debye-Ang):
   XX=           -199.2289   YY=           -153.5982   ZZ=           -137.2635
   XY=            -12.1316   XZ=              3.6698   YZ=              5.9945

 Summary of Natural Population Analysis:

                                       Natural Population
                Natural  -----------------------------------------------
    Atom  No    Charge         Core      Valence    Rydberg      Total
 -----------------------------------------------------------------------
      C    1   -0.33245      0.99963     2.32776    0.00506     3.33245
      C    2    0.34449      0.99966     1.63308    0.02277     2.65551
      O    3   -0.33184      0.99988     3.32641    0.00555     4.33184
      N    4   -0.25804      0.99964     2.74813    0.01027     3.75804
      C    5   -0.09311      0.99960     2.08285    0.01066     3.09311
      C    6   -0.08741      0.99961     2.07501    0.01279     3.08741
      N    7   -0.27970      0.99973     2.76657    0.01341     3.77970
      C    8   -0.08555      0.99961     2.07649    0.00945     3.08555
      C    9   -0.09749      0.99961     2.08887    0.00901     3.09749
      C   10   -0.07941      0.99959     2.06824    0.01158     3.07941
      C   11   -0.20301      0.99958     2.19494    0.00849     3.20301
      C   12   -0.05005      0.99958     2.03736    0.01311     3.05005
      C   13   -0.28490      0.99962     2.27923    0.00605     3.28490
      C   14   -0.28423      0.99962     2.27857    0.00603     3.28423
      C   15   -0.08726      0.99957     2.07448    0.01321     3.08726
      N   16   -0.42522      0.99977     2.91430    0.01116     3.92522
      H   17    0.10793      0.00000     0.39114    0.00093     0.39207
      H   18    0.11094      0.00000     0.38773    0.00133     0.38906
      H   19    0.11153      0.00000     0.38767    0.00080     0.38847
      H   20    0.09335      0.00000     0.40492    0.00173     0.40665
      H   21    0.10604      0.00000     0.39204    0.00192     0.39396
      H   22    0.09202      0.00000     0.40646    0.00152     0.40798
      H   23    0.10334      0.00000     0.39456    0.00209     0.39666
      H   24    0.09298      0.00000     0.40579    0.00123     0.40702
      H   25    0.09770      0.00000     0.40139    0.00091     0.40230
      H   26    0.11634      0.00000     0.38239    0.00127     0.38366
      H   27    0.09118      0.00000     0.40745    0.00137     0.40882
      H   28    0.09491      0.00000     0.40323    0.00186     0.40509
      H   29    0.09283      0.00000     0.40579    0.00138     0.40717
      H   30    0.09487      0.00000     0.40364    0.00149     0.40513
      H   31    0.10122      0.00000     0.39657    0.00221     0.39878
      H   32    0.09858      0.00000     0.40052    0.00090     0.40142
      H   33    0.09934      0.00000     0.39975    0.00091     0.40066
      H   34    0.09967      0.00000     0.39928    0.00104     0.40033
      H   35    0.11075      0.00000     0.38803    0.00122     0.38925
      H   36    0.09615      0.00000     0.40299    0.00086     0.40385
      H   37    0.09504      0.00000     0.40407    0.00088     0.40496
      H   38    0.08213      0.00000     0.41610    0.00177     0.41787
      H   39    0.09217      0.00000     0.40658    0.00125     0.40783
      H   40    0.17931      0.00000     0.31787    0.00282     0.32069
      H   41    0.17488      0.00000     0.32193    0.00320     0.32512
 =======================================================================
   * Total *    0.00000     15.99429    46.80017    0.20553    63.00000

 Normal termination of Gaussian 16 at Fri Dec 11 01:58:26 2020.
