 Gaussian 16, Revision A.03,

 -----------------------------------------------------------
 # opt freq B3LYP/6-31G(d) empiricaldispersion=gd3bj scf=xqc
 -----------------------------------------------------------

 ------------------------------
 CID_84084220_JID_8162_neutraal
 ------------------------------
 Symbolic Z-matrix:
 Charge =  0 Multiplicity = 1

 SCF Done:  E(RB3LYP) =  -756.031742033     A.U. after   13 cycles
 SCF Done:  E(RB3LYP) =  -756.034641363     A.U. after   10 cycles
 SCF Done:  E(RB3LYP) =  -756.034413380     A.U. after   10 cycles
 SCF Done:  E(RB3LYP) =  -756.034923627     A.U. after   10 cycles
 SCF Done:  E(RB3LYP) =  -756.034953709     A.U. after    9 cycles
 SCF Done:  E(RB3LYP) =  -756.034965768     A.U. after    9 cycles
 SCF Done:  E(RB3LYP) =  -756.034971572     A.U. after    8 cycles
 SCF Done:  E(RB3LYP) =  -756.034971976     A.U. after    7 cycles
 SCF Done:  E(RB3LYP) =  -756.034972108     A.U. after    6 cycles
 Optimization completed.
    -- Stationary point found.
 Normal termination of Gaussian 16 at Fri Dec 11 19:11:04 2020.

 --------------------------------------------------------------------
 #N Geom=AllCheck Guess=TCheck SCRF=Check GenChk RB3LYP/6-31G(d) Freq
 --------------------------------------------------------------------

 Structure from the checkpoint file:  "JID_8162.chk"
 ------------------------------
 CID_84084220_JID_8162_neutraal
 ------------------------------
 Charge =  0 Multiplicity = 1

 SCF Done:  E(RB3LYP) =  -756.034972109     A.U. after    1 cycles

  Exact polarizability: 197.499  -2.719 157.056  -0.386   0.136 146.127
 Approx polarizability: 240.149  -3.522 232.084   2.820   1.866 229.210

                      1                      2                      3
                      A                      A                      A
 Frequencies --     22.8713                46.8348                67.7174
 Red. masses --      3.4701                 3.8512                 3.2578
 Frc consts  --      0.0011                 0.0050                 0.0088
 IR Inten    --      0.2817                 0.2090                 0.1626

                      4                      5                      6
                      A                      A                      A
 Frequencies --    124.6499               169.0518               201.8074
 Red. masses --      3.5689                 3.4602                 3.6105
 Frc consts  --      0.0327                 0.0583                 0.0866
 IR Inten    --      1.5679                 0.3539                 0.3536

                      7                      8                      9
                      A                      A                      A
 Frequencies --    257.6820               258.4454               293.8202
 Red. masses --      2.0879                 2.3447                 2.7243
 Frc consts  --      0.0817                 0.0923                 0.1386
 IR Inten    --      0.4917                 0.2673                 1.7103

                     10                     11                     12
                      A                      A                      A
 Frequencies --    320.7248               341.4094               348.2199
 Red. masses --      2.0277                 2.2287                 1.9502
 Frc consts  --      0.1229                 0.1531                 0.1393
 IR Inten    --      0.0228                 0.7331                 2.0934

                     13                     14                     15
                      A                      A                      A
 Frequencies --    389.3308               404.0386               407.0509
 Red. masses --      2.7222                 4.5352                 3.4560
 Frc consts  --      0.2431                 0.4362                 0.3374
 IR Inten    --      1.1418                 0.0822                 1.1821

                     16                     17                     18
                      A                      A                      A
 Frequencies --    413.1628               441.8021               448.0836
 Red. masses --      3.0529                 2.0264                 2.2294
 Frc consts  --      0.3071                 0.2330                 0.2637
 IR Inten    --      1.0315                 0.6340                 4.9821

                     19                     20                     21
                      A                      A                      A
 Frequencies --    460.8948               469.8054               472.1721
 Red. masses --      1.9779                 2.7929                 2.1197
 Frc consts  --      0.2475                 0.3632                 0.2784
 IR Inten    --      1.9488                 1.6790                 4.6451

                     22                     23                     24
                      A                      A                      A
 Frequencies --    538.0472               550.4589               576.7512
 Red. masses --      3.4961                 2.7154                 1.6633
 Frc consts  --      0.5963                 0.4848                 0.3260
 IR Inten    --     12.2040                 5.6786                23.7575

                     25                     26                     27
                      A                      A                      A
 Frequencies --    654.8000               655.7037               719.9478
 Red. masses --      3.6515                 3.7136                 3.9783
 Frc consts  --      0.9225                 0.9407                 1.2149
 IR Inten    --      0.0930                 0.0913                 0.5864

                     28                     29                     30
                      A                      A                      A
 Frequencies --    783.4816               799.1484               824.7445
 Red. masses --      3.6079                 1.9891                 2.0800
 Frc consts  --      1.3048                 0.7484                 0.8336
 IR Inten    --      0.4383                70.9787                 1.7786

                     31                     32                     33
                      A                      A                      A
 Frequencies --    825.2348               827.3359               853.6969
 Red. masses --      2.4133                 1.9367                 1.9976
 Frc consts  --      0.9683                 0.7811                 0.8577
 IR Inten    --      0.8030                 0.7744                19.7679

                     34                     35                     36
                      A                      A                      A
 Frequencies --    889.1717               905.7429               906.9735
 Red. masses --      2.6734                 1.5855                 1.5840
 Frc consts  --      1.2454                 0.7663                 0.7677
 IR Inten    --      4.3584                 0.3622                 0.2361

                     37                     38                     39
                      A                      A                      A
 Frequencies --    911.6615               912.4029               917.7060
 Red. masses --      2.3880                 1.5648                 2.6200
 Frc consts  --      1.1694                 0.7675                 1.3000
 IR Inten    --      1.2864                 0.4152                 6.6165

                     40                     41                     42
                      A                      A                      A
 Frequencies --    950.2825               953.6576               983.2099
 Red. masses --      2.0379                 2.0131                 1.7749
 Frc consts  --      1.0843                 1.0787                 1.0109
 IR Inten    --      1.1697                 1.8716                 3.0695

                     43                     44                     45
                      A                      A                      A
 Frequencies --    990.8762               997.9734              1000.2440
 Red. masses --      1.9082                 2.2007                 2.1164
 Frc consts  --      1.1039                 1.2914                 1.2476
 IR Inten    --      2.8057                 1.0134                 0.0359

                     46                     47                     48
                      A                      A                      A
 Frequencies --   1007.1834              1011.4461              1058.3225
 Red. masses --      1.9562                 1.7356                 1.8095
 Frc consts  --      1.1692                 1.0462                 1.1941
 IR Inten    --      1.0002                 1.9707                 0.6710

                     49                     50                     51
                      A                      A                      A
 Frequencies --   1059.5009              1063.9727              1071.3145
 Red. masses --      1.8394                 1.7864                 1.6776
 Frc consts  --      1.2165                 1.1915                 1.1344
 IR Inten    --      0.1929                 0.5181                 7.1316

                     52                     53                     54
                      A                      A                      A
 Frequencies --   1075.7625              1106.9061              1120.3709
 Red. masses --      5.0712                 2.7909                 2.1999
 Frc consts  --      3.4578                 2.0148                 1.6270
 IR Inten    --     23.1453                22.6710                60.0198

                     55                     56                     57
                      A                      A                      A
 Frequencies --   1131.1937              1132.8378              1134.1774
 Red. masses --      1.2474                 1.3533                 1.8046
 Frc consts  --      0.9405                 1.0232                 1.3677
 IR Inten    --      2.3698                 5.7320                 4.0581

                     58                     59                     60
                      A                      A                      A
 Frequencies --   1136.5385              1143.2779              1159.0215
 Red. masses --      1.1697                 1.0263                 3.2768
 Frc consts  --      0.8902                 0.7903                 2.5934
 IR Inten    --      6.4298                 0.0394               142.3184

                     61                     62                     63
                      A                      A                      A
 Frequencies --   1160.9224              1180.2852              1187.1770
 Red. masses --      2.7287                 2.0226                 1.3001
 Frc consts  --      2.1668                 1.6601                 1.0796
 IR Inten    --     40.9585                 8.7310                 5.3424

                     64                     65                     66
                      A                      A                      A
 Frequencies --   1219.7269              1220.8464              1249.0032
 Red. masses --      1.1925                 1.1736                 1.2744
 Frc consts  --      1.0453                 1.0306                 1.1713
 IR Inten    --      2.0214                 3.1929                 2.2606

                     67                     68                     69
                      A                      A                      A
 Frequencies --   1269.6600              1300.2669              1311.2625
 Red. masses --      1.3207                 1.5071                 1.5641
 Frc consts  --      1.2544                 1.5013                 1.5845
 IR Inten    --      5.4593                 2.9978                11.8819

                     70                     71                     72
                      A                      A                      A
 Frequencies --   1317.0819              1324.4474              1326.1393
 Red. masses --      1.2671                 1.5775                 1.6764
 Frc consts  --      1.2951                 1.6303                 1.7370
 IR Inten    --      3.8813                 1.8125                 0.4098

                     73                     74                     75
                      A                      A                      A
 Frequencies --   1329.1649              1331.2543              1341.5549
 Red. masses --      1.7273                 1.3991                 1.2508
 Frc consts  --      1.7980                 1.4610                 1.3263
 IR Inten    --      0.1942                 7.9957                 0.5430

                     76                     77                     78
                      A                      A                      A
 Frequencies --   1350.3533              1359.2723              1361.5566
 Red. masses --      1.8938                 1.4457                 1.5459
 Frc consts  --      2.0346                 1.5737                 1.6885
 IR Inten    --     27.0836                 2.1117                 2.7247

                     79                     80                     81
                      A                      A                      A
 Frequencies --   1365.9859              1367.9876              1370.2831
 Red. masses --      1.5938                 1.3156                 1.3197
 Frc consts  --      1.7521                 1.4505                 1.4600
 IR Inten    --      1.1469                 0.0142                35.7465

                     82                     83                     84
                      A                      A                      A
 Frequencies --   1396.4622              1398.2878              1401.2635
 Red. masses --      1.4737                 1.4935                 1.3924
 Frc consts  --      1.6933                 1.7205                 1.6108
 IR Inten    --      0.2855                 0.5528                 0.7597

                     85                     86                     87
                      A                      A                      A
 Frequencies --   1408.7524              1411.2284              1417.1993
 Red. masses --      1.4506                 1.5755                 1.5702
 Frc consts  --      1.6962                 1.8487                 1.8581
 IR Inten    --      8.3783                 2.3406                 0.7921

                     88                     89                     90
                      A                      A                      A
 Frequencies --   1418.9547              1442.5629              1449.9224
 Red. masses --      1.5657                 1.2465                 1.4752
 Frc consts  --      1.8573                 1.5283                 1.8272
 IR Inten    --      0.9171                11.9536                12.9141

                     91                     92                     93
                      A                      A                      A
 Frequencies --   1496.8937              1505.1455              1508.5692
 Red. masses --      1.1915                 1.1541                 1.0885
 Frc consts  --      1.5730                 1.5405                 1.4595
 IR Inten    --      2.4206                 0.2621                 0.0972

                     94                     95                     96
                      A                      A                      A
 Frequencies --   1510.4438              1517.0196              1521.7463
 Red. masses --      1.0947                 1.0947                 1.0937
 Frc consts  --      1.4715                 1.4843                 1.4922
 IR Inten    --      0.1806                 7.1994                 6.8104

                     97                     98                     99
                      A                      A                      A
 Frequencies --   1522.9556              1525.7468              1527.1851
 Red. masses --      1.0940                 1.1012                 1.1232
 Frc consts  --      1.4951                 1.5103                 1.5434
 IR Inten    --      6.6282                 2.0069                 0.9936

                    100                    101                    102
                      A                      A                      A
 Frequencies --   1531.6030              1538.5211              1549.4091
 Red. masses --      1.0894                 1.1057                 1.0945
 Frc consts  --      1.5056                 1.5421                 1.5482
 IR Inten    --      0.5261                 2.2250                 1.4738

                    103                    104                    105
                      A                      A                      A
 Frequencies --   2910.3022              2917.3003              3026.7129
 Red. masses --      1.0743                 1.0727                 1.0645
 Frc consts  --      5.3610                 5.3787                 5.7459
 IR Inten    --     30.5548               126.2945                10.4227

                    106                    107                    108
                      A                      A                      A
 Frequencies --   3028.7938              3028.9346              3029.1603
 Red. masses --      1.0623                 1.0627                 1.0632
 Frc consts  --      5.7414                 5.7445                 5.7482
 IR Inten    --     11.8798                 7.8656                14.3754

                    109                    110                    111
                      A                      A                      A
 Frequencies --   3033.0106              3037.0025              3039.9544
 Red. masses --      1.0757                 1.0647                 1.0669
 Frc consts  --      5.8302                 5.7860                 5.8089
 IR Inten    --      5.1917                18.7104                15.1075

                    112                    113                    114
                      A                      A                      A
 Frequencies --   3042.6784              3046.4591              3048.6644
 Red. masses --      1.0723                 1.0724                 1.0685
 Frc consts  --      5.8490                 5.8638                 5.8513
 IR Inten    --     28.6698                69.1919                64.6951

                    115                    116                    117
                      A                      A                      A
 Frequencies --   3051.9894              3055.5548              3063.0902
 Red. masses --      1.0763                 1.0718                 1.0796
 Frc consts  --      5.9068                 5.8957                 5.9682
 IR Inten    --    124.7596               105.9600                 2.0488

                    118                    119                    120
                      A                      A                      A
 Frequencies --   3066.3924              3067.5171              3072.9852
 Red. masses --      1.0984                 1.1037                 1.1034
 Frc consts  --      6.0849                 6.1188                 6.1391
 IR Inten    --     23.6980                22.6321               114.1371

                    121                    122                    123
                      A                      A                      A
 Frequencies --   3076.1047              3077.3065              3078.9301
 Red. masses --      1.1000                 1.0899                 1.0884
 Frc consts  --      6.1325                 6.0810                 6.0791
 IR Inten    --      1.2425                80.5119                53.5811

                    124                    125                    126
                      A                      A                      A
 Frequencies --   3083.1473              3088.4531              3091.6043
 Red. masses --      1.1032                 1.1037                 1.1014
 Frc consts  --      6.1787                 6.2028                 6.2027
 IR Inten    --     45.7151                47.4298                61.5988

                    127                    128                    129
                      A                      A                      A
 Frequencies --   3098.4249              3111.1450              3499.9089
 Red. masses --      1.0998                 1.0957                 1.0745
 Frc consts  --      6.2207                 6.2484                 7.7551
 IR Inten    --     46.3017                28.2655                 2.9624

 - Thermochemistry -
 -------------------
 Temperature   298.150 Kelvin.  Pressure   1.00000 Atm.
 Atom     1 has atomic number  6 and mass  12.00000

 Molecular mass:   249.20926 amu.
 Principal axes and moments of inertia in atomic units:
                           1         2         3
     Eigenvalues --  1827.367667994.678218549.90518
           X            1.00000  -0.00192  -0.00234
           Y            0.00189   0.99993  -0.01157
           Z            0.00236   0.01156   0.99993
 This molecule is an asymmetric top.
 Rotational symmetry number  1.
 Warning -- assumption of classical behavior for rotation
           may cause significant error
 Rotational temperatures (Kelvin)      0.04740     0.01083     0.01013
 Rotational constants (GHZ):           0.98762     0.22574     0.21108
 Zero-point vibrational energy    1098867.4 (Joules/Mol)
                                  262.63562 (Kcal/Mol)
 Warning -- explicit consideration of  24 degrees of freedom as
           vibrations may cause significant error
 Vibrational temperatures:     32.91    67.38    97.43   179.34   243.23
          (Kelvin)            290.36   370.75   371.85   422.74   461.45
                              491.21   501.01   560.16   581.32   585.66
                              594.45   635.65   644.69   663.12   675.95
                              679.35   774.13   791.99   829.82   942.11
                              943.41  1035.84  1127.26  1149.80  1186.62
                             1187.33  1190.35  1228.28  1279.32  1303.16
                             1304.93  1311.68  1312.74  1320.37  1367.24
                             1372.10  1414.62  1425.65  1435.86  1439.13
                             1449.11  1455.25  1522.69  1524.39  1530.82
                             1541.38  1547.78  1592.59  1611.96  1627.54
                             1629.90  1631.83  1635.23  1644.92  1667.57
                             1670.31  1698.17  1708.08  1754.91  1756.53
                             1797.04  1826.76  1870.79  1886.61  1894.99
                             1905.58  1908.02  1912.37  1915.38  1930.20
                             1942.86  1955.69  1958.98  1965.35  1968.23
                             1971.53  2009.20  2011.82  2016.11  2026.88
                             2030.44  2039.03  2041.56  2075.53  2086.11
                             2153.70  2165.57  2170.49  2173.19  2182.65
                             2189.45  2191.19  2195.21  2197.28  2203.64
                             2213.59  2229.25  4187.28  4197.34  4354.76
                             4357.76  4357.96  4358.29  4363.83  4369.57
                             4373.82  4377.74  4383.18  4386.35  4391.13
                             4396.26  4407.10  4411.85  4413.47  4421.34
                             4425.83  4427.56  4429.89  4435.96  4443.60
                             4448.13  4457.94  4476.24  5035.59

 Zero-point correction=                           0.418536 (Hartree/Particle)
 Thermal correction to Energy=                    0.433452
 Thermal correction to Enthalpy=                  0.434396
 Thermal correction to Gibbs Free Energy=         0.376450
 Sum of electronic and zero-point Energies=           -755.616436
 Sum of electronic and thermal Energies=              -755.601520
 Sum of electronic and thermal Enthalpies=            -755.600576
 Sum of electronic and thermal Free Energies=         -755.658522

                     E (Thermal)             CV                S
                      KCal/Mol        Cal/Mol-Kelvin    Cal/Mol-Kelvin
 Total                  271.995             64.436            121.959
 Electronic               0.000              0.000              0.000
 Translational            0.889              2.981             42.440
 Rotational               0.889              2.981             33.190
 Vibrational            270.218             58.475             46.329
 Vibration     1          0.593              1.985              6.368
 Vibration     2          0.595              1.979              4.947
 Vibration     3          0.598              1.970              4.219
 Vibration     4          0.610              1.928              3.027
 Vibration     5          0.625              1.881              2.446
 Vibration     6          0.639              1.837              2.117
 Vibration     7          0.667              1.750              1.677
 Vibration     8          0.667              1.748              1.672
 Vibration     9          0.689              1.685              1.452
 Vibration    10          0.706              1.634              1.306
 Vibration    11          0.721              1.593              1.206
 Vibration    12          0.726              1.579              1.174
 Vibration    13          0.757              1.493              1.003
 Vibration    14          0.769              1.461              0.948
 Vibration    15          0.772              1.455              0.937
 Vibration    16          0.777              1.442              0.916
 Vibration    17          0.802              1.379              0.821
 Vibration    18          0.807              1.365              0.802
 Vibration    19          0.819              1.337              0.764
 Vibration    20          0.827              1.317              0.738
 Vibration    21          0.829              1.312              0.731
 Vibration    22          0.893              1.166              0.570
 Vibration    23          0.906              1.139              0.543
 Vibration    24          0.933              1.082              0.491

                           ! Non-Optimized Parameters !
 Normal termination of Gaussian 16 at Fri Dec 11 19:34:03 2020.

 ----------------------------------------------------------------------
 # B3LYP/6-311++G(d,p) empiricaldispersion=gd3bj scf=xqc pop=npa geom=c
 heck
 ----------------------------------------------------------------------

 --------------------------------------
 CID_84084220_JID_8162_Energie_neutraal
 --------------------------------------
 Structure from the checkpoint file:  "JID_8162.chk"
 Charge =  0 Multiplicity = 1

 SCF Done:  E(RB3LYP) =  -756.237802918     A.U. after   13 cycles
 Normal termination of Gaussian 16 at Fri Dec 11 19:43:00 2020.

 ----------------------------------------------------------------------
 # B3LYP/6-311++G(d,p) empiricaldispersion=gd3bj scf=xqc pop=npa geom=c
 heck
 ----------------------------------------------------------------------

 ------------------------------------
 CID_84084220_JID_8162_Energie_kation
 ------------------------------------
 Structure from the checkpoint file:  "JID_8162.chk"
 Charge =  1 Multiplicity = 2

 SCF Done:  E(UB3LYP) =  -755.942647112     A.U. after   23 cycles
 Normal termination of Gaussian 16 at Fri Dec 11 20:03:53 2020.
 Gaussian 16:  ES64L-G16RevA.03 25-Dec-2016

 ----------------------------------------------------------------------
 # B3LYP/6-311++G(d,p) empiricaldispersion=gd3bj scf=xqc pop=npa geom=c
 heck
 ----------------------------------------------------------------------

 -----------------------------------
 CID_84084220_JID_8162_Energie_anion
 -----------------------------------
 Structure from the checkpoint file:  "JID_8162.chk"
 Charge = -1 Multiplicity = 2

                         Standard orientation:
 ---------------------------------------------------------------------
 Center     Atomic      Atomic             Coordinates (Angstroms)
 Number     Number       Type             X           Y           Z
 ---------------------------------------------------------------------
      1          6           0        2.326480    0.801124    0.638050
      2          6           0        3.416863    1.680751    0.022721
      3          7           0        4.707148    1.000170    0.117810
      4          6           0        4.707136   -0.257562   -0.628404
      5          6           0        3.658877   -1.204055   -0.041009
      6          6           0        2.255169   -0.570754   -0.055340
      7          6           0        1.216292   -1.533193    0.565684
      8          8           0        0.004210   -1.692612   -0.157787
      9          6           0       -1.068861   -0.746723   -0.059863
     10          6           0       -2.323875   -1.563462   -0.417694
     11          6           0       -3.577282   -0.671213   -0.407888
     12          6           0       -3.406163    0.464438   -1.433798
     13          6           0       -2.160245    1.294931   -1.076062
     14          6           0       -0.914830    0.387145   -1.094188
     15          6           0       -2.329106    1.893487    0.333181
     16          6           0       -2.507817    0.758475    1.359484
     17          6           0       -3.754602   -0.068468    0.997540
     18          6           0       -1.258124   -0.146446    1.344091
     19          1           0        1.365848    1.323962    0.583567
     20          1           0        2.556063    0.652497    1.701653
     21          1           0        3.134798    1.913716   -1.024576
     22          1           0        3.484356    2.633157    0.560918
     23          1           0        5.442786    1.608134   -0.235082
     24          1           0        5.705267   -0.704824   -0.558467
     25          1           0        4.486096   -0.111289   -1.705404
     26          1           0        3.941274   -1.444295    0.993022
     27          1           0        3.649500   -2.144159   -0.606785
     28          1           0        1.965691   -0.424575   -1.105218
     29          1           0        1.637896   -2.544744    0.577282
     30          1           0        1.025400   -1.259834    1.612374
     31          1           0       -2.174443   -2.017338   -1.404907
     32          1           0       -2.424184   -2.383923    0.303282
     33          1           0       -4.456468   -1.274735   -0.666219
     34          1           0       -4.297879    1.105424   -1.439546
     35          1           0       -3.301672    0.047087   -2.443999
     36          1           0       -2.031947    2.103020   -1.807429
     37          1           0       -0.020011    0.980045   -0.879856
     38          1           0       -0.775166   -0.062523   -2.084900
     39          1           0       -1.451009    2.500599    0.592385
     40          1           0       -3.200331    2.561279    0.357679
     41          1           0       -2.626243    1.185317    2.363383
     42          1           0       -4.648885    0.568109    1.027352
     43          1           0       -3.902650   -0.868375    1.735103
     44          1           0       -1.363882   -0.957664    2.076216
     45          1           0       -0.383398    0.444795    1.636766
 ---------------------------------------------------------------------

 SCF Done:  E(UB3LYP) =  -756.226136508     A.U. after   29 cycles

 The electronic state is 2-A.
 Alpha  occ. eigenvalues --  -19.02275 -14.20471 -10.12890 -10.12091 -10.10067
 Alpha  occ. eigenvalues --  -10.09641 -10.07956 -10.07764 -10.07645 -10.07593
 Alpha  occ. eigenvalues --  -10.07480 -10.07112 -10.07006 -10.06640 -10.06582
 Alpha  occ. eigenvalues --  -10.06498 -10.06452 -10.06368  -0.93376  -0.82039
 Alpha  occ. eigenvalues --   -0.77541  -0.71228  -0.67695  -0.67531  -0.67104
 Alpha  occ. eigenvalues --   -0.66138  -0.59722  -0.57653  -0.57323  -0.53256
 Alpha  occ. eigenvalues --   -0.52376  -0.49309  -0.49215  -0.47037  -0.46541
 Alpha  occ. eigenvalues --   -0.43247  -0.42032  -0.39470  -0.36732  -0.36346
 Alpha  occ. eigenvalues --   -0.36291  -0.36099  -0.35846  -0.35518  -0.33987
 Alpha  occ. eigenvalues --   -0.33361  -0.32489  -0.31442  -0.31387  -0.30919
 Alpha  occ. eigenvalues --   -0.30167  -0.29903  -0.29524  -0.28871  -0.26031
 Alpha  occ. eigenvalues --   -0.25701  -0.24856  -0.24049  -0.23695  -0.23502
 Alpha  occ. eigenvalues --   -0.23383  -0.23155  -0.22019  -0.21555  -0.20448
 Alpha  occ. eigenvalues --   -0.19559  -0.18412  -0.15481  -0.13846   0.03915
 Alpha virt. eigenvalues --    0.05404   0.06806   0.06891   0.07593   0.07744
 Alpha virt. eigenvalues --    0.08121   0.09027   0.09128   0.09457   0.09837
 Alpha virt. eigenvalues --    0.10277   0.10698   0.11114   0.11635   0.12101

  Beta  occ. eigenvalues --  -19.02271 -14.20450 -10.12891 -10.12087 -10.10051
  Beta  occ. eigenvalues --  -10.09620 -10.07954 -10.07757 -10.07641 -10.07587
  Beta  occ. eigenvalues --  -10.07473 -10.07103 -10.06997 -10.06622 -10.06565
  Beta  occ. eigenvalues --  -10.06478 -10.06444 -10.06359  -0.93366  -0.82006
  Beta  occ. eigenvalues --   -0.77518  -0.71212  -0.67671  -0.67506  -0.67086
  Beta  occ. eigenvalues --   -0.66110  -0.59700  -0.57622  -0.57290  -0.53220
  Beta  occ. eigenvalues --   -0.52343  -0.49280  -0.49187  -0.47013  -0.46507
  Beta  occ. eigenvalues --   -0.43191  -0.41969  -0.39441  -0.36717  -0.36322
  Beta  occ. eigenvalues --   -0.36270  -0.36072  -0.35822  -0.35493  -0.33961
  Beta  occ. eigenvalues --   -0.33338  -0.32466  -0.31423  -0.31370  -0.30895
  Beta  occ. eigenvalues --   -0.30135  -0.29873  -0.29499  -0.28850  -0.26007
  Beta  occ. eigenvalues --   -0.25678  -0.24836  -0.24032  -0.23673  -0.23482
  Beta  occ. eigenvalues --   -0.23363  -0.23130  -0.21998  -0.21532  -0.20423
  Beta  occ. eigenvalues --   -0.19528  -0.18386  -0.15468  -0.13803
  Beta virt. eigenvalues --    0.05845   0.06323   0.07185   0.07369   0.08033
  Beta virt. eigenvalues --    0.08220   0.08363   0.09352   0.09399   0.09841
  Beta virt. eigenvalues --    0.10037   0.10499   0.10926   0.11257   0.11957

 Mulliken charges and spin densities:
               1          2
     1  C   -0.922983   0.533429
     2  C    0.847877  -1.449913
     3  N   -0.334666   0.235826
     4  C    0.473592  -0.941980
     5  C   -1.005953   0.641968
     6  C    1.008534  -0.284181
     7  C   -0.652992   0.071360
     8  O    0.048061   0.003540
     9  C   -0.309222  -0.146723
    10  C    0.082696  -0.582685
    11  C   -0.173878   0.757852
    12  C    0.742158  -1.512651
    13  C    0.177715   0.465279
    14  C   -0.994218   0.314216
    15  C    0.192907  -1.127014
    16  C    0.026830   0.480059
    17  C    0.914965  -1.696680
    18  C   -0.458716   0.032657
    19  H    0.633876  -0.517739
    20  H    0.052358   0.120576
    21  H   -0.179578   0.305182
    22  H   -0.312958   0.493019
    23  H   -0.082285   0.333485
    24  H   -0.200776   0.388157
    25  H   -0.120931   0.222901
    26  H    0.158879  -0.004487
    27  H    0.045464   0.092428
    28  H    0.362045  -0.135544
    29  H    0.037380   0.123711
    30  H    0.202230  -0.041965
    31  H    0.122792   0.056590
    32  H    0.041098   0.128915
    33  H   -0.191828   0.426053
    34  H   -0.152631   0.311636
    35  H    0.050994   0.080464
    36  H   -0.198769   0.444853
    37  H    0.067246   0.025077
    38  H   -0.072872   0.251628
    39  H   -0.311953   0.438100
    40  H   -0.144195   0.318443
    41  H   -0.177287   0.415871
    42  H   -0.222831   0.385836
    43  H    0.003454   0.127836
    44  H   -0.032768   0.215810
    45  H   -0.038860   0.198804
 Sum of Mulliken charges =  -1.00000   1.00000

 Dipole moment (field-independent basis, Debye):
    X=             -0.0263    Y=             -4.1305    Z=              0.5550  Tot=              4.1677
 Quadrupole moment (field-independent basis, Debye-Ang):
   XX=           -221.6475   YY=           -160.6683   ZZ=           -149.9998
   XY=             -5.3639   XZ=              3.5224   YZ=             -1.0629

 Summary of Natural Population Analysis:

                                       Natural Population
                Natural  -----------------------------------------------
    Atom  No    Charge         Core      Valence    Rydberg      Total
 -----------------------------------------------------------------------
      C    1   -0.19466      0.99961     2.18583    0.00922     3.19466
      C    2   -0.08633      0.99962     2.07478    0.01193     3.08633
      N    3   -0.34095      0.99974     2.82925    0.01196     3.84095
      C    4   -0.08693      0.99962     2.07543    0.01188     3.08693
      C    5   -0.19039      0.99961     2.18170    0.00908     3.19039
      C    6   -0.13139      0.99958     2.12239    0.00941     3.13139
      C    7    0.00029      0.99953     1.98819    0.01199     2.99971
      O    8   -0.31147      0.99986     3.30085    0.01076     4.31147
      C    9    0.14773      0.99945     1.83656    0.01627     2.85227
      C   10   -0.19259      0.99956     2.18120    0.01182     3.19259
      C   11   -0.11289      0.99959     2.10146    0.01185     3.11289
      C   12   -0.18645      0.99960     2.17737    0.00948     3.18645
      C   13   -0.11179      0.99959     2.10021    0.01199     3.11179
      C   14   -0.20177      0.99956     2.19155    0.01066     3.20177
      C   15   -0.18704      0.99960     2.17758    0.00985     3.18704
      C   16   -0.10950      0.99959     2.09780    0.01211     3.10950
      C   17   -0.18682      0.99960     2.17748    0.00973     3.18682
      C   18   -0.20657      0.99956     2.19740    0.00961     3.20657
      H   19    0.10084      0.00000     0.39749    0.00166     0.39916
      H   20    0.09596      0.00000     0.40250    0.00153     0.40404
      H   21    0.07760      0.00000     0.42049    0.00191     0.42240
      H   22    0.09668      0.00000     0.40213    0.00119     0.40332
      H   23    0.17659      0.00000     0.31991    0.00351     0.32341
      H   24    0.09441      0.00000     0.40457    0.00102     0.40559
      H   25    0.07696      0.00000     0.42139    0.00165     0.42304
      H   26    0.09592      0.00000     0.40282    0.00126     0.40408
      H   27    0.09817      0.00000     0.40095    0.00088     0.40183
      H   28    0.10029      0.00000     0.39767    0.00205     0.39971
      H   29    0.08715      0.00000     0.41186    0.00100     0.41285
      H   30    0.08087      0.00000     0.41789    0.00123     0.41913
      H   31    0.10248      0.00000     0.39632    0.00120     0.39752
      H   32    0.10110      0.00000     0.39766    0.00124     0.39890
      H   33    0.09953      0.00000     0.39905    0.00142     0.40047
      H   34    0.09986      0.00000     0.39899    0.00115     0.40014
      H   35    0.09815      0.00000     0.40082    0.00103     0.40185
      H   36    0.10104      0.00000     0.39748    0.00149     0.39896
      H   37    0.10039      0.00000     0.39733    0.00228     0.39961
      H   38    0.10199      0.00000     0.39676    0.00125     0.39801
      H   39    0.09998      0.00000     0.39857    0.00144     0.40002
      H   40    0.10064      0.00000     0.39805    0.00131     0.39936
      H   41    0.10052      0.00000     0.39799    0.00150     0.39948
      H   42    0.10038      0.00000     0.39840    0.00122     0.39962
      H   43    0.09808      0.00000     0.40082    0.00110     0.40192
      H   44    0.10138      0.00000     0.39750    0.00112     0.39862
      H   45    0.10257      0.00000     0.39581    0.00162     0.39743
 =======================================================================
   * Total *    0.00000     17.99288    50.76823    0.23889    69.00000

 Normal termination of Gaussian 16 at Fri Dec 11 20:30:09 2020.
