 Gaussian 16, Revision A.03,

 -----------------------------------------------------------
 # opt freq B3LYP/6-31G(d) empiricaldispersion=gd3bj scf=xqc
 -----------------------------------------------------------

 ------------------------------
 CID_20771972_JID_1434_neutraal
 ------------------------------
 Symbolic Z-matrix:
 Charge =  0 Multiplicity = 1

 SCF Done:  E(RB3LYP) =  -802.547093042     A.U. after   15 cycles
 SCF Done:  E(RB3LYP) =  -802.549198299     A.U. after   13 cycles
 SCF Done:  E(RB3LYP) =  -802.549584323     A.U. after   12 cycles
 SCF Done:  E(RB3LYP) =  -802.549663429     A.U. after   12 cycles
 SCF Done:  E(RB3LYP) =  -802.549693453     A.U. after   11 cycles
 SCF Done:  E(RB3LYP) =  -802.549742136     A.U. after   12 cycles
 SCF Done:  E(RB3LYP) =  -802.549766989     A.U. after   11 cycles
 SCF Done:  E(RB3LYP) =  -802.549773218     A.U. after   11 cycles
 SCF Done:  E(RB3LYP) =  -802.549774215     A.U. after    8 cycles
 SCF Done:  E(RB3LYP) =  -802.549774368     A.U. after    8 cycles
 Optimization completed.
    -- Stationary point found.
 Normal termination of Gaussian 16 at Tue Dec  8 19:58:07 2020.

 --------------------------------------------------------------------
 #N Geom=AllCheck Guess=TCheck SCRF=Check GenChk RB3LYP/6-31G(d) Freq
 --------------------------------------------------------------------

 Structure from the checkpoint file:  "JID_1434.chk"
 ------------------------------
 CID_20771972_JID_1434_neutraal
 ------------------------------
 Charge =  0 Multiplicity = 1

 SCF Done:  E(RB3LYP) =  -802.549774368     A.U. after    1 cycles

  Exact polarizability: 165.375  -7.763 106.729  12.910   0.198  72.683
 Approx polarizability: 244.848 -25.128 193.863  29.797  -1.393 108.982

                      1                      2                      3
                      A                      A                      A
 Frequencies --     36.3569                57.5993                73.2379
 Red. masses --      3.6406                 4.3096                 4.0714
 Frc consts  --      0.0028                 0.0084                 0.0129
 IR Inten    --      0.7272                 0.4160                 1.1420

                      4                      5                      6
                      A                      A                      A
 Frequencies --    132.5398               155.9019               227.8724
 Red. masses --      6.1951                 6.2729                 1.0800
 Frc consts  --      0.0641                 0.0898                 0.0330
 IR Inten    --      1.8634                 2.7129                 0.0527

                      7                      8                      9
                      A                      A                      A
 Frequencies --    247.6983               274.4895               299.2063
 Red. masses --      1.2346                 3.4864                 2.5649
 Frc consts  --      0.0446                 0.1548                 0.1353
 IR Inten    --      0.2615                 1.6783                 0.1324

                     10                     11                     12
                      A                      A                      A
 Frequencies --    325.3758               395.8902               420.0749
 Red. masses --      2.9078                 2.6828                 2.1221
 Frc consts  --      0.1814                 0.2477                 0.2206
 IR Inten    --      0.9055                 0.0356                 0.0243

                     13                     14                     15
                      A                      A                      A
 Frequencies --    462.5733               500.5693               528.7843
 Red. masses --      4.6247                 7.8055                 7.5081
 Frc consts  --      0.5830                 1.1523                 1.2369
 IR Inten    --      0.8582                 2.1662                 1.1992

                     16                     17                     18
                      A                      A                      A
 Frequencies --    573.3413               590.9568               686.5321
 Red. masses --      6.1712                 3.6281                 4.2299
 Frc consts  --      1.1952                 0.7465                 1.1746
 IR Inten    --     14.5235                 0.1288                 1.5243

                     19                     20                     21
                      A                      A                      A
 Frequencies --    696.3919               757.6253               810.7445
 Red. masses --      8.6499                 6.0689                 1.6048
 Frc consts  --      2.4716                 2.0524                 0.6215
 IR Inten    --      2.2720                 0.9640                19.7440

                     22                     23                     24
                      A                      A                      A
 Frequencies --    836.6467               900.2838               908.5905
 Red. masses --      1.8799                 1.4262                 1.4513
 Frc consts  --      0.7753                 0.6811                 0.7059
 IR Inten    --     10.6248                 0.9415                 0.1671

                     25                     26                     27
                      A                      A                      A
 Frequencies --    945.3519               960.2211               981.3504
 Red. masses --      1.2089                 1.9562                 1.4938
 Frc consts  --      0.6366                 1.0627                 0.8476
 IR Inten    --      1.9795                 0.9651                 0.0434

                     28                     29                     30
                      A                      A                      A
 Frequencies --   1053.5922              1113.1168              1147.3494
 Red. masses --      1.6598                 1.5172                 2.2617
 Frc consts  --      1.0856                 1.1076                 1.7542
 IR Inten    --      9.5569                 0.6029                 1.1302

                     31                     32                     33
                      A                      A                      A
 Frequencies --   1177.5889              1192.1844              1207.3609
 Red. masses --      5.3850                 3.0598                 1.7809
 Frc consts  --      4.3997                 2.5623                 1.5295
 IR Inten    --      7.8745                13.6220                 5.8234

                     34                     35                     36
                      A                      A                      A
 Frequencies --   1247.0732              1285.4504              1327.5669
 Red. masses --      1.4532                 1.4069                 1.2918
 Frc consts  --      1.3315                 1.3697                 1.3414
 IR Inten    --      1.5636                 9.3398                10.1119

                     37                     38                     39
                      A                      A                      A
 Frequencies --   1373.7372              1385.7924              1398.6547
 Red. masses --      2.0215                 1.4478                 1.6220
 Frc consts  --      2.2477                 1.6382                 1.8695
 IR Inten    --      3.9981                 0.9950                 2.3182

                     40                     41                     42
                      A                      A                      A
 Frequencies --   1431.9580              1451.1121              1505.6210
 Red. masses --      1.2717                 1.2349                 1.1540
 Frc consts  --      1.5363                 1.5321                 1.5413
 IR Inten    --      4.2413                 5.8323                 8.6993

                     43                     44                     45
                      A                      A                      A
 Frequencies --   1517.3750              1518.1653              1524.7517
 Red. masses --      3.1348                 1.1653                 1.0965
 Frc consts  --      4.2526                 1.5824                 1.5019
 IR Inten    --     31.2901                 5.1924                 5.8102

                     46                     47                     48
                      A                      A                      A
 Frequencies --   1534.5080              1539.3487              1597.4885
 Red. masses --      1.0511                 1.0517                 5.4849
 Frc consts  --      1.4583                 1.4683                 8.2469
 IR Inten    --      4.3672                 9.3048                 2.7446

                     49                     50                     51
                      A                      A                      A
 Frequencies --   2338.1717              3022.1147              3036.8104
 Red. masses --     12.6619                 1.0828                 1.0565
 Frc consts  --     40.7850                 5.8269                 5.7405
 IR Inten    --     67.6652                 7.0347                13.4810

                     52                     53                     54
                      A                      A                      A
 Frequencies --   3040.5620              3046.3167              3079.4961
 Red. masses --      1.0378                 1.0408                 1.1029
 Frc consts  --      5.6532                 5.6909                 6.1623
 IR Inten    --     35.3095                33.6990                12.7163

                     55                     56                     57
                      A                      A                      A
 Frequencies --   3104.7530              3110.4895              3118.1023
 Red. masses --      1.1006                 1.0998                 1.1019
 Frc consts  --      6.2509                 6.2692                 6.3119
 IR Inten    --     16.4647                43.7118                36.0163

                     58                     59                     60
                      A                      A                      A
 Frequencies --   3128.1864              3223.3670              3244.3012
 Red. masses --      1.1021                 1.0909                 1.0967
 Frc consts  --      6.3543                 6.6780                 6.8010
 IR Inten    --     35.9760                 5.5945                 1.2503

 - Thermochemistry -
 -------------------
 Temperature   298.150 Kelvin.  Pressure   1.00000 Atm.
 Atom     1 has atomic number  6 and mass  12.00000

 Molecular mass:   165.06122 amu.
 Principal axes and moments of inertia in atomic units:
                           1         2         3
     Eigenvalues --   715.717783844.980994052.38625
           X            0.99991   0.01216  -0.00514
           Y           -0.01206   0.99975   0.01883
           Z            0.00537  -0.01877   0.99981
 This molecule is an asymmetric top.
 Rotational symmetry number  1.
 Warning -- assumption of classical behavior for rotation
           may cause significant error
 Rotational temperatures (Kelvin)      0.12102     0.02253     0.02137
 Rotational constants (GHZ):           2.52158     0.46938     0.44535
 Zero-point vibrational energy     471380.5 (Joules/Mol)
                                  112.66265 (Kcal/Mol)
 Warning -- explicit consideration of  17 degrees of freedom as
           vibrations may cause significant error
 Vibrational temperatures:     52.31    82.87   105.37   190.70   224.31
          (Kelvin)            327.86   356.38   394.93   430.49   468.14
                              569.60   604.39   665.54   720.21   760.80
                              824.91   850.26   987.77  1001.95  1090.05
                             1166.48  1203.75  1295.31  1307.26  1360.15
                             1381.54  1411.94  1515.88  1601.53  1650.78
                             1694.29  1715.29  1737.12  1794.26  1849.48
                             1910.07  1976.50  1993.85  2012.35  2060.27
                             2087.83  2166.25  2183.16  2184.30  2193.78
                             2207.81  2214.78  2298.43  3364.11  4348.15
                             4369.29  4374.69  4382.97  4430.71  4467.05
                             4475.30  4486.25  4500.76  4637.71  4667.83

 Zero-point correction=                           0.179539 (Hartree/Particle)
 Thermal correction to Energy=                    0.190976
 Thermal correction to Enthalpy=                  0.191920
 Thermal correction to Gibbs Free Energy=         0.141209
 Sum of electronic and zero-point Energies=           -802.370235
 Sum of electronic and thermal Energies=              -802.358799
 Sum of electronic and thermal Enthalpies=            -802.357855
 Sum of electronic and thermal Free Energies=         -802.408566

                     E (Thermal)             CV                S
                      KCal/Mol        Cal/Mol-Kelvin    Cal/Mol-Kelvin
 Total                  119.839             41.909            106.731
 Electronic               0.000              0.000              0.000
 Translational            0.889              2.981             41.212
 Rotational               0.889              2.981             30.790
 Vibrational            118.062             35.948             34.729
 Vibration     1          0.594              1.982              5.448
 Vibration     2          0.596              1.974              4.538
 Vibration     3          0.599              1.967              4.064
 Vibration     4          0.613              1.921              2.909
 Vibration     5          0.620              1.896              2.599
 Vibration     6          0.651              1.799              1.896
 Vibration     7          0.661              1.767              1.747
 Vibration     8          0.677              1.720              1.568
 Vibration     9          0.692              1.675              1.421
 Vibration    10          0.709              1.625              1.283
 Vibration    11          0.763              1.479              0.978
 Vibration    12          0.783              1.427              0.892
 Vibration    13          0.820              1.333              0.759
 Vibration    14          0.856              1.249              0.657
 Vibration    15          0.884              1.186              0.590
 Vibration    16          0.930              1.089              0.498
 Vibration    17          0.948              1.051              0.465

 Optimization completed.
    -- Stationary point found.
 Normal termination of Gaussian 16 at Tue Dec  8 20:01:55 2020.

 ----------------------------------------------------------------------
 # B3LYP/6-311++G(d,p) empiricaldispersion=gd3bj scf=xqc pop=npa geom=c
 heck
 ----------------------------------------------------------------------

 --------------------------------------
 CID_20771972_JID_1434_Energie_neutraal
 --------------------------------------
 Structure from the checkpoint file:  "JID_1434.chk"
 Charge =  0 Multiplicity = 1

 SCF Done:  E(RB3LYP) =  -802.685273810     A.U. after   15 cycles
 Normal termination of Gaussian 16 at Tue Dec  8 20:04:28 2020.

 ----------------------------------------------------------------------
 # B3LYP/6-311++G(d,p) empiricaldispersion=gd3bj scf=xqc pop=npa geom=c
 heck
 ----------------------------------------------------------------------

 ------------------------------------
 CID_20771972_JID_1434_Energie_kation
 ------------------------------------
 Structure from the checkpoint file:  "JID_1434.chk"
 Charge =  1 Multiplicity = 2

 SCF Done:  E(UB3LYP) =  -802.363825064     A.U. after   24 cycles
 Normal termination of Gaussian 16 at Tue Dec  8 20:08:24 2020.
 Gaussian 16:  ES64L-G16RevA.03 25-Dec-2016

 ----------------------------------------------------------------------
 # B3LYP/6-311++G(d,p) empiricaldispersion=gd3bj scf=xqc pop=npa geom=c
 heck
 ----------------------------------------------------------------------

 -----------------------------------
 CID_20771972_JID_1434_Energie_anion
 -----------------------------------
 Structure from the checkpoint file:  "JID_1434.chk"
 Charge = -1 Multiplicity = 2

                         Standard orientation:
 ---------------------------------------------------------------------
 Center     Atomic      Atomic             Coordinates (Angstroms)
 Number     Number       Type             X           Y           Z
 ---------------------------------------------------------------------
      1          6           0       -2.478494    0.337783    1.552206
      2          6           0       -2.536656   -0.444079    0.236613
      3          6           0       -3.982509   -0.658793   -0.222200
      4          6           0       -1.729085    0.263129   -0.877435
      5          6           0       -0.277805    0.457008   -0.556963
      6          6           0        0.394561    1.633863   -0.330839
      7          6           0        1.766871    1.457049   -0.013419
      8          6           0        2.140687    0.131283    0.005237
      9         16           0        0.784866   -0.912729   -0.373283
     10          6           0        3.420960   -0.401057    0.280316
     11          7           0        4.473456   -0.846397    0.507090
     12          1           0       -2.919396    1.335606    1.428718
     13          1           0       -1.448167    0.467261    1.898284
     14          1           0       -3.039013   -0.179837    2.338138
     15          1           0       -2.078808   -1.430115    0.402427
     16          1           0       -4.480212    0.302249   -0.404246
     17          1           0       -4.027437   -1.241087   -1.149868
     18          1           0       -4.559989   -1.192866    0.540185
     19          1           0       -1.833784   -0.307243   -1.809746
     20          1           0       -2.166759    1.252174   -1.064627
     21          1           0       -0.089938    2.602031   -0.392095
     22          1           0        2.460268    2.263149    0.194627
 ---------------------------------------------------------------------

 SCF Done:  E(UB3LYP) =  -802.692834057     A.U. after   28 cycles

 The electronic state is 2-A.
 Alpha  occ. eigenvalues --  -88.72533 -14.15070 -10.06811 -10.05920 -10.05825
 Alpha  occ. eigenvalues --  -10.05725 -10.05616 -10.05270 -10.04853 -10.03319
 Alpha  occ. eigenvalues --  -10.03105  -7.81191  -5.77503  -5.77136  -5.76775
 Alpha  occ. eigenvalues --   -0.75764  -0.73766  -0.70056  -0.62444  -0.59518
 Alpha  occ. eigenvalues --   -0.58277  -0.55949  -0.47669  -0.44850  -0.40623
 Alpha  occ. eigenvalues --   -0.38264  -0.35243  -0.33542  -0.32286  -0.29395
 Alpha  occ. eigenvalues --   -0.28495  -0.28034  -0.26055  -0.25681  -0.24874
 Alpha  occ. eigenvalues --   -0.23169  -0.22876  -0.22107  -0.21656  -0.20107
 Alpha  occ. eigenvalues --   -0.19415  -0.17999  -0.11990  -0.09649   0.04684
 Alpha virt. eigenvalues --    0.06869   0.08865   0.09188   0.09761   0.10746
 Alpha virt. eigenvalues --    0.11513   0.12225   0.12383   0.13255   0.13545
 Alpha virt. eigenvalues --    0.14394   0.14867   0.15403   0.16239   0.16432

  Beta  occ. eigenvalues --  -88.72477 -14.14810 -10.06779 -10.05899 -10.05750
  Beta  occ. eigenvalues --  -10.05616 -10.05542 -10.05266 -10.04408 -10.03410
  Beta  occ. eigenvalues --  -10.02893  -7.81140  -5.77484  -5.77117  -5.76578
  Beta  occ. eigenvalues --   -0.75344  -0.73368  -0.69948  -0.61935  -0.59189
  Beta  occ. eigenvalues --   -0.58244  -0.55642  -0.47275  -0.44631  -0.40260
  Beta  occ. eigenvalues --   -0.38032  -0.35118  -0.33412  -0.32118  -0.29286
  Beta  occ. eigenvalues --   -0.28463  -0.27915  -0.25789  -0.24930  -0.24540
  Beta  occ. eigenvalues --   -0.22765  -0.22714  -0.21927  -0.21288  -0.19833
  Beta  occ. eigenvalues --   -0.18414  -0.17824  -0.10925  -0.07649
  Beta virt. eigenvalues --    0.06920   0.08823   0.09085   0.09808   0.10413
  Beta virt. eigenvalues --    0.10938   0.11491   0.12227   0.12367   0.13333
  Beta virt. eigenvalues --    0.13547   0.14411   0.14901   0.15509   0.16494

 Mulliken charges and spin densities:
               1          2
     1  C   -0.574918  -0.109399
     2  C    0.062502   0.508225
     3  C   -0.088479  -0.607211
     4  C   -0.557472  -0.643789
     5  C    0.891502   0.479392
     6  C   -0.016808  -0.157837
     7  C   -0.541752   0.256353
     8  C    1.542862   0.079137
     9  S   -0.560813   0.254819
    10  C   -1.369335  -0.080997
    11  N   -0.344807   0.139973
    12  H    0.095243   0.031520
    13  H    0.183665  -0.013406
    14  H    0.096398   0.016526
    15  H    0.159685  -0.029761
    16  H   -0.020746   0.142583
    17  H   -0.094340   0.228233
    18  H    0.042473   0.074159
    19  H   -0.129538   0.305197
    20  H    0.075667   0.068130
    21  H    0.041554   0.064953
    22  H    0.107457  -0.006800
 Sum of Mulliken charges =  -1.00000   1.00000

 Dipole moment (field-independent basis, Debye):
    X=             -6.8468    Y=              1.7109    Z=              1.1508  Tot=              7.1505
 Quadrupole moment (field-independent basis, Debye-Ang):
   XX=           -143.7627   YY=            -87.1691   ZZ=            -90.6279
   XY=              7.5795   XZ=             -8.0669   YZ=             -0.0226

 Summary of Natural Population Analysis:

                                       Natural Population
                Natural  -----------------------------------------------
    Atom  No    Charge         Core      Valence    Rydberg      Total
 -----------------------------------------------------------------------
      C    1   -0.28566      0.99965     2.28112    0.00489     3.28566
      C    2   -0.10812      0.99962     2.09989    0.00862     3.10812
      C    3   -0.28340      0.99965     2.27788    0.00587     3.28340
      C    4   -0.20688      0.99957     2.19583    0.01148     3.20688
      C    5   -0.01555      0.99951     2.00275    0.01329     3.01555
      C    6   -0.16389      0.99946     2.15390    0.01052     3.16389
      C    7   -0.06154      0.99950     2.05171    0.01033     3.06154
      C    8   -0.13654      0.99938     2.12479    0.01237     3.13654
      S    9    0.21678      4.99939     2.76349    0.02033     7.78322
      C   10    0.14043      0.99962     1.84360    0.01635     2.85957
      N   11   -0.17545      0.99979     2.66476    0.01089     3.67545
      H   12    0.09245      0.00000     0.40668    0.00087     0.40755
      H   13    0.11023      0.00000     0.38909    0.00068     0.38977
      H   14    0.09217      0.00000     0.40708    0.00075     0.40783
      H   15    0.09375      0.00000     0.40439    0.00186     0.40625
      H   16    0.09420      0.00000     0.40490    0.00090     0.40580
      H   17    0.09958      0.00000     0.39954    0.00088     0.40042
      H   18    0.09387      0.00000     0.40543    0.00070     0.40613
      H   19    0.10761      0.00000     0.39081    0.00158     0.39239
      H   20    0.09917      0.00000     0.39976    0.00108     0.40083
      H   21    0.09845      0.00000     0.40057    0.00099     0.40155
      H   22    0.09833      0.00000     0.40087    0.00080     0.40167
 =======================================================================
   * Total *    0.00000     14.99514    28.86884    0.13602    44.00000

 Normal termination of Gaussian 16 at Tue Dec  8 20:13:32 2020.
