 Gaussian 16, Revision A.03,

 -----------------------------------------------------------
 # opt freq B3LYP/6-31G(d) empiricaldispersion=gd3bj scf=xqc
 -----------------------------------------------------------

 ------------------------------
 CID_85518726_JID_2810_neutraal
 ------------------------------
 Symbolic Z-matrix:
 Charge =  0 Multiplicity = 1

 SCF Done:  E(RB3LYP) =  -607.882375285     A.U. after   15 cycles
 SCF Done:  E(RB3LYP) =  -607.889768794     A.U. after   13 cycles
 SCF Done:  E(RB3LYP) =  -607.891651789     A.U. after   13 cycles
 SCF Done:  E(RB3LYP) =  -607.891476904     A.U. after   14 cycles
 SCF Done:  E(RB3LYP) =  -607.893240619     A.U. after   13 cycles
 SCF Done:  E(RB3LYP) =  -607.893484555     A.U. after   12 cycles
 SCF Done:  E(RB3LYP) =  -607.893573980     A.U. after   12 cycles
 SCF Done:  E(RB3LYP) =  -607.893590564     A.U. after   11 cycles
 SCF Done:  E(RB3LYP) =  -607.893595286     A.U. after   10 cycles
 SCF Done:  E(RB3LYP) =  -607.893597590     A.U. after    8 cycles
 SCF Done:  E(RB3LYP) =  -607.893598122     A.U. after    7 cycles
 SCF Done:  E(RB3LYP) =  -607.893598208     A.U. after    7 cycles
 SCF Done:  E(RB3LYP) =  -607.893598253     A.U. after    6 cycles
 SCF Done:  E(RB3LYP) =  -607.893598279     A.U. after    6 cycles
 SCF Done:  E(RB3LYP) =  -607.893598284     A.U. after    6 cycles
 Optimization completed.
    -- Stationary point found.
 Normal termination of Gaussian 16 at Wed Dec  9 18:02:07 2020.

 --------------------------------------------------------------------
 #N Geom=AllCheck Guess=TCheck SCRF=Check GenChk RB3LYP/6-31G(d) Freq
 --------------------------------------------------------------------

 Structure from the checkpoint file:  "JID_2810.chk"
 ------------------------------
 CID_85518726_JID_2810_neutraal
 ------------------------------
 Charge =  0 Multiplicity = 1

 SCF Done:  E(RB3LYP) =  -607.893598284     A.U. after    1 cycles

  Exact polarizability: 103.426  12.638  86.259   5.409  -6.745  79.090
 Approx polarizability: 130.854  22.091 127.028   8.803 -18.946 137.714

                      1                      2                      3
                      A                      A                      A
 Frequencies --     30.3802                48.7507                91.7063
 Red. masses --      4.6836                 5.0967                 4.2073
 Frc consts  --      0.0025                 0.0071                 0.0208
 IR Inten    --      0.3753                 3.4159                 2.9668

                      4                      5                      6
                      A                      A                      A
 Frequencies --    105.9072               126.1306               139.1635
 Red. masses --      3.8482                 1.5845                 1.8856
 Frc consts  --      0.0254                 0.0149                 0.0215
 IR Inten    --      4.2929                 1.6683                 0.4736

                      7                      8                      9
                      A                      A                      A
 Frequencies --    192.3117               228.9367               255.5078
 Red. masses --      3.2809                 1.1867                 5.2191
 Frc consts  --      0.0715                 0.0366                 0.2007
 IR Inten    --      1.9392                 0.7832                 1.7857

                     10                     11                     12
                      A                      A                      A
 Frequencies --    275.7808               339.6842               397.4968
 Red. masses --      2.8644                 4.9682                 4.2569
 Frc consts  --      0.1284                 0.3378                 0.3963
 IR Inten    --      3.4785                14.6431                 6.9335

                     13                     14                     15
                      A                      A                      A
 Frequencies --    464.6251               512.0420               601.2379
 Red. masses --      6.4577                 5.9622                 5.1502
 Frc consts  --      0.8214                 0.9210                 1.0969
 IR Inten    --      1.2902                 2.7237                 2.5348

                     16                     17                     18
                      A                      A                      A
 Frequencies --    656.9699               674.7817               742.4527
 Red. masses --      4.2510                 5.0691                 5.2136
 Frc consts  --      1.0810                 1.3599                 1.6933
 IR Inten    --     10.4461                18.0939                10.0645

                     19                     20                     21
                      A                      A                      A
 Frequencies --    750.5061               766.2302               824.5839
 Red. masses --      1.1941                 4.2423                 1.2916
 Frc consts  --      0.3963                 1.4675                 0.5174
 IR Inten    --     57.0127                 0.7974                 0.6127

                     22                     23                     24
                      A                      A                      A
 Frequencies --    864.8242               873.0204               930.9702
 Red. masses --      3.2290                 1.2774                 2.4937
 Frc consts  --      1.4229                 0.5736                 1.2734
 IR Inten    --      3.8759                 3.7337                10.3300

                     25                     26                     27
                      A                      A                      A
 Frequencies --    936.7434               991.5677              1018.3540
 Red. masses --      5.8998                 2.9408                 5.0340
 Frc consts  --      3.0502                 1.7036                 3.0758
 IR Inten    --      3.1340                46.4713                12.3656

                     28                     29                     30
                      A                      A                      A
 Frequencies --   1064.0165              1071.0315              1106.5621
 Red. masses --      2.0275                 1.4115                 2.0490
 Frc consts  --      1.3524                 0.9540                 1.4782
 IR Inten    --     41.6460                 3.3456                 5.6166

                     31                     32                     33
                      A                      A                      A
 Frequencies --   1125.9826              1176.7992              1186.2031
 Red. masses --      2.3424                 2.5165                 1.2950
 Frc consts  --      1.7497                 2.0533                 1.0736
 IR Inten    --     65.8896               119.3887                 4.7545

                     34                     35                     36
                      A                      A                      A
 Frequencies --   1218.3934              1236.5111              1250.0015
 Red. masses --      1.5142                 1.5062                 2.8263
 Frc consts  --      1.3244                 1.3568                 2.6019
 IR Inten    --      2.8810                10.9874               283.6361

                     37                     38                     39
                      A                      A                      A
 Frequencies --   1288.2435              1354.7076              1360.5809
 Red. masses --      7.8692                 1.5550                 2.6830
 Frc consts  --      7.6944                 1.6814                 2.9263
 IR Inten    --     20.9479                 0.8686                 2.2603

                     40                     41                     42
                      A                      A                      A
 Frequencies --   1390.4195              1429.1479              1435.7138
 Red. masses --      1.6518                 1.5492                 2.5095
 Frc consts  --      1.8814                 1.8643                 3.0477
 IR Inten    --     27.9811                 9.2147                18.1615

                     43                     44                     45
                      A                      A                      A
 Frequencies --   1488.9262              1492.9857              1513.3521
 Red. masses --      4.5900                 1.2290                 1.0476
 Frc consts  --      5.9952                 1.6141                 1.4137
 IR Inten    --      4.5134                 5.1133                 6.7644

                     46                     47                     48
                      A                      A                      A
 Frequencies --   1516.7395              1523.8807              1529.7616
 Red. masses --      1.0511                 1.0482                 1.0582
 Frc consts  --      1.4247                 1.4341                 1.4590
 IR Inten    --     10.2136                 7.2070                 9.1914

                     49                     50                     51
                      A                      A                      A
 Frequencies --   1552.3223              1838.6127              3073.5423
 Red. masses --      3.9716                11.4656                 1.0346
 Frc consts  --      5.6386                22.8364                 5.7584
 IR Inten    --      2.0694               181.2886                10.8044

                     52                     53                     54
                      A                      A                      A
 Frequencies --   3079.8569              3102.9655              3151.0729
 Red. masses --      1.0295                 1.0851                 1.1030
 Frc consts  --      5.7537                 6.1559                 6.4530
 IR Inten    --     27.3154                 3.0446                11.1717

                     55                     56                     57
                      A                      A                      A
 Frequencies --   3156.3281              3160.6048              3189.8602
 Red. masses --      1.1078                 1.1040                 1.1074
 Frc consts  --      6.5023                 6.4978                 6.6389
 IR Inten    --     18.3097                10.4926                14.7341

                     58                     59                     60
                      A                      A                      A
 Frequencies --   3260.8831              3282.9948              3324.2708
 Red. masses --      1.0931                 1.0985                 1.1015
 Frc consts  --      6.8483                 6.9758                 7.1720
 IR Inten    --      6.4449                 2.9880                 2.6682

 - Thermochemistry -
 -------------------
 Temperature   298.150 Kelvin.  Pressure   1.00000 Atm.
 Atom     1 has atomic number  6 and mass  12.00000

 Molecular mass:   170.06914 amu.
 Principal axes and moments of inertia in atomic units:
                           1         2         3
     Eigenvalues --  1121.343122862.562763360.26043
           X            0.99994   0.01076  -0.00323
           Y           -0.01075   0.99993   0.00427
           Z            0.00328  -0.00424   0.99999
 This molecule is an asymmetric top.
 Rotational symmetry number  1.
 Warning -- assumption of classical behavior for rotation
           may cause significant error
 Rotational temperatures (Kelvin)      0.07724     0.03026     0.02578
 Rotational constants (GHZ):           1.60945     0.63046     0.53708
 Zero-point vibrational energy     459210.1 (Joules/Mol)
                                  109.75386 (Kcal/Mol)
 Warning -- explicit consideration of  15 degrees of freedom as
           vibrations may cause significant error
 Vibrational temperatures:     43.71    70.14   131.94   152.38   181.47
          (Kelvin)            200.23   276.69   329.39   367.62   396.79
                              488.73   571.91   668.49   736.71   865.05
                              945.23   970.86  1068.22  1079.81  1102.43
                             1186.39  1244.29  1256.08  1339.46  1347.76
                             1426.64  1465.18  1530.88  1540.98  1592.10
                             1620.04  1693.15  1706.68  1753.00  1779.06
                             1798.47  1853.50  1949.12  1957.57  2000.50
                             2056.23  2065.67  2142.23  2148.07  2177.38
                             2182.25  2192.52  2200.99  2233.45  2645.35
                             4422.14  4431.23  4464.48  4533.69  4541.25
                             4547.41  4589.50  4691.68  4723.50  4782.88

 Zero-point correction=                           0.174904 (Hartree/Particle)
 Thermal correction to Energy=                    0.186764
 Thermal correction to Enthalpy=                  0.187709
 Thermal correction to Gibbs Free Energy=         0.135487
 Sum of electronic and zero-point Energies=           -607.718694
 Sum of electronic and thermal Energies=              -607.706834
 Sum of electronic and thermal Enthalpies=            -607.705890
 Sum of electronic and thermal Free Energies=         -607.758111

                     E (Thermal)             CV                S
                      KCal/Mol        Cal/Mol-Kelvin    Cal/Mol-Kelvin
 Total                  117.196             42.126            109.910
 Electronic               0.000              0.000              0.000
 Translational            0.889              2.981             41.301
 Rotational               0.889              2.981             30.757
 Vibrational            115.419             36.164             37.852
 Vibration     1          0.594              1.984              5.804
 Vibration     2          0.595              1.978              4.867
 Vibration     3          0.602              1.955              3.623
 Vibration     4          0.605              1.945              3.343
 Vibration     5          0.611              1.927              3.004
 Vibration     6          0.615              1.914              2.815
 Vibration     7          0.634              1.851              2.205
 Vibration     8          0.652              1.797              1.887
 Vibration     9          0.666              1.753              1.692
 Vibration    10          0.677              1.718              1.560
 Vibration    11          0.720              1.596              1.214
 Vibration    12          0.764              1.475              0.972
 Vibration    13          0.822              1.329              0.753
 Vibration    14          0.867              1.223              0.629
 Vibration    15          0.959              1.029              0.448

 Optimization completed.
    -- Stationary point found.
 Normal termination of Gaussian 16 at Wed Dec  9 18:06:40 2020.

 ----------------------------------------------------------------------
 # B3LYP/6-311++G(d,p) empiricaldispersion=gd3bj scf=xqc pop=npa geom=c
 heck
 ----------------------------------------------------------------------

 --------------------------------------
 CID_85518726_JID_2810_Energie_neutraal
 --------------------------------------
 Structure from the checkpoint file:  "JID_2810.chk"
 Charge =  0 Multiplicity = 1

 SCF Done:  E(RB3LYP) =  -608.070027037     A.U. after   14 cycles
 Normal termination of Gaussian 16 at Wed Dec  9 18:08:25 2020.

 ----------------------------------------------------------------------
 # B3LYP/6-311++G(d,p) empiricaldispersion=gd3bj scf=xqc pop=npa geom=c
 heck
 ----------------------------------------------------------------------

 ------------------------------------
 CID_85518726_JID_2810_Energie_kation
 ------------------------------------
 Structure from the checkpoint file:  "JID_2810.chk"
 Charge =  1 Multiplicity = 2

 SCF Done:  E(UB3LYP) =  -607.738837953     A.U. after   25 cycles
 Normal termination of Gaussian 16 at Wed Dec  9 18:12:45 2020.
 Gaussian 16:  ES64L-G16RevA.03 25-Dec-2016

 ----------------------------------------------------------------------
 # B3LYP/6-311++G(d,p) empiricaldispersion=gd3bj scf=xqc pop=npa geom=c
 heck
 ----------------------------------------------------------------------

 -----------------------------------
 CID_85518726_JID_2810_Energie_anion
 -----------------------------------
 Structure from the checkpoint file:  "JID_2810.chk"
 Charge = -1 Multiplicity = 2

                         Standard orientation:
 ---------------------------------------------------------------------
 Center     Atomic      Atomic             Coordinates (Angstroms)
 Number     Number       Type             X           Y           Z
 ---------------------------------------------------------------------
      1          6           0        1.576394    2.301842    0.090017
      2          6           0        0.700901    1.088978   -0.203240
      3          6           0        1.414075   -0.208088    0.175730
      4          8           0        1.215807   -0.856298    1.177228
      5          8           0        2.332717   -0.513052   -0.760568
      6          6           0        3.109661   -1.695287   -0.497243
      7          8           0       -0.485669    1.254468    0.588665
      8          7           0       -1.463920    0.370712    0.203919
      9          6           0       -1.883537   -0.691640    0.933350
     10          6           0       -2.930086   -1.233359    0.205358
     11          6           0       -3.040449   -0.411502   -0.937876
     12          7           0       -2.141826    0.580377   -0.930516
     13          1           0        1.829055    2.337893    1.154112
     14          1           0        1.038536    3.215153   -0.176652
     15          1           0        2.498664    2.243295   -0.493562
     16          1           0        0.422039    1.054980   -1.260515
     17          1           0        3.663074   -1.586692    0.438884
     18          1           0        2.457009   -2.568852   -0.427449
     19          1           0        3.792479   -1.789751   -1.341171
     20          1           0       -1.390376   -0.959360    1.853081
     21          1           0       -3.521429   -2.099049    0.464701
     22          1           0       -3.733430   -0.491848   -1.764439
 ---------------------------------------------------------------------

 SCF Done:  E(UB3LYP) =  -608.054338835     A.U. after   33 cycles
 SCF Done:  E(UB3LYP) =  -608.054338835     a.u. after    1 cycles

 The electronic state is 2-A.
 Alpha  occ. eigenvalues --  -19.10020 -19.07486 -19.02144 -14.34974 -14.24651
 Alpha  occ. eigenvalues --  -10.20732 -10.15537 -10.12121 -10.11887 -10.10544
 Alpha  occ. eigenvalues --  -10.08165 -10.08081  -1.05645  -1.01520  -0.93200
 Alpha  occ. eigenvalues --   -0.92161  -0.73733  -0.70718  -0.66465  -0.62808
 Alpha  occ. eigenvalues --   -0.56203  -0.52698  -0.51470  -0.46461  -0.45964
 Alpha  occ. eigenvalues --   -0.43182  -0.40819  -0.39178  -0.38083  -0.37769
 Alpha  occ. eigenvalues --   -0.35352  -0.34085  -0.32297  -0.32009  -0.31061
 Alpha  occ. eigenvalues --   -0.30121  -0.29503  -0.27568  -0.26497  -0.23331
 Alpha  occ. eigenvalues --   -0.21846  -0.21489  -0.18949  -0.16858  -0.16311
 Alpha  occ. eigenvalues --    0.04621
 Alpha virt. eigenvalues --    0.06283   0.07126   0.08100   0.08396   0.09350
 Alpha virt. eigenvalues --    0.09445   0.09954   0.10530   0.11109   0.11378
 Alpha virt. eigenvalues --    0.12228   0.13217   0.13914   0.14155   0.15140

  Beta  occ. eigenvalues --  -19.10016 -19.07471 -19.02110 -14.34973 -14.24647
  Beta  occ. eigenvalues --  -10.20710 -10.15534 -10.12115 -10.11820 -10.10538
  Beta  occ. eigenvalues --  -10.08123 -10.08068  -1.05639  -1.01478  -0.93159
  Beta  occ. eigenvalues --   -0.92145  -0.73716  -0.70697  -0.66429  -0.62727
  Beta  occ. eigenvalues --   -0.56134  -0.52679  -0.51420  -0.46413  -0.45935
  Beta  occ. eigenvalues --   -0.43144  -0.40789  -0.39119  -0.38029  -0.37725
  Beta  occ. eigenvalues --   -0.35313  -0.34023  -0.32251  -0.31989  -0.31012
  Beta  occ. eigenvalues --   -0.30077  -0.29440  -0.27509  -0.26434  -0.23313
  Beta  occ. eigenvalues --   -0.21828  -0.21410  -0.18917  -0.16845  -0.16296
  Beta virt. eigenvalues --    0.06811   0.07364   0.08049   0.08414   0.08708
  Beta virt. eigenvalues --    0.09689   0.10133   0.10376   0.11083   0.11764
  Beta virt. eigenvalues --    0.12159   0.12735   0.13186   0.13909   0.14385

 Mulliken charges and spin densities:
               1          2
     1  C    1.480610  -1.958156
     2  C   -0.594760   0.239592
     3  C   -0.613984   0.598056
     4  O   -0.276461   0.031193
     5  O   -0.148526   0.108901
     6  C    1.651198  -1.869035
     7  O    0.330038  -0.012476
     8  N   -0.178638   0.004240
     9  C    0.171274  -0.196953
    10  C   -0.061648  -0.189620
    11  C    0.398245  -0.596926
    12  N   -0.264222   0.124638
    13  H   -0.170874   0.350644
    14  H   -0.118573   0.284184
    15  H   -0.231151   0.400423
    16  H    0.025570   0.261024
    17  H   -0.572405   0.759349
    18  H   -0.360328   0.534184
    19  H   -0.828273   0.989299
    20  H    0.090183   0.112565
    21  H   -0.550252   0.704348
    22  H   -0.177023   0.320526
 Sum of Mulliken charges =  -1.00000   1.00000

 Dipole moment (field-independent basis, Debye):
    X=             -5.7193    Y=              2.6146    Z=              1.6870  Tot=              6.5109
 Quadrupole moment (field-independent basis, Debye-Ang):
   XX=           -147.7757   YY=           -115.3808   ZZ=           -100.8049
   XY=              5.3812   XZ=              4.4582   YZ=             -0.3926

 Summary of Natural Population Analysis:

                                       Natural Population
                Natural  -----------------------------------------------
    Atom  No    Charge         Core      Valence    Rydberg      Total
 -----------------------------------------------------------------------
      C    1   -0.29060      0.99963     2.28463    0.00634     3.29060
      C    2    0.01870      0.99952     1.96738    0.01439     2.98130
      C    3    0.40093      0.99967     1.57362    0.02578     2.59907
      O    4   -0.29868      0.99987     3.29252    0.00629     4.29868
      O    5   -0.27591      0.99986     3.26595    0.01010     4.27591
      C    6   -0.10318      0.99959     2.09448    0.00911     3.10318
      O    7   -0.19346      0.99987     3.18358    0.01000     4.19346
      N    8    0.04239      0.99959     2.44267    0.01535     3.45761
      C    9   -0.00967      0.99955     1.99823    0.01189     3.00967
      C   10   -0.16531      0.99958     2.15660    0.00913     3.16531
      C   11   -0.01728      0.99963     2.00365    0.01400     3.01728
      N   12   -0.15350      0.99971     2.64223    0.01156     3.65350
      H   13    0.10534      0.00000     0.39340    0.00127     0.39466
      H   14    0.10668      0.00000     0.39202    0.00130     0.39332
      H   15    0.11364      0.00000     0.38488    0.00148     0.38636
      H   16    0.10844      0.00000     0.38922    0.00234     0.39156
      H   17    0.09432      0.00000     0.40264    0.00304     0.40568
      H   18    0.09237      0.00000     0.40595    0.00168     0.40763
      H   19    0.09731      0.00000     0.39874    0.00396     0.40269
      H   20    0.11864      0.00000     0.38029    0.00107     0.38136
      H   21    0.11044      0.00000     0.38830    0.00126     0.38956
      H   22    0.09839      0.00000     0.40064    0.00096     0.40161
 =======================================================================
   * Total *    0.00000     11.99608    32.84162    0.16230    45.00000

 Normal termination of Gaussian 16 at Wed Dec  9 18:19:28 2020.
