 Gaussian 16, Revision A.03,

 -----------------------------------------------------------
 # opt freq B3LYP/6-31G(d) empiricaldispersion=gd3bj scf=xqc
 -----------------------------------------------------------

 -------------------------------
 CID_107142334_JID_2229_neutraal
 -------------------------------
 Symbolic Z-matrix:
 Charge =  0 Multiplicity = 1

 SCF Done:  E(RB3LYP) =  -610.331904857     A.U. after   14 cycles
 SCF Done:  E(RB3LYP) =  -610.333135223     A.U. after   13 cycles
 SCF Done:  E(RB3LYP) =  -610.328533800     A.U. after   13 cycles
 SCF Done:  E(RB3LYP) =  -610.330129873     A.U. after   13 cycles
 SCF Done:  E(RB3LYP) =  -610.333950448     A.U. after   11 cycles
 SCF Done:  E(RB3LYP) =  -610.335789995     A.U. after   12 cycles
 SCF Done:  E(RB3LYP) =  -610.336547115     A.U. after   12 cycles
 SCF Done:  E(RB3LYP) =  -610.337096498     A.U. after   12 cycles
 SCF Done:  E(RB3LYP) =  -610.337263858     A.U. after   11 cycles
 SCF Done:  E(RB3LYP) =  -610.337317308     A.U. after   11 cycles
 SCF Done:  E(RB3LYP) =  -610.338774164     A.U. after   10 cycles
 SCF Done:  E(RB3LYP) =  -610.338775320     A.U. after    9 cycles
 SCF Done:  E(RB3LYP) =  -610.338775469     A.U. after    8 cycles
 SCF Done:  E(RB3LYP) =  -610.338775500     A.U. after    9 cycles
 SCF Done:  E(RB3LYP) =  -610.338775638     A.U. after    7 cycles
 Optimization completed.
    -- Stationary point found.
 Normal termination of Gaussian 16 at Wed Dec  9 17:14:48 2020.

 --------------------------------------------------------------------
 #N Geom=AllCheck Guess=TCheck SCRF=Check GenChk RB3LYP/6-31G(d) Freq
 --------------------------------------------------------------------

 Structure from the checkpoint file:  "JID_2229.chk"
 -------------------------------
 CID_107142334_JID_2229_neutraal
 -------------------------------
 Charge =  0 Multiplicity = 1

 SCF Done:  E(RB3LYP) =  -610.338775638     A.U. after    1 cycles

  Exact polarizability: 103.112   5.525  99.235   2.900  -5.650  78.269
 Approx polarizability: 140.346   8.385 135.186  10.237  -7.106 121.247

                      1                      2                      3
                      A                      A                      A
 Frequencies --     44.1880                53.7228                82.4207
 Red. masses --      4.2485                 7.6148                 2.8504
 Frc consts  --      0.0049                 0.0129                 0.0114
 IR Inten    --      1.8398                 0.1635                 4.8788

                      4                      5                      6
                      A                      A                      A
 Frequencies --    103.1034               133.1506               172.0654
 Red. masses --      4.2512                 5.1649                 5.3893
 Frc consts  --      0.0266                 0.0540                 0.0940
 IR Inten    --      1.6127                 0.6599                 2.4118

                      7                      8                      9
                      A                      A                      A
 Frequencies --    209.0307               220.3037               265.2411
 Red. masses --      3.6175                 3.1001                 2.3952
 Frc consts  --      0.0931                 0.0886                 0.0993
 IR Inten    --      0.5632                 9.7001                 2.4437

                     10                     11                     12
                      A                      A                      A
 Frequencies --    301.4498               360.8457               405.5486
 Red. masses --      3.3592                 3.0240                 2.5475
 Frc consts  --      0.1799                 0.2320                 0.2469
 IR Inten    --      0.8675                 2.9962                 4.9124

                     13                     14                     15
                      A                      A                      A
 Frequencies --    454.8137               474.4045               529.1536
 Red. masses --      2.2851                 2.0223                 2.3478
 Frc consts  --      0.2785                 0.2682                 0.3873
 IR Inten    --      6.1947                33.5413                 7.9183

                     16                     17                     18
                      A                      A                      A
 Frequencies --    573.6453               586.4374               622.1974
 Red. masses --      2.2975                 1.3215                 3.3090
 Frc consts  --      0.4454                 0.2678                 0.7547
 IR Inten    --     39.3437               127.4838                49.3630

                     19                     20                     21
                      A                      A                      A
 Frequencies --    671.7480               698.2140               716.9996
 Red. masses --      1.6203                 1.5777                 1.5159
 Frc consts  --      0.4308                 0.4532                 0.4592
 IR Inten    --    129.5860               113.1391                 3.6475

                     22                     23                     24
                      A                      A                      A
 Frequencies --    789.3746               841.4651               888.9200
 Red. masses --      2.6822                 2.0432                 2.8988
 Frc consts  --      0.9847                 0.8524                 1.3496
 IR Inten    --     15.1386                37.4346                12.8474

                     25                     26                     27
                      A                      A                      A
 Frequencies --    897.8508               906.1922               935.6820
 Red. masses --      2.6869                 2.0745                 2.0715
 Frc consts  --      1.2762                 1.0037                 1.0686
 IR Inten    --      1.1296                 4.7024                 6.9815

                     28                     29                     30
                      A                      A                      A
 Frequencies --    958.0320               966.1260              1007.0514
 Red. masses --      2.0783                 1.6073                 2.4656
 Frc consts  --      1.1239                 0.8839                 1.4733
 IR Inten    --      3.0630                 0.9919                 6.9284

                     31                     32                     33
                      A                      A                      A
 Frequencies --   1054.6477              1062.1568              1085.3852
 Red. masses --      3.2462                 2.3418                 2.5852
 Frc consts  --      2.1274                 1.5566                 1.7944
 IR Inten    --      6.9466                17.7112                89.7480

                     34                     35                     36
                      A                      A                      A
 Frequencies --   1110.8439              1149.5338              1154.5812
 Red. masses --      2.4146                 1.2757                 2.2297
 Frc consts  --      1.7555                 0.9932                 1.7512
 IR Inten    --     98.9519                11.2909                14.3234

                     37                     38                     39
                      A                      A                      A
 Frequencies --   1165.4919              1192.8924              1210.3403
 Red. masses --      2.3028                 1.6038                 2.1821
 Frc consts  --      1.8430                 1.3447                 1.8834
 IR Inten    --      3.7692                17.0450                47.9530

                     40                     41                     42
                      A                      A                      A
 Frequencies --   1236.2968              1255.3400              1287.0352
 Red. masses --      1.5453                 1.2355                 1.3129
 Frc consts  --      1.3916                 1.1471                 1.2813
 IR Inten    --    165.4872                61.2237                13.8056

                     43                     44                     45
                      A                      A                      A
 Frequencies --   1301.1811              1304.4204              1340.1657
 Red. masses --      1.4454                 1.2698                 1.6919
 Frc consts  --      1.4419                 1.2730                 1.7904
 IR Inten    --     12.2196                13.4422                12.2462

                     46                     47                     48
                      A                      A                      A
 Frequencies --   1385.1211              1395.5545              1406.1832
 Red. masses --      1.6182                 1.2885                 1.6455
 Frc consts  --      1.8291                 1.4786                 1.9170
 IR Inten    --     13.8458                10.2116                42.8154

                     49                     50                     51
                      A                      A                      A
 Frequencies --   1415.6580              1424.9694              1459.9737
 Red. masses --      1.5610                 1.2600                 1.1978
 Frc consts  --      1.8432                 1.5074                 1.5042
 IR Inten    --     17.1564                11.4097                58.8352

                     52                     53                     54
                      A                      A                      A
 Frequencies --   1502.9056              1506.6249              1517.4937
 Red. masses --      1.1194                 1.1409                 1.2576
 Frc consts  --      1.4897                 1.5258                 1.7062
 IR Inten    --      9.9935                13.2325                16.6437

                     55                     56                     57
                      A                      A                      A
 Frequencies --   1529.1856              1537.7505              1552.5515
 Red. masses --      1.0863                 1.0985                 1.1133
 Frc consts  --      1.4967                 1.5305                 1.5811
 IR Inten    --      2.4588                 4.7014                 3.2335

                     58                     59                     60
                      A                      A                      A
 Frequencies --   1806.1411              3010.8364              3020.1599
 Red. masses --      8.8591                 1.0658                 1.0648
 Frc consts  --     17.0272                 5.6922                 5.7225
 IR Inten    --    301.0070                47.8692                72.6081

                     61                     62                     63
                      A                      A                      A
 Frequencies --   3030.9973              3041.5506              3072.4806
 Red. masses --      1.0627                 1.0635                 1.0944
 Frc consts  --      5.7521                 5.7965                 6.0872
 IR Inten    --     39.8441                20.2476                78.7928

                     64                     65                     66
                      A                      A                      A
 Frequencies --   3086.9228              3088.2659              3096.6083
 Red. masses --      1.1048                 1.1032                 1.0945
 Frc consts  --      6.2027                 6.1990                 6.1834
 IR Inten    --     12.6486                83.3363                25.3245

                     67                     68                     69
                      A                      A                      A
 Frequencies --   3099.5406              3151.0614              3515.9903
 Red. masses --      1.0642                 1.1059                 1.0764
 Frc consts  --      6.0237                 6.4699                 7.8400
 IR Inten    --     24.5085                10.0140                 2.7667

                     70                     71                     72
                      A                      A                      A
 Frequencies --   3523.1609              3667.5346              3672.7512
 Red. masses --      1.0733                 1.0650                 1.0645
 Frc consts  --      7.8494                 8.4402                 8.4605
 IR Inten    --      2.6619               232.5815                74.4804

 - Thermochemistry -
 -------------------
 Temperature   298.150 Kelvin.  Pressure   1.00000 Atm.
 Atom     1 has atomic number  6 and mass  12.00000

 Molecular mass:   174.10044 amu.
 Principal axes and moments of inertia in atomic units:
                           1         2         3
     Eigenvalues --  1679.040662157.821433362.35465
           X            0.99900   0.04446  -0.00495
           Y           -0.04453   0.99887  -0.01677
           Z            0.00420   0.01698   0.99985
 This molecule is an asymmetric top.
 Rotational symmetry number  1.
 Warning -- assumption of classical behavior for rotation
           may cause significant error
 Rotational temperatures (Kelvin)      0.05159     0.04014     0.02576
 Rotational constants (GHZ):           1.07486     0.83637     0.53675
 Zero-point vibrational energy     587950.6 (Joules/Mol)
                                  140.52357 (Kcal/Mol)
 Warning -- explicit consideration of  17 degrees of freedom as
           vibrations may cause significant error
 Vibrational temperatures:     63.58    77.30   118.58   148.34   191.57
          (Kelvin)            247.56   300.75   316.97   381.62   433.72
                              519.18   583.49   654.38   682.56   761.33
                              825.35   843.75   895.20   966.50  1004.57
                             1031.60  1135.73  1210.68  1278.96  1291.81
                             1303.81  1346.24  1378.39  1390.04  1448.92
                             1517.40  1528.21  1561.63  1598.26  1653.92
                             1661.18  1676.88  1716.31  1741.41  1778.76
                             1806.15  1851.76  1872.11  1876.77  1928.20
                             1992.88  2007.89  2023.18  2036.82  2050.21
                             2100.58  2162.35  2167.70  2183.34  2200.16
                             2212.48  2233.78  2598.63  4331.92  4345.34
                             4360.93  4376.11  4420.61  4441.39  4443.33
                             4455.33  4459.55  4533.67  5058.73  5069.04
                             5276.76  5284.27

 Zero-point correction=                           0.223939 (Hartree/Particle)
 Thermal correction to Energy=                    0.236201
 Thermal correction to Enthalpy=                  0.237145
 Thermal correction to Gibbs Free Energy=         0.184815
 Sum of electronic and zero-point Energies=           -610.114837
 Sum of electronic and thermal Energies=              -610.102574
 Sum of electronic and thermal Enthalpies=            -610.101630
 Sum of electronic and thermal Free Energies=         -610.153961

                     E (Thermal)             CV                S
                      KCal/Mol        Cal/Mol-Kelvin    Cal/Mol-Kelvin
 Total                  148.218             45.884            110.140
 Electronic               0.000              0.000              0.000
 Translational            0.889              2.981             41.371
 Rotational               0.889              2.981             30.878
 Vibrational            146.441             39.923             37.891
 Vibration     1          0.595              1.980              5.062
 Vibration     2          0.596              1.976              4.675
 Vibration     3          0.600              1.961              3.832
 Vibration     4          0.605              1.947              3.395
 Vibration     5          0.613              1.920              2.900
 Vibration     6          0.626              1.877              2.413
 Vibration     7          0.642              1.827              2.052
 Vibration     8          0.647              1.810              1.957
 Vibration     9          0.671              1.737              1.627
 Vibration    10          0.693              1.671              1.409
 Vibration    11          0.735              1.553              1.118
 Vibration    12          0.771              1.458              0.942
 Vibration    13          0.813              1.350              0.781
 Vibration    14          0.831              1.307              0.725
 Vibration    15          0.884              1.185              0.589
 Vibration    16          0.930              1.088              0.497
 Vibration    17          0.944              1.061              0.474

                           ! Non-Optimized Parameters !
 Normal termination of Gaussian 16 at Wed Dec  9 17:21:36 2020.

 ----------------------------------------------------------------------
 # B3LYP/6-311++G(d,p) empiricaldispersion=gd3bj scf=xqc pop=npa geom=c
 heck
 ----------------------------------------------------------------------

 ---------------------------------------
 CID_107142334_JID_2229_Energie_neutraal
 ---------------------------------------
 Structure from the checkpoint file:  "JID_2229.chk"
 Charge =  0 Multiplicity = 1

 SCF Done:  E(RB3LYP) =  -610.541053090     A.U. after   14 cycles
 Normal termination of Gaussian 16 at Wed Dec  9 17:24:29 2020.

 ----------------------------------------------------------------------
 # B3LYP/6-311++G(d,p) empiricaldispersion=gd3bj scf=xqc pop=npa geom=c
 heck
 ----------------------------------------------------------------------

 -------------------------------------
 CID_107142334_JID_2229_Energie_kation
 -------------------------------------
 Structure from the checkpoint file:  "JID_2229.chk"
 Charge =  1 Multiplicity = 2

 SCF Done:  E(UB3LYP) =  -610.246304926     A.U. after   21 cycles
 Normal termination of Gaussian 16 at Wed Dec  9 17:30:42 2020.
 Gaussian 16:  ES64L-G16RevA.03 25-Dec-2016

 ----------------------------------------------------------------------
 # B3LYP/6-311++G(d,p) empiricaldispersion=gd3bj scf=xqc pop=npa geom=c
 heck
 ----------------------------------------------------------------------

 ------------------------------------
 CID_107142334_JID_2229_Energie_anion
 ------------------------------------
 Structure from the checkpoint file:  "JID_2229.chk"
 Charge = -1 Multiplicity = 2

                         Standard orientation:
 ---------------------------------------------------------------------
 Center     Atomic      Atomic             Coordinates (Angstroms)
 Number     Number       Type             X           Y           Z
 ---------------------------------------------------------------------
      1          6           0        2.038719   -0.042249   -0.880340
      2          6           0        0.859193   -0.425016    0.061080
      3          6           0        1.857293   -1.425620    0.717037
      4          7           0        2.804494   -1.216607   -0.402105
      5          6           0        0.419898    0.730723    1.016775
      6          6           0       -0.163237    1.871528    0.233310
      7          8           0       -1.245201    1.880300   -0.329908
      8          8           0        0.682139    2.920278    0.137712
      9          7           0       -0.185296   -1.099706   -0.672064
     10          6           0       -1.200528   -1.871205    0.040569
     11          6           0       -2.443451   -1.092884    0.509217
     12          8           0       -3.014617   -0.341749   -0.546332
     13          1           0        2.481262    0.933627   -0.637837
     14          1           0        1.803415   -0.073468   -1.950117
     15          1           0        1.501613   -2.457319    0.803476
     16          1           0        2.213916   -1.089424    1.701039
     17          1           0        3.754232   -1.002840   -0.109521
     18          1           0       -0.330817    0.358519    1.717683
     19          1           0        1.280910    1.089997    1.584662
     20          1           0        0.239191    3.581151   -0.429179
     21          1           0       -0.632488   -0.484374   -1.346757
     22          1           0       -1.545339   -2.658134   -0.642048
     23          1           0       -0.731671   -2.376093    0.894175
     24          1           0       -3.198667   -1.813750    0.846744
     25          1           0       -2.212950   -0.446825    1.369634
     26          1           0       -2.542877    0.510825   -0.560443
 ---------------------------------------------------------------------

 SCF Done:  E(UB3LYP) =  -610.532069449     A.U. after   33 cycles
 SCF Done:  E(UB3LYP) =  -610.532069449     a.u. after    1 cycles

 The electronic state is 2-A.
 Alpha  occ. eigenvalues --  -19.06898 -19.02220 -19.01030 -14.19888 -14.19344
 Alpha  occ. eigenvalues --  -10.20919 -10.12030 -10.11311 -10.09551 -10.09136
 Alpha  occ. eigenvalues --  -10.08955 -10.08134  -1.01325  -0.92505  -0.91444
 Alpha  occ. eigenvalues --   -0.84356  -0.79103  -0.68005  -0.63214  -0.58403
 Alpha  occ. eigenvalues --   -0.57689  -0.51433  -0.51192  -0.44586  -0.42217
 Alpha  occ. eigenvalues --   -0.41459  -0.41029  -0.39640  -0.38770  -0.36532
 Alpha  occ. eigenvalues --   -0.34665  -0.34332  -0.31544  -0.30692  -0.30233
 Alpha  occ. eigenvalues --   -0.29557  -0.29365  -0.28338  -0.28137  -0.24517
 Alpha  occ. eigenvalues --   -0.23141  -0.22921  -0.21107  -0.19006  -0.17938
 Alpha  occ. eigenvalues --   -0.13335  -0.11904   0.04440
 Alpha virt. eigenvalues --    0.06800   0.07384   0.08068   0.08954   0.09655
 Alpha virt. eigenvalues --    0.10228   0.10530   0.11038   0.11708   0.12891
 Alpha virt. eigenvalues --    0.13301   0.13968   0.14892   0.15388   0.15921

  Beta  occ. eigenvalues --  -19.06822 -19.02186 -19.01027 -14.19884 -14.19329
  Beta  occ. eigenvalues --  -10.20859 -10.12031 -10.11296 -10.09543 -10.09107
  Beta  occ. eigenvalues --  -10.08934 -10.08098  -1.01202  -0.92420  -0.91422
  Beta  occ. eigenvalues --   -0.84336  -0.79087  -0.67925  -0.63165  -0.58336
  Beta  occ. eigenvalues --   -0.57632  -0.51387  -0.51045  -0.44532  -0.42178
  Beta  occ. eigenvalues --   -0.41383  -0.40952  -0.39541  -0.38727  -0.36494
  Beta  occ. eigenvalues --   -0.34540  -0.34270  -0.31496  -0.30640  -0.30203
  Beta  occ. eigenvalues --   -0.29525  -0.29299  -0.28289  -0.28116  -0.24480
  Beta  occ. eigenvalues --   -0.23093  -0.22801  -0.21080  -0.18947  -0.17924
  Beta  occ. eigenvalues --   -0.13311  -0.11880
  Beta virt. eigenvalues --    0.07161   0.07909   0.08309   0.08488   0.09485
  Beta virt. eigenvalues --    0.09896   0.10696   0.10935   0.11393   0.12084
  Beta virt. eigenvalues --    0.13287   0.13564   0.14280   0.14949   0.15617

 Mulliken charges and spin densities:
               1          2
     1  C    0.378630  -0.598149
     2  C   -2.840619   2.507631
     3  C    1.251501  -1.498798
     4  N   -0.323036   0.146644
     5  C    2.571489  -2.927820
     6  C    0.201348  -0.206320
     7  O   -0.403239   0.043478
     8  O   -0.181304   0.077116
     9  N    0.063257  -0.073726
    10  C   -0.061644  -0.030266
    11  C   -0.020919  -0.431925
    12  O   -0.357688   0.025839
    13  H   -0.303560   0.464990
    14  H    0.110988   0.062554
    15  H    0.169164  -0.001902
    16  H   -0.846550   1.002556
    17  H    0.027298   0.214946
    18  H   -0.222465   0.359614
    19  H   -0.263352   0.512921
    20  H   -0.589701   0.892843
    21  H    0.231175  -0.020912
    22  H    0.134043   0.036219
    23  H   -0.087000   0.178642
    24  H    0.117144   0.032946
    25  H   -0.024624   0.172139
    26  H    0.269664   0.058742
 Sum of Mulliken charges =  -1.00000   1.00000

 Dipole moment (field-independent basis, Debye):
    X=             -2.8192    Y=             -4.4515    Z=             -1.6669  Tot=              5.5265
 Quadrupole moment (field-independent basis, Debye-Ang):
   XX=           -123.6208   YY=           -123.9539   ZZ=           -106.0344
   XY=              0.3420   XZ=             -8.2538   YZ=              0.2551

 Summary of Natural Population Analysis:

                                       Natural Population
                Natural  -----------------------------------------------
    Atom  No    Charge         Core      Valence    Rydberg      Total
 -----------------------------------------------------------------------
      C    1   -0.07986      0.99959     2.06926    0.01102     3.07986
      C    2    0.05897      0.99954     1.92509    0.01641     2.94103
      C    3   -0.07801      0.99959     2.06722    0.01120     3.07801
      N    4   -0.34174      0.99976     2.82965    0.01232     3.84174
      C    5   -0.25004      0.99953     2.23863    0.01187     3.25004
      C    6    0.42309      0.99970     1.55203    0.02518     2.57691
      O    7   -0.33364      0.99985     3.32671    0.00708     4.33364
      O    8   -0.33490      0.99988     3.32802    0.00700     4.33490
      N    9   -0.34466      0.99970     2.83333    0.01163     3.84466
      C   10   -0.10141      0.99962     2.08974    0.01205     3.10141
      C   11   -0.01945      0.99961     2.00684    0.01300     3.01945
      O   12   -0.38617      0.99989     3.37934    0.00694     4.38617
      H   13    0.09384      0.00000     0.40431    0.00186     0.40616
      H   14    0.08992      0.00000     0.40862    0.00145     0.41008
      H   15    0.08934      0.00000     0.40909    0.00157     0.41066
      H   16    0.09146      0.00000     0.40518    0.00336     0.40854
      H   17    0.17366      0.00000     0.32390    0.00244     0.32634
      H   18    0.11415      0.00000     0.38354    0.00231     0.38585
      H   19    0.11864      0.00000     0.37782    0.00354     0.38136
      H   20    0.24650      0.00000     0.22961    0.02389     0.25350
      H   21    0.18081      0.00000     0.31636    0.00283     0.31919
      H   22    0.09088      0.00000     0.40812    0.00099     0.40912
      H   23    0.09454      0.00000     0.40412    0.00134     0.40546
      H   24    0.08028      0.00000     0.41861    0.00112     0.41972
      H   25    0.07685      0.00000     0.42187    0.00129     0.42315
      H   26    0.24695      0.00000     0.24988    0.00317     0.25305
 =======================================================================
   * Total *    0.00000     11.99625    34.80690    0.19685    47.00000

 Normal termination of Gaussian 16 at Wed Dec  9 17:40:22 2020.
