 Gaussian 16, Revision A.03,

 -----------------------------------------------------------
 # opt freq B3LYP/6-31G(d) empiricaldispersion=gd3bj scf=xqc
 -----------------------------------------------------------

 -----------------------------
 CID_87353884_JID_657_neutraal
 -----------------------------
 Symbolic Z-matrix:
 Charge =  0 Multiplicity = 1

 SCF Done:  E(RB3LYP) =  -494.550790378     A.U. after   15 cycles
 SCF Done:  E(RB3LYP) =  -494.560538388     A.U. after   13 cycles
 SCF Done:  E(RB3LYP) =  -494.563177311     A.U. after   12 cycles
 SCF Done:  E(RB3LYP) =  -494.563813540     A.U. after   13 cycles
 SCF Done:  E(RB3LYP) =  -494.565490744     A.U. after   12 cycles
 SCF Done:  E(RB3LYP) =  -494.566936801     A.U. after   12 cycles
 SCF Done:  E(RB3LYP) =  -494.567937839     A.U. after   12 cycles
 SCF Done:  E(RB3LYP) =  -494.568396095     A.U. after   12 cycles
 SCF Done:  E(RB3LYP) =  -494.568789192     A.U. after   12 cycles
 SCF Done:  E(RB3LYP) =  -494.569043579     A.U. after   14 cycles
 SCF Done:  E(RB3LYP) =  -494.570252857     A.U. after   11 cycles
 SCF Done:  E(RB3LYP) =  -494.570252512     A.U. after   10 cycles
 SCF Done:  E(RB3LYP) =  -494.570253651     A.U. after   10 cycles
 SCF Done:  E(RB3LYP) =  -494.570253768     A.U. after    8 cycles
 SCF Done:  E(RB3LYP) =  -494.570253809     A.U. after    7 cycles
 Optimization completed.
    -- Stationary point found.
 Normal termination of Gaussian 16 at Tue Dec  8 12:41:04 2020.

 --------------------------------------------------------------------
 #N Geom=AllCheck Guess=TCheck SCRF=Check GenChk RB3LYP/6-31G(d) Freq
 --------------------------------------------------------------------

 Structure from the checkpoint file:  "JID_657.chk"
 -----------------------------
 CID_87353884_JID_657_neutraal
 -----------------------------
 Charge =  0 Multiplicity = 1

 SCF Done:  E(RB3LYP) =  -494.570253809     A.U. after    1 cycles

  Exact polarizability: 111.716   5.925  73.302   3.412  -2.259  59.788
 Approx polarizability: 141.676  14.965 121.130   8.206   1.533  87.443

                      1                      2                      3
                      A                      A                      A
 Frequencies --     30.1771                42.3337                54.1297
 Red. masses --      4.4365                 3.3851                 3.5319
 Frc consts  --      0.0024                 0.0036                 0.0061
 IR Inten    --      0.7955                 2.5269                 0.0753

                      4                      5                      6
                      A                      A                      A
 Frequencies --     85.1143               106.2343               163.7403
 Red. masses --      4.4675                 3.1007                 3.3221
 Frc consts  --      0.0191                 0.0206                 0.0525
 IR Inten    --      2.8548                 0.4412                 3.3902

                      7                      8                      9
                      A                      A                      A
 Frequencies --    220.2391               300.7338               355.2205
 Red. masses --      4.8684                 3.5081                 1.2219
 Frc consts  --      0.1391                 0.1869                 0.0908
 IR Inten    --      2.8597                10.7823                16.9387

                     10                     11                     12
                      A                      A                      A
 Frequencies --    383.1367               425.1559               432.8545
 Red. masses --      2.5202                 1.9912                 2.8758
 Frc consts  --      0.2180                 0.2121                 0.3175
 IR Inten    --      9.3356                 1.9346                 5.6047

                     13                     14                     15
                      A                      A                      A
 Frequencies --    528.8588               580.6206               652.2167
 Red. masses --      2.8936                 4.3275                 2.4144
 Frc consts  --      0.4768                 0.8595                 0.6051
 IR Inten    --      6.6793                 6.5646                 4.1063

                     16                     17                     18
                      A                      A                      A
 Frequencies --    686.3974               748.7382               764.6768
 Red. masses --      2.4485                 1.6726                 2.9948
 Frc consts  --      0.6797                 0.5525                 1.0318
 IR Inten    --     48.9642               247.1483                30.6253

                     19                     20                     21
                      A                      A                      A
 Frequencies --    830.3300               868.9078               938.4275
 Red. masses --      1.3285                 3.2818                 1.5628
 Frc consts  --      0.5396                 1.4599                 0.8109
 IR Inten    --     23.4318                11.4273                 2.0579

                     22                     23                     24
                      A                      A                      A
 Frequencies --    966.0168               972.2470               996.8481
 Red. masses --      1.3503                 2.2748                 2.1774
 Frc consts  --      0.7424                 1.2669                 1.2748
 IR Inten    --     34.5900                 3.9971                 5.1875

                     25                     26                     27
                      A                      A                      A
 Frequencies --   1024.2963              1029.1643              1065.1477
 Red. masses --      3.1927                 1.2574                 4.6754
 Frc consts  --      1.9736                 0.7847                 3.1253
 IR Inten    --    122.7951                 1.9430                29.1803

                     28                     29                     30
                      A                      A                      A
 Frequencies --   1101.4493              1194.0287              1198.3658
 Red. masses --      2.7096                 1.7046                 1.6252
 Frc consts  --      1.9368                 1.4318                 1.3751
 IR Inten    --     86.0721                59.4577                50.1181

                     31                     32                     33
                      A                      A                      A
 Frequencies --   1282.5551              1306.9430              1316.5029
 Red. masses --      1.9195                 1.4152                 1.2221
 Frc consts  --      1.8603                 1.4242                 1.2480
 IR Inten    --    241.5410                41.5566                35.5847

                     34                     35                     36
                      A                      A                      A
 Frequencies --   1335.6257              1341.1050              1409.6577
 Red. masses --      1.2663                 1.4663                 1.3457
 Frc consts  --      1.3309                 1.5538                 1.5756
 IR Inten    --      6.7629                 4.4878                16.5111

                     37                     38                     39
                      A                      A                      A
 Frequencies --   1412.9870              1475.5186              1484.1459
 Red. masses --      1.3203                 1.1760                 1.0827
 Frc consts  --      1.5531                 1.5085                 1.4051
 IR Inten    --      3.2686                 5.2034                 7.6422

                     40                     41                     42
                      A                      A                      A
 Frequencies --   1516.6542              1697.3873              1724.1773
 Red. masses --      1.1250                 1.5629                 2.4989
 Frc consts  --      1.5246                 2.6530                 4.3768
 IR Inten    --     17.2416                27.9712                11.8019

                     43                     44                     45
                      A                      A                      A
 Frequencies --   1736.5667              1833.1313              2994.2673
 Red. masses --      4.4606                11.1757                 1.0710
 Frc consts  --      7.9256                22.1264                 5.6573
 IR Inten    --      0.9429               201.3495                 9.2423

                     46                     47                     48
                      A                      A                      A
 Frequencies --   3095.0707              3095.8571              3151.1834
 Red. masses --      1.0598                 1.0881                 1.1010
 Frc consts  --      5.9814                 6.1445                 6.4416
 IR Inten    --     29.8419                 3.4711                 0.6913

                     49                     50                     51
                      A                      A                      A
 Frequencies --   3164.3767              3175.0436              3205.8788
 Red. masses --      1.0668                 1.0905                 1.0899
 Frc consts  --      6.2939                 6.4769                 6.5999
 IR Inten    --     13.2950                11.2863                 6.4964

                     52                     53                     54
                      A                      A                      A
 Frequencies --   3249.2875              3443.0911              3603.5655
 Red. masses --      1.1168                 1.0532                 1.0905
 Frc consts  --      6.9474                 7.3565                 8.3431
 IR Inten    --     13.4046                 4.4172                10.1048

 - Thermochemistry -
 -------------------
 Temperature   298.150 Kelvin.  Pressure   1.00000 Atm.
 Atom     1 has atomic number  6 and mass  12.00000

 Molecular mass:   142.07423 amu.
 Principal axes and moments of inertia in atomic units:
                           1         2         3
     Eigenvalues --   463.784713388.578893562.66680
           X            0.99998  -0.00522   0.00414
           Y            0.00552   0.99714  -0.07538
           Z           -0.00373   0.07540   0.99715
 This molecule is an asymmetric top.
 Rotational symmetry number  1.
 Warning -- assumption of classical behavior for rotation
           may cause significant error
 Rotational temperatures (Kelvin)      0.18675     0.02556     0.02431
 Rotational constants (GHZ):           3.89133     0.53260     0.50657
 Zero-point vibrational energy     429437.8 (Joules/Mol)
                                  102.63809 (Kcal/Mol)
 Warning -- explicit consideration of  14 degrees of freedom as
           vibrations may cause significant error
 Vibrational temperatures:     43.42    60.91    77.88   122.46   152.85
          (Kelvin)            235.59   316.87   432.69   511.08   551.25
                              611.70   622.78   760.91   835.38   938.39
                              987.57  1077.27  1100.20  1194.66  1250.16
                             1350.19  1389.88  1398.85  1434.24  1473.73
                             1480.74  1532.51  1584.74  1717.94  1724.18
                             1845.31  1880.40  1894.15  1921.67  1929.55
                             2028.18  2032.97  2122.94  2135.35  2182.13
                             2442.16  2480.71  2498.53  2637.47  4308.08
                             4453.12  4454.25  4533.85  4552.83  4568.18
                             4612.54  4675.00  4953.84  5184.73

 Zero-point correction=                           0.163564 (Hartree/Particle)
 Thermal correction to Energy=                    0.174603
 Thermal correction to Enthalpy=                  0.175547
 Thermal correction to Gibbs Free Energy=         0.124710
 Sum of electronic and zero-point Energies=           -494.406690
 Sum of electronic and thermal Energies=              -494.395651
 Sum of electronic and thermal Enthalpies=            -494.394707
 Sum of electronic and thermal Free Energies=         -494.445544

                     E (Thermal)             CV                S
                      KCal/Mol        Cal/Mol-Kelvin    Cal/Mol-Kelvin
 Total                  109.565             38.314            106.996
 Electronic               0.000              0.000              0.000
 Translational            0.889              2.981             40.765
 Rotational               0.889              2.981             30.105
 Vibrational            107.787             32.352             36.126
 Vibration     1          0.594              1.984              5.818
 Vibration     2          0.595              1.980              5.147
 Vibration     3          0.596              1.976              4.661
 Vibration     4          0.601              1.960              3.769
 Vibration     5          0.605              1.944              3.337
 Vibration     6          0.623              1.887              2.506
 Vibration     7          0.647              1.810              1.957
 Vibration     8          0.693              1.672              1.413
 Vibration     9          0.731              1.565              1.143
 Vibration    10          0.752              1.506              1.027
 Vibration    11          0.787              1.416              0.875
 Vibration    12          0.794              1.399              0.849
 Vibration    13          0.884              1.186              0.590
 Vibration    14          0.937              1.073              0.484

 Optimization completed.
    -- Stationary point found.
 Normal termination of Gaussian 16 at Tue Dec  8 12:49:15 2020.

 ----------------------------------------------------------------------
 # B3LYP/6-311++G(d,p) empiricaldispersion=gd3bj scf=xqc pop=npa geom=c
 heck
 ----------------------------------------------------------------------

 -------------------------------------
 CID_87353884_JID_657_Energie_neutraal
 -------------------------------------
 Structure from the checkpoint file:  "JID_657.chk"
 Charge =  0 Multiplicity = 1

 SCF Done:  E(RB3LYP) =  -494.725955691     A.U. after   14 cycles
 Normal termination of Gaussian 16 at Tue Dec  8 13:04:03 2020.

 ----------------------------------------------------------------------
 # B3LYP/6-311++G(d,p) empiricaldispersion=gd3bj scf=xqc pop=npa geom=c
 heck
 ----------------------------------------------------------------------

 -----------------------------------
 CID_87353884_JID_657_Energie_kation
 -----------------------------------
 Structure from the checkpoint file:  "JID_657.chk"
 Charge =  1 Multiplicity = 2

 SCF Done:  E(UB3LYP) =  -494.401190690     A.U. after   29 cycles
 Normal termination of Gaussian 16 at Tue Dec  8 13:09:05 2020.
 Gaussian 16:  ES64L-G16RevA.03 25-Dec-2016

 ----------------------------------------------------------------------
 # B3LYP/6-311++G(d,p) empiricaldispersion=gd3bj scf=xqc pop=npa geom=c
 heck
 ----------------------------------------------------------------------

 ----------------------------------
 CID_87353884_JID_657_Energie_anion
 ----------------------------------
 Structure from the checkpoint file:  "JID_657.chk"
 Charge = -1 Multiplicity = 2

                         Standard orientation:
 ---------------------------------------------------------------------
 Center     Atomic      Atomic             Coordinates (Angstroms)
 Number     Number       Type             X           Y           Z
 ---------------------------------------------------------------------
      1          6           0        3.840904    0.542858   -0.574767
      2          6           0        3.035205   -0.515499   -0.647514
      3          6           0        2.133147   -0.940426    0.471958
      4          8           0        0.738518   -0.763980    0.099956
      5          6           0        0.220497    0.465263    0.327923
      6          8           0        0.823877    1.375655    0.848992
      7          6           0       -1.207562    0.546295   -0.169083
      8          6           0       -2.082407   -0.605042    0.273375
      9          7           0       -3.349504   -0.672867    0.109200
     10          7           0       -3.980709    0.396878   -0.494414
     11          1           0        3.874401    1.166731    0.314629
     12          1           0        4.487463    0.827672   -1.400282
     13          1           0        2.991344   -1.117490   -1.554131
     14          1           0        2.217736   -2.010616    0.677402
     15          1           0        2.333390   -0.370779    1.381141
     16          1           0       -1.624731    1.501745    0.167802
     17          1           0       -1.163412    0.586263   -1.270958
     18          1           0       -1.620085   -1.445229    0.783232
     19          1           0       -3.445360    0.853117   -1.234408
     20          1           0       -4.877118    0.086424   -0.850868
 ---------------------------------------------------------------------

 SCF Done:  E(UB3LYP) =  -494.713398862     A.U. after   33 cycles
 SCF Done:  E(UB3LYP) =  -494.713398862     a.u. after    1 cycles

 The electronic state is 2-A.
 Alpha  occ. eigenvalues --  -19.06721 -19.01060 -14.23281 -14.22836 -10.20087
 Alpha  occ. eigenvalues --  -10.13166 -10.09504 -10.08505 -10.07826 -10.07189
 Alpha  occ. eigenvalues --   -1.00591  -0.92101  -0.88409  -0.71517  -0.69785
 Alpha  occ. eigenvalues --   -0.65375  -0.59841  -0.49435  -0.47847  -0.46029
 Alpha  occ. eigenvalues --   -0.42896  -0.40118  -0.39161  -0.38097  -0.36259
 Alpha  occ. eigenvalues --   -0.35581  -0.33347  -0.31844  -0.30122  -0.29268
 Alpha  occ. eigenvalues --   -0.26679  -0.25955  -0.25553  -0.21027  -0.19113
 Alpha  occ. eigenvalues --   -0.17663  -0.16414  -0.12923   0.04739
 Alpha virt. eigenvalues --    0.06680   0.07813   0.08134   0.08869   0.09120
 Alpha virt. eigenvalues --    0.10106   0.10551   0.11078   0.11344   0.11975
 Alpha virt. eigenvalues --    0.12663   0.13551   0.15158   0.16673   0.17427

  Beta  occ. eigenvalues --  -19.06711 -19.01033 -14.23267 -14.22760 -10.20054
  Beta  occ. eigenvalues --  -10.13152 -10.09501 -10.08463 -10.07779 -10.07122
  Beta  occ. eigenvalues --   -1.00551  -0.92058  -0.88338  -0.71420  -0.69671
  Beta  occ. eigenvalues --   -0.65273  -0.59755  -0.49319  -0.47736  -0.45946
  Beta  occ. eigenvalues --   -0.42832  -0.40055  -0.39053  -0.38046  -0.36176
  Beta  occ. eigenvalues --   -0.35518  -0.33287  -0.31792  -0.30031  -0.29214
  Beta  occ. eigenvalues --   -0.26626  -0.25884  -0.25514  -0.20968  -0.19024
  Beta  occ. eigenvalues --   -0.17413  -0.16332  -0.12862
  Beta virt. eigenvalues --    0.07179   0.08084   0.08342   0.08699   0.09195
  Beta virt. eigenvalues --    0.09613   0.10387   0.10871   0.11443   0.11772
  Beta virt. eigenvalues --    0.12460   0.12587   0.14362   0.15168   0.16677

 Mulliken charges and spin densities:
               1          2
     1  C   -0.028191  -0.414752
     2  C   -0.323430   0.692611
     3  C    0.919236  -1.404431
     4  O   -0.024506   0.071781
     5  C    0.986336  -1.187191
     6  O   -0.300109   0.023262
     7  C   -0.269123   0.002478
     8  C   -0.166992  -0.057974
     9  N   -0.175122   0.115614
    10  N    0.110257  -0.421176
    11  H   -0.010012   0.136151
    12  H   -0.073484   0.181890
    13  H   -0.474631   0.638139
    14  H   -0.251720   0.422576
    15  H    0.088687   0.071784
    16  H    0.056160   0.127518
    17  H   -0.496392   0.712301
    18  H    0.111202   0.094582
    19  H   -0.468702   0.725497
    20  H   -0.209464   0.469340
 Sum of Mulliken charges =  -1.00000   1.00000

 Dipole moment (field-independent basis, Debye):
    X=              4.1062    Y=             -0.5773    Z=              3.9652  Tot=              5.7373
 Quadrupole moment (field-independent basis, Debye-Ang):
   XX=           -134.8008   YY=            -87.8975   ZZ=            -90.5746
   XY=              4.9026   XZ=             -5.5056   YZ=              0.5468

 Summary of Natural Population Analysis:

                                       Natural Population
                Natural  -----------------------------------------------
    Atom  No    Charge         Core      Valence    Rydberg      Total
 -----------------------------------------------------------------------
      C    1   -0.16321      0.99956     2.15677    0.00687     3.16321
      C    2   -0.10238      0.99956     2.09219    0.01063     3.10238
      C    3   -0.03432      0.99953     2.02124    0.01355     3.03432
      O    4   -0.28299      0.99986     3.27325    0.00988     4.28299
      C    5    0.41956      0.99970     1.55524    0.02551     2.58044
      O    6   -0.30487      0.99987     3.29950    0.00551     4.30487
      C    7   -0.27782      0.99957     2.26882    0.00943     3.27782
      C    8    0.02619      0.99963     1.95889    0.01529     2.97381
      N    9   -0.13662      0.99966     2.61992    0.01704     3.63662
      N   10   -0.31398      0.99975     2.80034    0.01389     3.81398
      H   11    0.09272      0.00000     0.40610    0.00118     0.40728
      H   12    0.09228      0.00000     0.40658    0.00114     0.40772
      H   13    0.09586      0.00000     0.40254    0.00161     0.40414
      H   14    0.09648      0.00000     0.40172    0.00181     0.40352
      H   15    0.09695      0.00000     0.40164    0.00141     0.40305
      H   16    0.11812      0.00000     0.38065    0.00123     0.38188
      H   17    0.12647      0.00000     0.36964    0.00389     0.37353
      H   18    0.09339      0.00000     0.40503    0.00159     0.40661
      H   19    0.17591      0.00000     0.31302    0.01107     0.32409
      H   20    0.18228      0.00000     0.31434    0.00338     0.31772
 =======================================================================
   * Total *   -0.00000      9.99670    27.84740    0.15590    38.00000

 Normal termination of Gaussian 16 at Tue Dec  8 13:17:18 2020.
