 Gaussian 16, Revision A.03,

 -----------------------------------------------------------
 # opt freq B3LYP/6-31G(d) empiricaldispersion=gd3bj scf=xqc
 -----------------------------------------------------------

 -------------------------------
 CID_120305048_JID_6184_neutraal
 -------------------------------
 Symbolic Z-matrix:
 Charge =  0 Multiplicity = 1

 SCF Done:  E(RB3LYP) =  -1126.43563859     A.U. after   15 cycles
 SCF Done:  E(RB3LYP) =  -1126.44674177     A.U. after   12 cycles
 SCF Done:  E(RB3LYP) =  -1126.44556387     A.U. after   13 cycles
 SCF Done:  E(RB3LYP) =  -1126.44630570     A.U. after   13 cycles
 SCF Done:  E(RB3LYP) =  -1126.44800040     A.U. after   10 cycles
 SCF Done:  E(RB3LYP) =  -1126.44870146     A.U. after   13 cycles
 SCF Done:  E(RB3LYP) =  -1126.44908542     A.U. after   11 cycles
 SCF Done:  E(RB3LYP) =  -1126.44937303     A.U. after   12 cycles
 SCF Done:  E(RB3LYP) =  -1126.44954150     A.U. after   11 cycles
 SCF Done:  E(RB3LYP) =  -1126.44968821     A.U. after   11 cycles
 SCF Done:  E(RB3LYP) =  -1126.45478932     A.U. after   11 cycles
 SCF Done:  E(RB3LYP) =  -1126.45480731     A.U. after   11 cycles
 SCF Done:  E(RB3LYP) =  -1126.45481495     A.U. after    9 cycles
 SCF Done:  E(RB3LYP) =  -1126.45481959     A.U. after    8 cycles
 SCF Done:  E(RB3LYP) =  -1126.45482071     A.U. after    8 cycles
 SCF Done:  E(RB3LYP) =  -1126.45482090     A.U. after    7 cycles
 Optimization completed.
    -- Stationary point found.
 Normal termination of Gaussian 16 at Thu Dec 10 21:49:37 2020.

 --------------------------------------------------------------------
 #N Geom=AllCheck Guess=TCheck SCRF=Check GenChk RB3LYP/6-31G(d) Freq
 --------------------------------------------------------------------

 Structure from the checkpoint file:  "JID_6184.chk"
 -------------------------------
 CID_120305048_JID_6184_neutraal
 -------------------------------
 Charge =  0 Multiplicity = 1

 SCF Done:  E(RB3LYP) =  -1126.45482090     A.U. after    1 cycles

  Exact polarizability: 148.754  -7.250 134.466   2.042   2.007 130.990
 Approx polarizability: 204.152  -2.834 186.863   1.955   0.593 219.908

                      1                      2                      3
                      A                      A                      A
 Frequencies --     40.2844                65.2954                78.6898
 Red. masses --      5.1183                 4.7701                 3.1962
 Frc consts  --      0.0049                 0.0120                 0.0117
 IR Inten    --      2.8092                 4.7401                 2.2630

                      4                      5                      6
                      A                      A                      A
 Frequencies --    107.5689               131.1573               147.5587
 Red. masses --      4.5174                 3.9574                 3.4962
 Frc consts  --      0.0308                 0.0401                 0.0449
 IR Inten    --      1.1957                 2.1713                 7.1152

                      7                      8                      9
                      A                      A                      A
 Frequencies --    155.9191               172.9262               185.8293
 Red. masses --      3.1798                 1.5348                 3.5490
 Frc consts  --      0.0455                 0.0270                 0.0722
 IR Inten    --      1.1476                 0.5183                 1.1681

                     10                     11                     12
                      A                      A                      A
 Frequencies --    195.0636               217.0070               234.3938
 Red. masses --      1.3581                 2.8244                 1.9427
 Frc consts  --      0.0304                 0.0784                 0.0629
 IR Inten    --      1.8084                 1.8247                 0.7608

                     13                     14                     15
                      A                      A                      A
 Frequencies --    237.8893               265.4483               278.6790
 Red. masses --      2.7273                 1.5852                 2.0101
 Frc consts  --      0.0909                 0.0658                 0.0920
 IR Inten    --      7.1973                 0.7161                 0.8408

                     16                     17                     18
                      A                      A                      A
 Frequencies --    281.3629               290.2811               310.4917
 Red. masses --      1.7372                 1.6683                 2.5183
 Frc consts  --      0.0810                 0.0828                 0.1430
 IR Inten    --      1.9405                 2.0235                 0.7794

                     19                     20                     21
                      A                      A                      A
 Frequencies --    333.2055               356.1542               359.8083
 Red. masses --      3.0654                 2.8832                 3.2281
 Frc consts  --      0.2005                 0.2155                 0.2462
 IR Inten    --      0.9852                 4.9338                11.9627

                     22                     23                     24
                      A                      A                      A
 Frequencies --    381.7925               435.0096               476.2228
 Red. masses --      3.5089                 4.2089                 5.2347
 Frc consts  --      0.3014                 0.4693                 0.6995
 IR Inten    --      2.8853                28.4652                16.6025

                     25                     26                     27
                      A                      A                      A
 Frequencies --    497.5562               515.0474               561.9218
 Red. masses --      3.2775                 5.1491                 4.4687
 Frc consts  --      0.4781                 0.8048                 0.8314
 IR Inten    --      4.3865                20.2193                12.1788

                     28                     29                     30
                      A                      A                      A
 Frequencies --    640.0788               661.3695               672.0718
 Red. masses --      3.5358                 3.3616                 2.6036
 Frc consts  --      0.8535                 0.8663                 0.6929
 IR Inten    --      4.9875                 5.5925                60.3551

                     31                     32                     33
                      A                      A                      A
 Frequencies --    703.9921               746.2204               774.0508
 Red. masses --      4.2384                 2.9259                 3.4449
 Frc consts  --      1.2376                 0.9599                 1.2161
 IR Inten    --      0.9889                14.8833                56.5800

                     34                     35                     36
                      A                      A                      A
 Frequencies --    839.3194               872.2872               905.8523
 Red. masses --      2.6724                 1.5048                 2.2531
 Frc consts  --      1.1092                 0.6746                 1.0893
 IR Inten    --      5.6647                 0.0335                 0.6858

                     37                     38                     39
                      A                      A                      A
 Frequencies --    941.4364               973.4391               983.9943
 Red. masses --      2.8054                 1.3732                 1.7100
 Frc consts  --      1.4650                 0.7666                 0.9755
 IR Inten    --     32.4114                11.5044                 5.1459

                     40                     41                     42
                      A                      A                      A
 Frequencies --    997.4618              1009.1194              1021.4264
 Red. masses --      1.4321                 1.7026                 3.0128
 Frc consts  --      0.8395                 1.0215                 1.8520
 IR Inten    --     18.0810                 2.2827                 7.0681

                     43                     44                     45
                      A                      A                      A
 Frequencies --   1028.5793              1058.9363              1061.2151
 Red. masses --      1.6163                 2.1867                 1.9144
 Frc consts  --      1.0075                 1.4447                 1.2703
 IR Inten    --      3.2065                 1.9047                10.1704

                     46                     47                     48
                      A                      A                      A
 Frequencies --   1083.0848              1094.6075              1107.5165
 Red. masses --      2.9447                 2.1252                 2.5855
 Frc consts  --      2.0352                 1.5003                 1.8685
 IR Inten    --     33.9455                21.0627                96.7838

                     49                     50                     51
                      A                      A                      A
 Frequencies --   1124.7543              1142.0597              1144.8213
 Red. masses --      1.8126                 1.6958                 1.3178
 Frc consts  --      1.3510                 1.3031                 1.0176
 IR Inten    --     20.9065                31.9167                 7.4832

                     52                     53                     54
                      A                      A                      A
 Frequencies --   1161.1698              1174.0138              1209.7104
 Red. masses --      1.3269                 1.8033                 2.6087
 Frc consts  --      1.0541                 1.4644                 2.2492
 IR Inten    --      4.4078                33.5966                 1.4123

                     55                     56                     57
                      A                      A                      A
 Frequencies --   1213.7177              1228.3459              1244.5479
 Red. masses --      1.4028                 1.2875                 4.1655
 Frc consts  --      1.2175                 1.1446                 3.8013
 IR Inten    --      0.4297                 6.9010                16.2196

                     58                     59                     60
                      A                      A                      A
 Frequencies --   1283.2802              1296.3533              1302.6272
 Red. masses --      3.5070                 1.3036                 1.8191
 Frc consts  --      3.4027                 1.2907                 1.8187
 IR Inten    --    156.0573                15.8726                76.7307

                     61                     62                     63
                      A                      A                      A
 Frequencies --   1337.0568              1361.5759              1371.5547
 Red. masses --      1.6365                 1.3347                 1.5153
 Frc consts  --      1.7237                 1.4579                 1.6795
 IR Inten    --     12.4267                 4.8749                 1.1036

                     64                     65                     66
                      A                      A                      A
 Frequencies --   1375.6958              1385.9615              1388.5865
 Red. masses --      1.2938                 1.2316                 1.3408
 Frc consts  --      1.4426                 1.3939                 1.5232
 IR Inten    --      2.3174                19.4775                10.5499

                     67                     68                     69
                      A                      A                      A
 Frequencies --   1415.7666              1427.9900              1440.9148
 Red. masses --      1.8288                 1.2429                 1.3033
 Frc consts  --      2.1597                 1.4933                 1.5943
 IR Inten    --    117.9062                 7.1433                37.5283

                     70                     71                     72
                      A                      A                      A
 Frequencies --   1471.9065              1477.4842              1491.0767
 Red. masses --      1.1763                 1.0526                 1.0513
 Frc consts  --      1.5015                 1.3539                 1.3771
 IR Inten    --      2.5408                11.5726                 4.4940

                     73                     74                     75
                      A                      A                      A
 Frequencies --   1515.8183              1525.0605              1526.4517
 Red. masses --      1.0451                 1.1341                 1.0596
 Frc consts  --      1.4148                 1.5541                 1.4547
 IR Inten    --      6.1109                 3.4245                 1.0798

                     76                     77                     78
                      A                      A                      A
 Frequencies --   1531.2047              1533.6104              1540.4164
 Red. masses --      1.2585                 1.0871                 1.0773
 Frc consts  --      1.7385                 1.5064                 1.5061
 IR Inten    --     19.2443                 5.5870                10.3206

                     79                     80                     81
                      A                      A                      A
 Frequencies --   1552.2890              1556.9886              1563.7954
 Red. masses --      1.0531                 1.1653                 1.1301
 Frc consts  --      1.4950                 1.6644                 1.6282
 IR Inten    --      0.8657                23.8607                22.1028

                     82                     83                     84
                      A                      A                      A
 Frequencies --   1739.7264              3010.5341              3023.3644
 Red. masses --      9.2884                 1.0668                 1.0703
 Frc consts  --     16.5635                 5.6967                 5.7643
 IR Inten    --    211.1414                63.5927                96.6038

                     85                     86                     87
                      A                      A                      A
 Frequencies --   3047.7220              3057.4941              3060.9984
 Red. masses --      1.0499                 1.0801                 1.0419
 Frc consts  --      5.7458                 5.9489                 5.7518
 IR Inten    --     42.0237                 3.1773                22.5298

                     88                     89                     90
                      A                      A                      A
 Frequencies --   3077.2016              3091.9443              3097.8924
 Red. masses --      1.0400                 1.0311                 1.0968
 Frc consts  --      5.8023                 5.8079                 6.2016
 IR Inten    --     18.8943                11.5853                15.1748

                     91                     92                     93
                      A                      A                      A
 Frequencies --   3102.1496              3102.8675              3121.0002
 Red. masses --      1.0860                 1.0866                 1.1025
 Frc consts  --      6.1574                 6.1636                 6.3273
 IR Inten    --     14.9268                19.2444                29.7699

                     94                     95                     96
                      A                      A                      A
 Frequencies --   3130.6891              3134.5358              3140.4806
 Red. masses --      1.0913                 1.1018                 1.0957
 Frc consts  --      6.3017                 6.3783                 6.3670
 IR Inten    --      7.6242                14.0163                12.2542

                     97                     98                     99
                      A                      A                      A
 Frequencies --   3175.3221              3186.0158              3200.0106
 Red. masses --      1.0993                 1.1039                 1.0983
 Frc consts  --      6.5302                 6.6017                 6.6265
 IR Inten    --      6.0941                 6.1583                12.5379

                    100                    101                    102
                      A                      A                      A
 Frequencies --   3207.3529              3209.7687              3502.9830
 Red. masses --      1.1010                 1.1058                 1.0761
 Frc consts  --      6.6729                 6.7121                 7.7798
 IR Inten    --      5.3415                14.1646                 1.6339

 - Thermochemistry -
 -------------------
 Temperature   298.150 Kelvin.  Pressure   1.00000 Atm.
 Atom     1 has atomic number  6 and mass  12.00000

 Molecular mass:   248.11946 amu.
 Principal axes and moments of inertia in atomic units:
                           1         2         3
     Eigenvalues --  2732.184514381.217455165.99874
           X            0.99823  -0.05467   0.02336
           Y            0.05376   0.99783   0.03796
           Z           -0.02539  -0.03663   0.99901
 This molecule is an asymmetric top.
 Rotational symmetry number  1.
 Warning -- assumption of classical behavior for rotation
           may cause significant error
 Rotational temperatures (Kelvin)      0.03170     0.01977     0.01677
 Rotational constants (GHZ):           0.66055     0.41193     0.34935
 Zero-point vibrational energy     814808.1 (Joules/Mol)
                                  194.74382 (Kcal/Mol)
 Warning -- explicit consideration of  27 degrees of freedom as
           vibrations may cause significant error
 Vibrational temperatures:     57.96    93.95   113.22   154.77   188.71
          (Kelvin)            212.30   224.33   248.80   267.37   280.65
                              312.22   337.24   342.27   381.92   400.96
                              404.82   417.65   446.73   479.41   512.43
                              517.68   549.31   625.88   685.18   715.87
                              741.04   808.48   920.93   951.56   966.96
                             1012.89  1073.64  1113.69  1207.59  1255.03
                             1303.32  1354.52  1400.56  1415.75  1435.13
                             1451.90  1469.60  1479.90  1523.57  1526.85
                             1558.32  1574.90  1593.47  1618.27  1643.17
                             1647.14  1670.66  1689.14  1740.50  1746.27
                             1767.32  1790.63  1846.35  1865.16  1874.19
                             1923.73  1959.00  1973.36  1979.32  1994.09
                             1997.87  2036.97  2054.56  2073.15  2117.75
                             2125.77  2145.33  2180.92  2194.22  2196.22
                             2203.06  2206.52  2216.32  2233.40  2240.16
                             2249.95  2503.08  4331.49  4349.95  4384.99
                             4399.05  4404.09  4427.41  4448.62  4457.18
                             4463.30  4464.33  4490.42  4504.36  4509.90
                             4518.45  4568.58  4583.97  4604.10  4614.67
                             4618.14  5040.01

 Zero-point correction=                           0.310344 (Hartree/Particle)
 Thermal correction to Energy=                    0.327933
 Thermal correction to Enthalpy=                  0.328877
 Thermal correction to Gibbs Free Energy=         0.266161
 Sum of electronic and zero-point Energies=          -1126.144477
 Sum of electronic and thermal Energies=             -1126.126888
 Sum of electronic and thermal Enthalpies=           -1126.125944
 Sum of electronic and thermal Free Energies=        -1126.188660

                     E (Thermal)             CV                S
                      KCal/Mol        Cal/Mol-Kelvin    Cal/Mol-Kelvin
 Total                  205.781             66.603            131.997
 Electronic               0.000              0.000              0.000
 Translational            0.889              2.981             42.427
 Rotational               0.889              2.981             32.492
 Vibrational            204.003             60.641             57.078
 Vibration     1          0.594              1.981              5.245
 Vibration     2          0.597              1.971              4.290
 Vibration     3          0.600              1.963              3.923
 Vibration     4          0.606              1.943              3.312
 Vibration     5          0.612              1.922              2.929
 Vibration     6          0.617              1.905              2.703
 Vibration     7          0.620              1.896              2.599
 Vibration     8          0.626              1.876              2.403
 Vibration     9          0.632              1.859              2.269
 Vibration    10          0.636              1.847              2.179
 Vibration    11          0.646              1.815              1.984
 Vibration    12          0.654              1.788              1.845
 Vibration    13          0.656              1.783              1.819
 Vibration    14          0.671              1.736              1.626
 Vibration    15          0.679              1.713              1.542
 Vibration    16          0.681              1.708              1.525
 Vibration    17          0.686              1.692              1.472
 Vibration    18          0.699              1.654              1.360
 Vibration    19          0.715              1.609              1.244
 Vibration    20          0.732              1.563              1.139
 Vibration    21          0.734              1.555              1.123
 Vibration    22          0.751              1.509              1.032
 Vibration    23          0.796              1.394              0.842
 Vibration    24          0.833              1.303              0.720
 Vibration    25          0.853              1.255              0.664
 Vibration    26          0.870              1.217              0.622
 Vibration    27          0.918              1.114              0.520

                           ! Non-Optimized Parameters !
 Normal termination of Gaussian 16 at Thu Dec 10 22:04:39 2020.

 ----------------------------------------------------------------------
 # B3LYP/6-311++G(d,p) empiricaldispersion=gd3bj scf=xqc pop=npa geom=c
 heck
 ----------------------------------------------------------------------

 ---------------------------------------
 CID_120305048_JID_6184_Energie_neutraal
 ---------------------------------------
 Structure from the checkpoint file:  "JID_6184.chk"
 Charge =  0 Multiplicity = 1

 SCF Done:  E(RB3LYP) =  -1126.69436252     A.U. after   16 cycles
 Normal termination of Gaussian 16 at Thu Dec 10 22:13:03 2020.

 ----------------------------------------------------------------------
 # B3LYP/6-311++G(d,p) empiricaldispersion=gd3bj scf=xqc pop=npa geom=c
 heck
 ----------------------------------------------------------------------

 -------------------------------------
 CID_120305048_JID_6184_Energie_kation
 -------------------------------------
 Structure from the checkpoint file:  "JID_6184.chk"
 Charge =  1 Multiplicity = 2

 SCF Done:  E(UB3LYP) =  -1126.37992170     A.U. after   29 cycles
 Normal termination of Gaussian 16 at Thu Dec 10 22:35:27 2020.
 Gaussian 16:  ES64L-G16RevA.03 25-Dec-2016

 ----------------------------------------------------------------------
 # B3LYP/6-311++G(d,p) empiricaldispersion=gd3bj scf=xqc pop=npa geom=c
 heck
 ----------------------------------------------------------------------

 ------------------------------------
 CID_120305048_JID_6184_Energie_anion
 ------------------------------------
 Structure from the checkpoint file:  "JID_6184.chk"
 Charge = -1 Multiplicity = 2

                         Standard orientation:
 ---------------------------------------------------------------------
 Center     Atomic      Atomic             Coordinates (Angstroms)
 Number     Number       Type             X           Y           Z
 ---------------------------------------------------------------------
      1          6           0       -1.023147    2.985968   -0.207731
      2          6           0       -0.985657    1.589841    0.424866
      3          6           0       -1.909495    0.592121   -0.327018
      4          6           0       -1.959755    0.612412   -1.856823
      5         16           0       -1.769878   -1.138012    0.294888
      6          8           0       -1.233490   -1.110668    1.672523
      7          8           0       -3.086092   -1.754764    0.045464
      8          6           0       -0.589779   -2.004748   -0.758132
      9          7           0        0.398961    1.155395    0.699862
     10          6           0        0.769410    1.206158    2.112445
     11          6           0        1.279074    0.897353   -0.307421
     12          8           0        0.973436    1.022441   -1.494335
     13          6           0        2.657661    0.373098    0.095305
     14          6           0        2.622976   -0.997710    0.836621
     15          7           0        2.818971   -1.658552   -0.473924
     16          6           0        3.342959   -0.396302   -1.053977
     17          1           0       -0.532672    2.980581   -1.181833
     18          1           0       -0.503078    3.697520    0.442350
     19          1           0       -2.056524    3.329656   -0.327727
     20          1           0       -1.426252    1.660470    1.421491
     21          1           0       -2.921996    0.815340    0.032203
     22          1           0       -0.989519    0.398999   -2.299940
     23          1           0       -2.712031   -0.101622   -2.205578
     24          1           0       -2.267940    1.606691   -2.193137
     25          1           0       -0.970290   -2.010028   -1.779622
     26          1           0        0.412468   -1.578042   -0.717255
     27          1           0       -0.576208   -3.023552   -0.363051
     28          1           0        1.832908    1.020263    2.244714
     29          1           0        0.553605    2.203563    2.515887
     30          1           0        0.198980    0.457685    2.668078
     31          1           0        3.250518    1.161696    0.566857
     32          1           0        3.466075   -1.100952    1.536399
     33          1           0        1.695159   -1.275415    1.347977
     34          1           0        3.462581   -2.447082   -0.475087
     35          1           0        2.983106   -0.171943   -2.060052
     36          1           0        4.437316   -0.298758   -1.010476
 ---------------------------------------------------------------------

 SCF Done:  E(UB3LYP) =  -1126.68687325     A.U. after   31 cycles

 The electronic state is 2-A.
 Alpha  occ. eigenvalues --  -88.95194 -19.02105 -19.01901 -18.99315 -14.25352
 Alpha  occ. eigenvalues --  -14.20328 -10.17739 -10.13885 -10.13219 -10.11022
 Alpha  occ. eigenvalues --  -10.10514 -10.10130 -10.09423 -10.08904 -10.08363
 Alpha  occ. eigenvalues --  -10.07547  -8.01696  -5.97956  -5.97843  -5.97798
 Alpha  occ. eigenvalues --   -1.01150  -0.94745  -0.90782  -0.84911  -0.83621
 Alpha  occ. eigenvalues --   -0.73825  -0.68353  -0.65813  -0.63964  -0.61260
 Alpha  occ. eigenvalues --   -0.59326  -0.58006  -0.55082  -0.51078  -0.47546
 Alpha  occ. eigenvalues --   -0.43755  -0.43077  -0.41798  -0.41179  -0.39855
 Alpha  occ. eigenvalues --   -0.39024  -0.38040  -0.37090  -0.36574  -0.34666
 Alpha  occ. eigenvalues --   -0.33742  -0.33231  -0.32777  -0.32019  -0.31348
 Alpha  occ. eigenvalues --   -0.30838  -0.30452  -0.29989  -0.29727  -0.29277
 Alpha  occ. eigenvalues --   -0.27925  -0.26691  -0.25973  -0.24499  -0.23860
 Alpha  occ. eigenvalues --   -0.22828  -0.22655  -0.21004  -0.19707  -0.16421
 Alpha  occ. eigenvalues --   -0.15604  -0.14109   0.03883
 Alpha virt. eigenvalues --    0.05606   0.06824   0.07802   0.08113   0.08407
 Alpha virt. eigenvalues --    0.08899   0.09650   0.10261   0.10741   0.11020
 Alpha virt. eigenvalues --    0.11367   0.11667   0.11972   0.12617   0.13182

  Beta  occ. eigenvalues --  -88.95194 -19.02102 -19.01900 -18.99303 -14.25350
  Beta  occ. eigenvalues --  -14.20302 -10.17724 -10.13879 -10.13212 -10.11012
  Beta  occ. eigenvalues --  -10.10488 -10.10100 -10.09401 -10.08890 -10.08355
  Beta  occ. eigenvalues --  -10.07510  -8.01695  -5.97955  -5.97842  -5.97798
  Beta  occ. eigenvalues --   -1.01146  -0.94722  -0.90779  -0.84896  -0.83584
  Beta  occ. eigenvalues --   -0.73805  -0.68332  -0.65779  -0.63907  -0.61213
  Beta  occ. eigenvalues --   -0.59294  -0.57948  -0.55035  -0.51046  -0.47494
  Beta  occ. eigenvalues --   -0.43715  -0.42981  -0.41764  -0.41150  -0.39824
  Beta  occ. eigenvalues --   -0.39015  -0.38018  -0.37075  -0.36548  -0.34641
  Beta  occ. eigenvalues --   -0.33728  -0.33208  -0.32754  -0.31984  -0.31292
  Beta  occ. eigenvalues --   -0.30800  -0.30412  -0.29954  -0.29681  -0.29246
  Beta  occ. eigenvalues --   -0.27895  -0.26659  -0.25946  -0.24439  -0.23851
  Beta  occ. eigenvalues --   -0.22802  -0.22645  -0.21001  -0.19697  -0.16402
  Beta  occ. eigenvalues --   -0.15569  -0.14048
  Beta virt. eigenvalues --    0.06121   0.06920   0.07427   0.08131   0.08622
  Beta virt. eigenvalues --    0.08894   0.09257   0.09968   0.10532   0.10891
  Beta virt. eigenvalues --    0.11490   0.11653   0.11928   0.12240   0.12882

 Mulliken charges and spin densities:
               1          2
     1  C    0.815281  -1.399933
     2  C   -0.872273   0.902011
     3  C   -0.258373  -0.162571
     4  C   -0.207688  -0.383120
     5  S    0.241194  -0.030082
     6  O   -0.176024  -0.005211
     7  O   -0.127517   0.013056
     8  C   -0.720402   0.095850
     9  N    0.194815   0.122037
    10  C    0.321719  -0.716091
    11  C    0.099179  -0.792373
    12  O   -0.225949   0.022857
    13  C   -0.828110   1.191090
    14  C    1.062059  -1.594786
    15  N   -0.208577  -0.049373
    16  C    0.519405  -0.979155
    17  H    0.127796   0.077202
    18  H   -0.234782   0.391586
    19  H   -0.222383   0.384059
    20  H    0.092760   0.127240
    21  H    0.036794   0.244163
    22  H    0.143440   0.094164
    23  H    0.130626   0.046639
    24  H    0.107939   0.037401
    25  H    0.201230   0.010098
    26  H    0.643036  -0.297692
    27  H    0.129244   0.113681
    28  H   -0.091198   0.247980
    29  H   -0.372963   0.526107
    30  H    0.205982   0.029923
    31  H   -0.524551   0.822453
    32  H   -0.754900   0.929985
    33  H    0.166087  -0.034615
    34  H   -0.017280   0.289236
    35  H    0.157320   0.016177
    36  H   -0.552937   0.710005
 Sum of Mulliken charges =  -1.00000   1.00000

 Dipole moment (field-independent basis, Debye):
    X=             -5.5850    Y=             -1.4162    Z=             -3.3870  Tot=              6.6836
 Quadrupole moment (field-independent basis, Debye-Ang):
   XX=           -192.4118   YY=           -154.7590   ZZ=           -141.3448
   XY=             -0.8166   XZ=             -3.3802   YZ=              0.6531

 Summary of Natural Population Analysis:

                                       Natural Population
                Natural  -----------------------------------------------
    Atom  No    Charge         Core      Valence    Rydberg      Total
 -----------------------------------------------------------------------
      C    1   -0.29254      0.99963     2.28674    0.00616     3.29254
      C    2   -0.00787      0.99954     1.99216    0.01617     3.00787
      C    3   -0.19453      0.99952     2.17980    0.01520     3.19453
      C    4   -0.30413      0.99963     2.29748    0.00702     3.30413
      S    5    1.02087      4.99924     1.88723    0.09267     6.97913
      O    6   -0.47435      0.99991     3.46891    0.00553     4.47435
      O    7   -0.47762      0.99991     3.47236    0.00535     4.47762
      C    8   -0.39449      0.99959     2.38780    0.00710     3.39449
      N    9   -0.25902      0.99962     2.74460    0.01480     3.75902
      C   10   -0.17660      0.99961     2.16916    0.00784     3.17660
      C   11    0.35117      0.99960     1.62505    0.02418     2.64883
      O   12   -0.33814      0.99988     3.33314    0.00512     4.33814
      C   13   -0.16095      0.99955     2.14789    0.01350     3.16095
      C   14   -0.08385      0.99964     2.07273    0.01148     3.08385
      N   15   -0.34951      0.99976     2.83679    0.01296     3.84951
      C   16   -0.07581      0.99964     2.06492    0.01125     3.07581
      H   17    0.11280      0.00000     0.38619    0.00100     0.38720
      H   18    0.10652      0.00000     0.39232    0.00116     0.39348
      H   19    0.10006      0.00000     0.39884    0.00110     0.39994
      H   20    0.10587      0.00000     0.39242    0.00171     0.39413
      H   21    0.11676      0.00000     0.38193    0.00131     0.38324
      H   22    0.12116      0.00000     0.37784    0.00100     0.37884
      H   23    0.10453      0.00000     0.39457    0.00090     0.39547
      H   24    0.10758      0.00000     0.39166    0.00076     0.39242
      H   25    0.11325      0.00000     0.38594    0.00081     0.38675
      H   26    0.13151      0.00000     0.36642    0.00207     0.36849
      H   27    0.11788      0.00000     0.38098    0.00114     0.38212
      H   28    0.10538      0.00000     0.39334    0.00128     0.39462
      H   29    0.09503      0.00000     0.40381    0.00116     0.40497
      H   30    0.10942      0.00000     0.38921    0.00137     0.39058
      H   31    0.11684      0.00000     0.37980    0.00336     0.38316
      H   32    0.09293      0.00000     0.40327    0.00380     0.40707
      H   33    0.09402      0.00000     0.40398    0.00201     0.40598
      H   34    0.17756      0.00000     0.31973    0.00271     0.32244
      H   35    0.09977      0.00000     0.39890    0.00133     0.40023
      H   36    0.08851      0.00000     0.40930    0.00219     0.41149
 =======================================================================
   * Total *   -0.00000     19.99426    46.71724    0.28850    67.00000

 Normal termination of Gaussian 16 at Thu Dec 10 23:00:20 2020.
