 Gaussian 16, Revision A.03,

 -----------------------------------------------------------
 # opt freq B3LYP/6-31G(d) empiricaldispersion=gd3bj scf=xqc
 -----------------------------------------------------------

 -------------------------------
 CID_141021469_JID_9609_neutraal
 -------------------------------
 Symbolic Z-matrix:
 Charge =  0 Multiplicity = 1

 SCF Done:  E(RB3LYP) =  -841.266447816     A.U. after   15 cycles
 SCF Done:  E(RB3LYP) =  -841.270754902     A.U. after   13 cycles
 SCF Done:  E(RB3LYP) =  -841.269984476     A.U. after   13 cycles
 SCF Done:  E(RB3LYP) =  -841.272240840     A.U. after   12 cycles
 SCF Done:  E(RB3LYP) =  -841.272752230     A.U. after   13 cycles
 SCF Done:  E(RB3LYP) =  -841.273103725     A.U. after   13 cycles
 SCF Done:  E(RB3LYP) =  -841.273281248     A.U. after   12 cycles
 SCF Done:  E(RB3LYP) =  -841.273412806     A.U. after   12 cycles
 SCF Done:  E(RB3LYP) =  -841.273473594     A.U. after   12 cycles
 SCF Done:  E(RB3LYP) =  -841.273502240     A.U. after   11 cycles
 SCF Done:  E(RB3LYP) =  -841.273760267     A.U. after    8 cycles
 SCF Done:  E(RB3LYP) =  -841.273760344     A.U. after    8 cycles
 SCF Done:  E(RB3LYP) =  -841.273760408     A.U. after    7 cycles
 SCF Done:  E(RB3LYP) =  -841.273760432     A.U. after    7 cycles
 SCF Done:  E(RB3LYP) =  -841.273760437     A.U. after    6 cycles
 Optimization completed.
    -- Stationary point found.
 Normal termination of Gaussian 16 at Sun Dec 13 16:37:31 2020.

 --------------------------------------------------------------------
 #N Geom=AllCheck Guess=TCheck SCRF=Check GenChk RB3LYP/6-31G(d) Freq
 --------------------------------------------------------------------

 Structure from the checkpoint file:  "JID_9609.chk"
 -------------------------------
 CID_141021469_JID_9609_neutraal
 -------------------------------
 Charge =  0 Multiplicity = 1

 SCF Done:  E(RB3LYP) =  -841.273760437     A.U. after    1 cycles

  Exact polarizability: 193.142   6.859 186.359  11.791  11.348 120.603
 Approx polarizability: 268.745   8.241 287.479  24.556  26.573 208.977

                      1                      2                      3
                      A                      A                      A
 Frequencies --      9.7992                27.2248                38.4236
 Red. masses --      4.2378                 4.1064                 3.2879
 Frc consts  --      0.0002                 0.0018                 0.0029
 IR Inten    --      0.5399                 0.8300                 1.8854

                      4                      5                      6
                      A                      A                      A
 Frequencies --     48.2391                48.9973                52.4855
 Red. masses --      1.1092                 1.7844                 2.4488
 Frc consts  --      0.0015                 0.0025                 0.0040
 IR Inten    --      0.1349                 0.9859                 1.0501

                      7                      8                      9
                      A                      A                      A
 Frequencies --     59.3230                80.8187               117.6466
 Red. masses --      3.5400                 4.4431                 3.7583
 Frc consts  --      0.0073                 0.0171                 0.0306
 IR Inten    --      1.3414                 0.8259                 0.8048

                     10                     11                     12
                      A                      A                      A
 Frequencies --    145.3163               214.9037               276.5523
 Red. masses --      4.1840                 5.4702                 3.8438
 Frc consts  --      0.0521                 0.1488                 0.1732
 IR Inten    --      0.7626                 0.7968                 4.9382

                     13                     14                     15
                      A                      A                      A
 Frequencies --    276.9771               292.3771               316.1340
 Red. masses --      2.6499                 4.9386                 2.7430
 Frc consts  --      0.1198                 0.2487                 0.1615
 IR Inten    --      1.9991                 2.0196                 2.7221

                     16                     17                     18
                      A                      A                      A
 Frequencies --    338.8765               363.9743               376.2782
 Red. masses --      3.1559                 3.1915                 2.9943
 Frc consts  --      0.2135                 0.2491                 0.2498
 IR Inten    --      1.2366                 0.5911                 1.3793

                     19                     20                     21
                      A                      A                      A
 Frequencies --    420.1349               422.2741               439.7577
 Red. masses --      3.6210                 3.5459                 4.4345
 Frc consts  --      0.3766                 0.3725                 0.5053
 IR Inten    --      2.7312                 1.9754                14.4296

                     22                     23                     24
                      A                      A                      A
 Frequencies --    493.3636               494.8150               528.6567
 Red. masses --      2.7943                 3.2663                 3.5384
 Frc consts  --      0.4007                 0.4712                 0.5827
 IR Inten    --      2.8362                 3.7638                 4.5828

                     25                     26                     27
                      A                      A                      A
 Frequencies --    559.9632               622.0853               660.7261
 Red. masses --      5.3634                 4.8157                 7.2483
 Frc consts  --      0.9908                 1.0980                 1.8644
 IR Inten    --      8.5980                10.5911                 0.6135

                     28                     29                     30
                      A                      A                      A
 Frequencies --    669.7040               706.3567               739.8394
 Red. masses --      7.3706                 3.8984                 3.8345
 Frc consts  --      1.9477                 1.1460                 1.2366
 IR Inten    --      0.9934                10.4109                 1.5424

                     31                     32                     33
                      A                      A                      A
 Frequencies --    752.1404               754.0737               808.6185
 Red. masses --      4.2769                 4.2259                 2.7440
 Frc consts  --      1.4255                 1.4158                 1.0571
 IR Inten    --      9.2691                 4.6598                 5.1180

                     34                     35                     36
                      A                      A                      A
 Frequencies --    839.5897               852.5708               863.3995
 Red. masses --      2.4773                 1.5894                 3.4945
 Frc consts  --      1.0289                 0.6807                 1.5348
 IR Inten    --      5.2729                 6.1214                 4.9877

                     37                     38                     39
                      A                      A                      A
 Frequencies --    873.5876               892.8451               944.7841
 Red. masses --      2.6383                 3.9232                 1.3190
 Frc consts  --      1.1863                 1.8426                 0.6937
 IR Inten    --     17.4135                 4.8181                 0.2495

                     40                     41                     42
                      A                      A                      A
 Frequencies --    948.4848               956.7030               983.6528
 Red. masses --      1.3183                 2.2634                 1.3496
 Frc consts  --      0.6988                 1.2206                 0.7694
 IR Inten    --      0.1340                 1.8736                 0.0279

                     43                     44                     45
                      A                      A                      A
 Frequencies --   1003.6153              1022.0445              1023.8903
 Red. masses --      1.3009                 1.4389                 1.4652
 Frc consts  --      0.7720                 0.8856                 0.9050
 IR Inten    --      1.5317                 1.5195                 0.5678

                     46                     47                     48
                      A                      A                      A
 Frequencies --   1053.2060              1054.9585              1057.4068
 Red. masses --      2.5419                 3.1239                 2.9911
 Frc consts  --      1.6613                 2.0484                 1.9704
 IR Inten    --     14.3953                 8.2718                15.1028

                     49                     50                     51
                      A                      A                      A
 Frequencies --   1074.4172              1078.9797              1079.2533
 Red. masses --      4.1445                 1.5226                 1.5517
 Frc consts  --      2.8188                 1.0444                 1.0649
 IR Inten    --     58.8982                 1.8896                 3.8749

                     52                     53                     54
                      A                      A                      A
 Frequencies --   1171.2857              1185.9061              1195.8121
 Red. masses --      1.2726                 1.3075                 1.4801
 Frc consts  --      1.0286                 1.0834                 1.2470
 IR Inten    --     10.7981                 4.0669               131.9068

                     55                     56                     57
                      A                      A                      A
 Frequencies --   1249.2021              1250.0652              1262.7133
 Red. masses --      3.7996                 4.2116                 2.2090
 Frc consts  --      3.4934                 3.8776                 2.0752
 IR Inten    --      9.6631                 8.0998                61.8118

                     58                     59                     60
                      A                      A                      A
 Frequencies --   1266.5384              1282.0769              1302.0908
 Red. masses --      2.0315                 2.7655                 1.5713
 Frc consts  --      1.9200                 2.6783                 1.5696
 IR Inten    --     81.8161               102.9194                37.9024

                     61                     62                     63
                      A                      A                      A
 Frequencies --   1312.6739              1324.0986              1338.6758
 Red. masses --      2.6527                 4.4491                 1.5328
 Frc consts  --      2.6931                 4.5959                 1.6184
 IR Inten    --     38.4622                 5.3895                 2.4400

                     64                     65                     66
                      A                      A                      A
 Frequencies --   1346.7137              1368.6935              1408.7647
 Red. masses --      1.7062                 1.5826                 1.4748
 Frc consts  --      1.8232                 1.7467                 1.7245
 IR Inten    --     11.2248                 8.2673                 8.2709

                     67                     68                     69
                      A                      A                      A
 Frequencies --   1433.3267              1434.4764              1445.0767
 Red. masses --      2.6252                 2.5741                 1.2530
 Frc consts  --      3.1777                 3.1208                 1.5416
 IR Inten    --     16.9566                35.5944                 0.0218

                     70                     71                     72
                      A                      A                      A
 Frequencies --   1446.0061              1485.2670              1495.5330
 Red. masses --      1.2508                 1.0991                 1.0956
 Frc consts  --      1.5409                 1.4286                 1.4437
 IR Inten    --      0.0772                 7.4007                14.8335

                     73                     74                     75
                      A                      A                      A
 Frequencies --   1515.1857              1515.6193              1524.1383
 Red. masses --      1.0437                 1.0441                 1.1030
 Frc consts  --      1.4118                 1.4131                 1.5097
 IR Inten    --      6.4228                 5.3174                 6.6764

                     76                     77                     78
                      A                      A                      A
 Frequencies --   1524.7280              1540.2938              1543.2260
 Red. masses --      1.1070                 2.7131                 2.6196
 Frc consts  --      1.5163                 3.7925                 3.6758
 IR Inten    --      7.9825                30.8655                49.6024

                     79                     80                     81
                      A                      A                      A
 Frequencies --   1628.2209              1630.8526              1662.4732
 Red. masses --      5.3705                 5.1231                 5.8585
 Frc consts  --      8.3886                 8.0281                 9.5400
 IR Inten    --     23.2122                12.8446                13.7181

                     82                     83                     84
                      A                      A                      A
 Frequencies --   1663.8880              1839.2970              3044.8177
 Red. masses --      5.7832                11.5326                 1.0370
 Frc consts  --      9.4333                22.9869                 5.6646
 IR Inten    --     17.2404               262.5615                32.9932

                     85                     86                     87
                      A                      A                      A
 Frequencies --   3047.8027              3070.2653              3095.2072
 Red. masses --      1.0370                 1.0636                 1.0572
 Frc consts  --      5.6757                 5.9071                 5.9677
 IR Inten    --     28.9698                 8.9388                17.7939

                     88                     89                     90
                      A                      A                      A
 Frequencies --   3097.6995              3101.7697              3124.8199
 Red. masses --      1.1012                 1.1013                 1.1010
 Frc consts  --      6.2258                 6.2426                 6.3342
 IR Inten    --     19.1890                17.0769                14.0147

                     91                     92                     93
                      A                      A                      A
 Frequencies --   3127.6465              3128.4845              3147.0707
 Red. masses --      1.0994                 1.1012                 1.1084
 Frc consts  --      6.3365                 6.3500                 6.4679
 IR Inten    --      2.6981                12.6162                 5.9926

                     94                     95                     96
                      A                      A                      A
 Frequencies --   3155.1787              3160.5052              3178.1368
 Red. masses --      1.0901                 1.0903                 1.0900
 Frc consts  --      6.3940                 6.4165                 6.4868
 IR Inten    --     43.9716                28.0338                17.0894

                     97                     98                     99
                      A                      A                      A
 Frequencies --   3182.5723              3206.6917              3218.5462
 Red. masses --      1.0888                 1.0945                 1.0943
 Frc consts  --      6.4978                 6.6310                 6.6788
 IR Inten    --     13.5858                14.1668                23.2568

 - Thermochemistry -
 -------------------
 Temperature   298.150 Kelvin.  Pressure   1.00000 Atm.
 Atom     1 has atomic number  6 and mass  12.00000

 Molecular mass:   256.12118 amu.
 Principal axes and moments of inertia in atomic units:
                           1         2         3
     Eigenvalues --  3319.349207820.70214**********
           X            0.99995   0.00584   0.00773
           Y           -0.00592   0.99993   0.01011
           Z           -0.00767  -0.01016   0.99992
 This molecule is an asymmetric top.
 Rotational symmetry number  1.
 Warning -- assumption of classical behavior for rotation
           may cause significant error
 Rotational temperatures (Kelvin)      0.02609     0.01107     0.00860
 Rotational constants (GHZ):           0.54370     0.23076     0.17924
 Zero-point vibrational energy     750300.1 (Joules/Mol)
                                  179.32603 (Kcal/Mol)
 Warning -- explicit consideration of  25 degrees of freedom as
           vibrations may cause significant error
 Vibrational temperatures:     14.10    39.17    55.28    69.41    70.50
          (Kelvin)             75.51    85.35   116.28   169.27   209.08
                              309.20   397.90   398.51   420.67   454.85
                              487.57   523.68   541.38   604.48   607.56
                              632.71   709.84   711.93   760.62   805.66
                              895.04   950.64   963.55  1016.29  1064.46
                             1082.16  1084.94  1163.42  1207.98  1226.66
                             1242.24  1256.90  1284.61  1359.33  1364.66
                             1376.48  1415.26  1443.98  1470.49  1473.15
                             1515.33  1517.85  1521.37  1545.85  1552.41
                             1552.80  1685.22  1706.25  1720.51  1797.32
                             1798.57  1816.76  1822.27  1844.62  1873.42
                             1888.64  1905.08  1926.06  1937.62  1969.24
                             2026.90  2062.24  2063.89  2079.14  2080.48
                             2136.97  2151.74  2180.01  2180.64  2192.90
                             2193.74  2216.14  2220.36  2342.65  2346.43
                             2391.93  2393.96  2646.34  4380.81  4385.11
                             4417.43  4453.31  4456.90  4462.75  4495.92
                             4499.99  4501.19  4527.93  4539.60  4547.26
                             4572.63  4579.01  4613.71  4630.77

 Zero-point correction=                           0.285774 (Hartree/Particle)
 Thermal correction to Energy=                    0.303623
 Thermal correction to Enthalpy=                  0.304567
 Thermal correction to Gibbs Free Energy=         0.235278
 Sum of electronic and zero-point Energies=           -840.987986
 Sum of electronic and thermal Energies=              -840.970138
 Sum of electronic and thermal Enthalpies=            -840.969194
 Sum of electronic and thermal Free Energies=         -841.038482

                     E (Thermal)             CV                S
                      KCal/Mol        Cal/Mol-Kelvin    Cal/Mol-Kelvin
 Total                  190.526             65.305            145.830
 Electronic               0.000              0.000              0.000
 Translational            0.889              2.981             42.521
 Rotational               0.889              2.981             33.924
 Vibrational            188.749             59.343             69.384
 Vibration     1          0.593              1.987              8.051
 Vibration     2          0.593              1.984              6.022
 Vibration     3          0.594              1.982              5.339
 Vibration     4          0.595              1.978              4.888
 Vibration     5          0.595              1.978              4.857
 Vibration     6          0.596              1.977              4.721
 Vibration     7          0.597              1.974              4.480
 Vibration     8          0.600              1.962              3.871
 Vibration     9          0.608              1.935              3.139
 Vibration    10          0.617              1.908              2.733
 Vibration    11          0.645              1.818              2.002
 Vibration    12          0.678              1.717              1.555
 Vibration    13          0.678              1.716              1.552
 Vibration    14          0.688              1.688              1.460
 Vibration    15          0.703              1.643              1.330
 Vibration    16          0.719              1.598              1.217
 Vibration    17          0.738              1.546              1.105
 Vibration    18          0.747              1.521              1.054
 Vibration    19          0.783              1.426              0.892
 Vibration    20          0.785              1.422              0.884
 Vibration    21          0.800              1.383              0.827
 Vibration    22          0.849              1.265              0.675
 Vibration    23          0.850              1.262              0.671
 Vibration    24          0.884              1.187              0.590
 Vibration    25          0.916              1.118              0.524

 Optimization completed.
    -- Stationary point found.
 Normal termination of Gaussian 16 at Sun Dec 13 16:54:41 2020.

 ----------------------------------------------------------------------
 # B3LYP/6-311++G(d,p) empiricaldispersion=gd3bj scf=xqc pop=npa geom=c
 heck
 ----------------------------------------------------------------------

 ---------------------------------------
 CID_141021469_JID_9609_Energie_neutraal
 ---------------------------------------
 Structure from the checkpoint file:  "JID_9609.chk"
 Charge =  0 Multiplicity = 1

 SCF Done:  E(RB3LYP) =  -841.498149129     A.U. after   15 cycles
 Normal termination of Gaussian 16 at Sun Dec 13 17:02:15 2020.

 ----------------------------------------------------------------------
 # B3LYP/6-311++G(d,p) empiricaldispersion=gd3bj scf=xqc pop=npa geom=c
 heck
 ----------------------------------------------------------------------

 -------------------------------------
 CID_141021469_JID_9609_Energie_kation
 -------------------------------------
 Structure from the checkpoint file:  "JID_9609.chk"
 Charge =  1 Multiplicity = 2

 SCF Done:  E(UB3LYP) =  -841.190322247     A.U. after   27 cycles
 Normal termination of Gaussian 16 at Sun Dec 13 17:21:13 2020.
 Gaussian 16:  ES64L-G16RevA.03 25-Dec-2016

 ----------------------------------------------------------------------
 # B3LYP/6-311++G(d,p) empiricaldispersion=gd3bj scf=xqc pop=npa geom=c
 heck
 ----------------------------------------------------------------------

 ------------------------------------
 CID_141021469_JID_9609_Energie_anion
 ------------------------------------
 Structure from the checkpoint file:  "JID_9609.chk"
 Charge = -1 Multiplicity = 2

                         Standard orientation:
 ---------------------------------------------------------------------
 Center     Atomic      Atomic             Coordinates (Angstroms)
 Number     Number       Type             X           Y           Z
 ---------------------------------------------------------------------
      1          6           0       -3.765607    3.193744   -0.487750
      2          6           0       -3.333342    1.779275   -0.201712
      3          6           0       -2.270135    1.501099    0.663892
      4          7           0       -1.836124    0.273670    0.962119
      5          6           0       -2.451516   -0.772651    0.392147
      6          6           0       -3.522330   -0.608586   -0.490213
      7          6           0       -3.964844    0.676952   -0.785449
      8          6           0       -1.926489   -2.138359    0.766715
      9          6           0       -0.443806   -2.318901    0.479063
     10          8           0        0.335616   -2.885725    1.208049
     11          8           0       -0.120691   -1.791014   -0.724762
     12          6           0        1.262365   -1.868965   -1.107552
     13          6           0        2.073943   -0.691577   -0.612681
     14          7           0        3.323408   -0.654999   -1.093048
     15          6           0        4.116263    0.343630   -0.694920
     16          6           0        3.730505    1.356987    0.188778
     17          6           0        2.419152    1.297084    0.670265
     18          6           0        1.572484    0.267192    0.270718
     19          6           0        4.683554    2.450860    0.595658
     20          1           0       -3.147683    3.914030    0.057054
     21          1           0       -3.687264    3.426226   -1.556477
     22          1           0       -4.809422    3.359467   -0.195354
     23          1           0       -1.737364    2.321773    1.143302
     24          1           0       -3.997475   -1.475400   -0.939353
     25          1           0       -4.796180    0.824955   -1.470868
     26          1           0       -2.062047   -2.324825    1.835458
     27          1           0       -2.471663   -2.916866    0.219821
     28          1           0        1.693796   -2.801033   -0.733721
     29          1           0        1.262891   -1.887522   -2.199503
     30          1           0        5.126157    0.341341   -1.105060
     31          1           0        2.058843    2.056784    1.360757
     32          1           0        0.553049    0.214537    0.637270
     33          1           0        4.853874    2.449732    1.679128
     34          1           0        5.654949    2.332058    0.105481
     35          1           0        4.293971    3.441255    0.330515
 ---------------------------------------------------------------------

 SCF Done:  E(UB3LYP) =  -841.493273432     A.U. after   33 cycles
 SCF Done:  E(UB3LYP) =  -841.493273432     a.u. after    1 cycles

 The electronic state is 2-A.
 Alpha  occ. eigenvalues --  -19.06493 -19.01125 -14.19152 -14.17159 -10.20090
 Alpha  occ. eigenvalues --  -10.12516 -10.09801 -10.09254 -10.08949 -10.08169
 Alpha  occ. eigenvalues --  -10.07700 -10.07671 -10.07644 -10.06732 -10.06411
 Alpha  occ. eigenvalues --  -10.06353 -10.05897 -10.05785 -10.05218  -1.00641
 Alpha  occ. eigenvalues --   -0.92216  -0.83315  -0.81989  -0.70730  -0.69835
 Alpha  occ. eigenvalues --   -0.68591  -0.66937  -0.64296  -0.62230  -0.58202
 Alpha  occ. eigenvalues --   -0.56395  -0.52081  -0.51258  -0.49896  -0.48103
 Alpha  occ. eigenvalues --   -0.45767  -0.40816  -0.40721  -0.39457  -0.38901
 Alpha  occ. eigenvalues --   -0.37351  -0.36403  -0.35013  -0.34345  -0.33858
 Alpha  occ. eigenvalues --   -0.33087  -0.32163  -0.31871  -0.31467  -0.30049
 Alpha  occ. eigenvalues --   -0.29797  -0.28998  -0.28389  -0.28030  -0.27475
 Alpha  occ. eigenvalues --   -0.27276  -0.26179  -0.25189  -0.24857  -0.24233
 Alpha  occ. eigenvalues --   -0.20930  -0.18256  -0.17381  -0.16695  -0.15112
 Alpha  occ. eigenvalues --   -0.14188  -0.13603  -0.13336   0.04609
 Alpha virt. eigenvalues --    0.06327   0.06687   0.07081   0.07725   0.08584
 Alpha virt. eigenvalues --    0.08857   0.09034   0.09468   0.10077   0.10193
 Alpha virt. eigenvalues --    0.10402   0.10939   0.11238   0.11359   0.11956

  Beta  occ. eigenvalues --  -19.06494 -19.01121 -14.18999 -14.16848 -10.20080
  Beta  occ. eigenvalues --  -10.12520 -10.09760 -10.09238 -10.08884 -10.08176
  Beta  occ. eigenvalues --  -10.07689 -10.07632 -10.07624 -10.06600 -10.06399
  Beta  occ. eigenvalues --  -10.06341 -10.05896 -10.05786 -10.04951  -1.00636
  Beta  occ. eigenvalues --   -0.92210  -0.83104  -0.81572  -0.70590  -0.69641
  Beta  occ. eigenvalues --   -0.68336  -0.66755  -0.64178  -0.62153  -0.58107
  Beta  occ. eigenvalues --   -0.56288  -0.51910  -0.50908  -0.49791  -0.47906
  Beta  occ. eigenvalues --   -0.45707  -0.40763  -0.40625  -0.39399  -0.38796
  Beta  occ. eigenvalues --   -0.37271  -0.36324  -0.34948  -0.34265  -0.33732
  Beta  occ. eigenvalues --   -0.32962  -0.32003  -0.31767  -0.31386  -0.29982
  Beta  occ. eigenvalues --   -0.29725  -0.28921  -0.28298  -0.27812  -0.27268
  Beta  occ. eigenvalues --   -0.27176  -0.25767  -0.24831  -0.24769  -0.24124
  Beta  occ. eigenvalues --   -0.20898  -0.18207  -0.16694  -0.15376  -0.14908
  Beta  occ. eigenvalues --   -0.13869  -0.13256  -0.12720
  Beta virt. eigenvalues --    0.06608   0.07117   0.07744   0.07836   0.08693
  Beta virt. eigenvalues --    0.08905   0.09036   0.09136   0.09483   0.10058
  Beta virt. eigenvalues --    0.10353   0.10428   0.11055   0.11178   0.11558

 Mulliken charges and spin densities:
               1          2
     1  C    0.609127  -1.116210
     2  C    0.667865   0.255948
     3  C   -0.743580  -0.112250
     4  N    0.088324   0.141017
     5  C   -0.298959   0.085207
     6  C    0.269531   0.143474
     7  C   -1.024484   0.474967
     8  C   -0.410140  -0.146953
     9  C   -0.283477   0.014560
    10  O   -0.193029   0.000866
    11  O    0.111807  -0.000157
    12  C   -0.066987  -0.068932
    13  C   -0.922467   0.102897
    14  N    0.006121   0.081408
    15  C   -0.446498  -0.135380
    16  C    0.122483   0.157624
    17  C    0.215227   0.271357
    18  C   -0.056899   0.162862
    19  C    0.263360  -0.779531
    20  H   -0.092720   0.223620
    21  H    0.151542  -0.011623
    22  H   -0.181105   0.334480
    23  H    0.052792   0.083381
    24  H    0.082455   0.060931
    25  H   -0.063582   0.183733
    26  H    0.171035   0.043089
    27  H    0.148798   0.006278
    28  H    0.199237  -0.002752
    29  H    0.150172   0.037195
    30  H    0.103147   0.050395
    31  H    0.066980   0.100853
    32  H    0.291913  -0.063037
    33  H    0.130542   0.013663
    34  H    0.019289   0.108558
    35  H   -0.137819   0.298462
 Sum of Mulliken charges =  -1.00000   1.00000

 Dipole moment (field-independent basis, Debye):
    X=              0.8140    Y=             -2.6048    Z=             -0.9655  Tot=              2.8948
 Quadrupole moment (field-independent basis, Debye-Ang):
   XX=           -181.2259   YY=           -149.1456   ZZ=           -129.4176
   XY=             12.6587   XZ=              3.2984   YZ=              4.6157

 Summary of Natural Population Analysis:

                                       Natural Population
                Natural  -----------------------------------------------
    Atom  No    Charge         Core      Valence    Rydberg      Total
 -----------------------------------------------------------------------
      C    1   -0.28935      0.99964     2.28502    0.00469     3.28935
      C    2   -0.04031      0.99951     2.03149    0.00931     3.04031
      C    3    0.03595      0.99953     1.94974    0.01477     2.96405
      N    4   -0.21080      0.99967     2.69928    0.01186     3.71080
      C    5    0.11195      0.99954     1.87525    0.01326     2.88805
      C    6   -0.12140      0.99951     2.11314    0.00875     3.12140
      C    7   -0.03857      0.99952     2.02891    0.01015     3.03857
      C    8   -0.24395      0.99955     2.23541    0.00899     3.24395
      C    9    0.41839      0.99970     1.55648    0.02543     2.58161
      O   10   -0.30568      0.99987     3.30029    0.00553     4.30568
      O   11   -0.27906      0.99986     3.27084    0.00837     4.27906
      C   12   -0.02494      0.99952     2.01363    0.01179     3.02494
      C   13    0.09472      0.99953     1.89042    0.01533     2.90528
      N   14   -0.22504      0.99967     2.71375    0.01162     3.72504
      C   15    0.02666      0.99954     1.96010    0.01371     2.97334
      C   16   -0.04373      0.99951     2.03499    0.00922     3.04373
      C   17   -0.05702      0.99952     2.04779    0.00970     3.05702
      C   18   -0.12038      0.99950     2.11209    0.00878     3.12038
      C   19   -0.29048      0.99964     2.28610    0.00474     3.29048
      H   20    0.10054      0.00000     0.39842    0.00104     0.39946
      H   21    0.09941      0.00000     0.39952    0.00107     0.40059
      H   22    0.10248      0.00000     0.39557    0.00194     0.39752
      H   23    0.08369      0.00000     0.41492    0.00139     0.41631
      H   24    0.09497      0.00000     0.40396    0.00107     0.40503
      H   25    0.09225      0.00000     0.40683    0.00092     0.40775
      H   26    0.11478      0.00000     0.38357    0.00165     0.38522
      H   27    0.10877      0.00000     0.39022    0.00101     0.39123
      H   28    0.10246      0.00000     0.39624    0.00130     0.39754
      H   29    0.09804      0.00000     0.40047    0.00149     0.40196
      H   30    0.08283      0.00000     0.41571    0.00146     0.41717
      H   31    0.09733      0.00000     0.40170    0.00098     0.40267
      H   32    0.12203      0.00000     0.37535    0.00263     0.37797
      H   33    0.10031      0.00000     0.39853    0.00117     0.39969
      H   34    0.09898      0.00000     0.40001    0.00101     0.40102
      H   35    0.10418      0.00000     0.39397    0.00185     0.39582
 =======================================================================
   * Total *    0.00000     18.99233    48.77971    0.22797    68.00000

 Normal termination of Gaussian 16 at Sun Dec 13 17:44:29 2020.
