 Gaussian 16, Revision A.03,

 -----------------------------------------------------------
 # opt freq B3LYP/6-31G(d) empiricaldispersion=gd3bj scf=xqc
 -----------------------------------------------------------

 ------------------------------
 CID_65053564_JID_5994_neutraal
 ------------------------------
 Symbolic Z-matrix:
 Charge =  0 Multiplicity = 1

 SCF Done:  E(RB3LYP) =  -692.429953399     A.U. after   14 cycles
 SCF Done:  E(RB3LYP) =  -692.434777655     A.U. after   12 cycles
 SCF Done:  E(RB3LYP) =  -692.432705512     A.U. after   13 cycles
 SCF Done:  E(RB3LYP) =  -692.433983929     A.U. after   12 cycles
 SCF Done:  E(RB3LYP) =  -692.436062286     A.U. after    8 cycles
 SCF Done:  E(RB3LYP) =  -692.436442279     A.U. after   12 cycles
 SCF Done:  E(RB3LYP) =  -692.436797816     A.U. after   12 cycles
 SCF Done:  E(RB3LYP) =  -692.437121084     A.U. after   11 cycles
 SCF Done:  E(RB3LYP) =  -692.437533845     A.U. after   12 cycles
 SCF Done:  E(RB3LYP) =  -692.437727433     A.U. after   11 cycles
 SCF Done:  E(RB3LYP) =  -692.437888460     A.U. after    8 cycles
 SCF Done:  E(RB3LYP) =  -692.437888397     A.U. after    8 cycles
 SCF Done:  E(RB3LYP) =  -692.437888153     A.U. after    7 cycles
 SCF Done:  E(RB3LYP) =  -692.437889276     A.U. after    9 cycles
 SCF Done:  E(RB3LYP) =  -692.437889318     A.U. after    7 cycles
 SCF Done:  E(RB3LYP) =  -692.437889329     A.U. after    6 cycles
 Optimization completed.
    -- Stationary point found.
 Normal termination of Gaussian 16 at Thu Dec 10 18:05:14 2020.

 --------------------------------------------------------------------
 #N Geom=AllCheck Guess=TCheck SCRF=Check GenChk RB3LYP/6-31G(d) Freq
 --------------------------------------------------------------------

 Structure from the checkpoint file:  "JID_5994.chk"
 ------------------------------
 CID_65053564_JID_5994_neutraal
 ------------------------------
 Charge =  0 Multiplicity = 1

 SCF Done:  E(RB3LYP) =  -692.437889329     A.U. after    1 cycles

  Exact polarizability: 157.171   5.419 125.065   1.347   2.210 116.471
 Approx polarizability: 193.747   9.645 185.372   7.731  10.603 177.546

                      1                      2                      3
                      A                      A                      A
 Frequencies --     33.7292                50.0201                63.0126
 Red. masses --      3.2674                 3.4092                 4.6387
 Frc consts  --      0.0022                 0.0050                 0.0109
 IR Inten    --      0.6640                 0.8376                 1.8825

                      4                      5                      6
                      A                      A                      A
 Frequencies --     73.8342               123.2078               131.8763
 Red. masses --      3.5809                 4.9546                 3.8244
 Frc consts  --      0.0115                 0.0443                 0.0392
 IR Inten    --      3.9026                 6.8169                 1.7822

                      7                      8                      9
                      A                      A                      A
 Frequencies --    173.1169               215.6162               224.7516
 Red. masses --      2.6508                 2.3853                 1.5895
 Frc consts  --      0.0468                 0.0653                 0.0473
 IR Inten    --      7.7396                 3.5784                 7.2456

                     10                     11                     12
                      A                      A                      A
 Frequencies --    233.8135               260.5362               277.2638
 Red. masses --      1.5418                 1.7124                 1.3119
 Frc consts  --      0.0497                 0.0685                 0.0594
 IR Inten    --     13.5377                 4.8550                 5.2722

                     13                     14                     15
                      A                      A                      A
 Frequencies --    295.6224               306.0324               347.0722
 Red. masses --      1.3240                 2.0669                 3.0099
 Frc consts  --      0.0682                 0.1141                 0.2136
 IR Inten    --      2.0097                10.2189                 1.7285

                     16                     17                     18
                      A                      A                      A
 Frequencies --    353.6535               382.9874               396.7711
 Red. masses --      2.5641                 3.2869                 1.8214
 Frc consts  --      0.1889                 0.2841                 0.1689
 IR Inten    --      7.2605                 5.2369                 0.9965

                     19                     20                     21
                      A                      A                      A
 Frequencies --    401.2007               415.4527               448.6323
 Red. masses --      2.8883                 2.4449                 2.7665
 Frc consts  --      0.2739                 0.2486                 0.3281
 IR Inten    --      3.1450                 2.1751                 1.4196

                     22                     23                     24
                      A                      A                      A
 Frequencies --    483.1812               507.2587               554.7929
 Red. masses --      2.3721                 2.8782                 2.1746
 Frc consts  --      0.3263                 0.4364                 0.3944
 IR Inten    --      5.6556                 3.7850                10.8054

                     25                     26                     27
                      A                      A                      A
 Frequencies --    559.0678               582.9783               703.6499
 Red. masses --      3.4477                 3.5243                 3.7391
 Frc consts  --      0.6349                 0.7057                 1.0908
 IR Inten    --      0.4721                31.5665                 3.0845

                     28                     29                     30
                      A                      A                      A
 Frequencies --    724.3118               773.3627               824.4728
 Red. masses --      3.1961                 4.7896                 1.5017
 Frc consts  --      0.9879                 1.6878                 0.6015
 IR Inten    --      2.3551                26.2563                 1.5714

                     31                     32                     33
                      A                      A                      A
 Frequencies --    851.4907               855.9361               867.1635
 Red. masses --      2.9952                 1.3500                 2.0473
 Frc consts  --      1.2795                 0.5827                 0.9071
 IR Inten    --      1.2483                57.6836                52.1159

                     34                     35                     36
                      A                      A                      A
 Frequencies --    871.5310               917.8925               920.1576
 Red. masses --      1.4117                 2.3907                 2.0764
 Frc consts  --      0.6318                 1.1867                 1.0358
 IR Inten    --      9.5666                 7.8181                23.2315

                     37                     38                     39
                      A                      A                      A
 Frequencies --    946.8303               969.8876               979.9315
 Red. masses --      1.5111                 2.5655                 1.3883
 Frc consts  --      0.7982                 1.4219                 0.7855
 IR Inten    --      4.4750                 9.2619                 6.0055

                     40                     41                     42
                      A                      A                      A
 Frequencies --   1015.6639              1024.4315              1033.0510
 Red. masses --      1.4884                 1.9230                 1.3904
 Frc consts  --      0.9046                 1.1890                 0.8743
 IR Inten    --      6.9675                43.0951                14.6218

                     43                     44                     45
                      A                      A                      A
 Frequencies --   1050.4436              1079.0977              1088.9722
 Red. masses --      2.2395                 1.9576                 1.6529
 Frc consts  --      1.4559                 1.3431                 1.1549
 IR Inten    --     11.5024                16.3078                 1.1613

                     46                     47                     48
                      A                      A                      A
 Frequencies --   1099.1897              1123.7942              1151.7644
 Red. masses --      2.7800                 5.6886                 1.5145
 Frc consts  --      1.9790                 4.2329                 1.1837
 IR Inten    --     13.2410                99.8248                14.4149

                     49                     50                     51
                      A                      A                      A
 Frequencies --   1165.8620              1179.4346              1196.0605
 Red. masses --      1.9536                 2.0273                 1.2842
 Frc consts  --      1.5645                 1.6615                 1.0824
 IR Inten    --      3.6988                 7.3129                 1.0670

                     52                     53                     54
                      A                      A                      A
 Frequencies --   1206.4780              1257.6499              1274.3848
 Red. masses --      2.3162                 1.9495                 1.6845
 Frc consts  --      1.9864                 1.8167                 1.6118
 IR Inten    --     38.0248                56.6639                24.7342

                     55                     56                     57
                      A                      A                      A
 Frequencies --   1288.0230              1298.8157              1312.1182
 Red. masses --      1.8365                 1.3122                 1.6958
 Frc consts  --      1.7951                 1.3042                 1.7202
 IR Inten    --      7.0917                16.2150                72.6448

                     58                     59                     60
                      A                      A                      A
 Frequencies --   1320.2914              1329.7854              1360.6098
 Red. masses --      1.6384                 1.2114                 1.2738
 Frc consts  --      1.6827                 1.2622                 1.3894
 IR Inten    --     10.4792                15.0404                14.2102

                     61                     62                     63
                      A                      A                      A
 Frequencies --   1373.6220              1394.6892              1398.8500
 Red. masses --      1.2924                 1.3280                 1.3568
 Frc consts  --      1.4367                 1.5219                 1.5642
 IR Inten    --      1.0136                 2.8058                 2.6520

                     64                     65                     66
                      A                      A                      A
 Frequencies --   1403.2342              1406.4979              1423.0945
 Red. masses --      1.4466                 1.4877                 1.2979
 Frc consts  --      1.6783                 1.7340                 1.5487
 IR Inten    --      3.5084                 4.2842                10.2683

                     67                     68                     69
                      A                      A                      A
 Frequencies --   1428.4787              1435.8793              1465.4128
 Red. masses --      1.3455                 1.2910                 1.3425
 Frc consts  --      1.6176                 1.5683                 1.6986
 IR Inten    --      3.9147                 6.5512                10.0565

                     70                     71                     72
                      A                      A                      A
 Frequencies --   1492.4354              1506.2818              1510.0269
 Red. masses --      2.6267                 1.1016                 1.0588
 Frc consts  --      3.4470                 1.4726                 1.4225
 IR Inten    --    131.0171                 4.9655                 0.8903

                     73                     74                     75
                      A                      A                      A
 Frequencies --   1512.5040              1514.6739              1517.6042
 Red. masses --      1.0816                 1.1139                 1.0910
 Frc consts  --      1.4578                 1.5056                 1.4805
 IR Inten    --      3.3230                 3.4757                 3.1331

                     76                     77                     78
                      A                      A                      A
 Frequencies --   1523.5552              1532.9097              1534.2188
 Red. masses --      1.0836                 1.0882                 1.0736
 Frc consts  --      1.4819                 1.5066                 1.4889
 IR Inten    --     13.6349                 4.1918                 3.4983

                     79                     80                     81
                      A                      A                      A
 Frequencies --   1536.7085              1545.4260              1564.5026
 Red. masses --      1.0862                 1.0600                 1.0709
 Frc consts  --      1.5112                 1.4916                 1.5443
 IR Inten    --      1.0281                 9.9170                15.2196

                     82                     83                     84
                      A                      A                      A
 Frequencies --   1697.0280              1736.3160              2964.7001
 Red. masses --      1.0884                 9.7050                 1.0738
 Frc consts  --      1.8468                17.2387                 5.5609
 IR Inten    --     34.3569               289.3562                70.3350

                     85                     86                     87
                      A                      A                      A
 Frequencies --   3001.2183              3008.4090              3025.1343
 Red. masses --      1.0739                 1.0736                 1.0680
 Frc consts  --      5.6989                 5.7248                 5.7583
 IR Inten    --     30.6988                60.9565                39.8366

                     88                     89                     90
                      A                      A                      A
 Frequencies --   3045.7303              3054.1440              3056.2763
 Red. masses --      1.0609                 1.0592                 1.0372
 Frc consts  --      5.7986                 5.8213                 5.7084
 IR Inten    --     24.5371                28.4420                 9.2033

                     91                     92                     93
                      A                      A                      A
 Frequencies --   3063.4091              3073.6040              3080.8562
 Red. masses --      1.0379                 1.0675                 1.0936
 Frc consts  --      5.7386                 5.9417                 6.1156
 IR Inten    --     25.5322                31.7462                53.4077

                     94                     95                     96
                      A                      A                      A
 Frequencies --   3089.6039              3099.4243              3102.2902
 Red. masses --      1.1045                 1.1037                 1.0892
 Frc consts  --      6.2121                 6.2471                 6.1760
 IR Inten    --     42.8222                81.6105                 3.1574

                     97                     98                     99
                      A                      A                      A
 Frequencies --   3124.5824              3131.2414              3136.2862
 Red. masses --      1.1007                 1.1005                 1.1024
 Frc consts  --      6.3315                 6.3574                 6.3890
 IR Inten    --      1.9387                50.9926                24.1351

                    100                    101                    102
                      A                      A                      A
 Frequencies --   3152.0479              3153.0019              3165.6212
 Red. masses --      1.1017                 1.0982                 1.0904
 Frc consts  --      6.4489                 6.4326                 6.4378
 IR Inten    --      6.7053                16.5969                 3.7328

                    103                    104                    105
                      A                      A                      A
 Frequencies --   3187.9467              3480.6270              3563.5433
 Red. masses --      1.0896                 1.0497                 1.0926
 Frc consts  --      6.5243                 7.4926                 8.1750
 IR Inten    --      4.6022                 1.2348                 0.0462

 - Thermochemistry -
 -------------------
 Temperature   298.150 Kelvin.  Pressure   1.00000 Atm.
 Atom     1 has atomic number  6 and mass  12.00000

 Molecular mass:   214.16813 amu.
 Principal axes and moments of inertia in atomic units:
                           1         2         3
     Eigenvalues --  1690.874734787.984535345.14968
           X            0.99999   0.00154   0.00303
           Y           -0.00149   0.99986  -0.01651
           Z           -0.00306   0.01651   0.99986
 This molecule is an asymmetric top.
 Rotational symmetry number  1.
 Warning -- assumption of classical behavior for rotation
           may cause significant error
 Rotational temperatures (Kelvin)      0.05122     0.01809     0.01620
 Rotational constants (GHZ):           1.06734     0.37693     0.33764
 Zero-point vibrational energy     880282.1 (Joules/Mol)
                                  210.39246 (Kcal/Mol)
 Warning -- explicit consideration of  26 degrees of freedom as
           vibrations may cause significant error
 Vibrational temperatures:     48.53    71.97    90.66   106.23   177.27
          (Kelvin)            189.74   249.08   310.22   323.37   336.41
                              374.85   398.92   425.33   440.31   499.36
                              508.83   551.03   570.87   577.24   597.74
                              645.48   695.19   729.83   798.22   804.37
                              838.78  1012.40  1042.12  1112.70  1186.23
                             1225.11  1231.50  1247.65  1253.94  1320.64
                             1323.90  1362.28  1395.45  1409.90  1461.31
                             1473.93  1486.33  1511.35  1552.58  1566.79
                             1581.49  1616.89  1657.13  1677.42  1696.94
                             1720.86  1735.85  1809.48  1833.56  1853.18
                             1868.71  1887.85  1899.60  1913.26  1957.61
                             1976.34  2006.65  2012.63  2018.94  2023.64
                             2047.52  2055.26  2065.91  2108.40  2147.28
                             2167.20  2172.59  2176.16  2179.28  2183.49
                             2192.06  2205.52  2207.40  2210.98  2223.52
                             2250.97  2441.64  2498.17  4265.54  4318.08
                             4328.43  4352.49  4382.13  4394.23  4397.30
                             4407.56  4422.23  4432.66  4445.25  4459.38
                             4463.50  4495.58  4505.16  4512.42  4535.09
                             4536.47  4554.62  4586.74  5007.85  5127.14

 Zero-point correction=                           0.335282 (Hartree/Particle)
 Thermal correction to Energy=                    0.351317
 Thermal correction to Enthalpy=                  0.352261
 Thermal correction to Gibbs Free Energy=         0.292138
 Sum of electronic and zero-point Energies=           -692.102608
 Sum of electronic and thermal Energies=              -692.086572
 Sum of electronic and thermal Enthalpies=            -692.085628
 Sum of electronic and thermal Free Energies=         -692.145752

                     E (Thermal)             CV                S
                      KCal/Mol        Cal/Mol-Kelvin    Cal/Mol-Kelvin
 Total                  220.455             61.952            126.541
 Electronic               0.000              0.000              0.000
 Translational            0.889              2.981             41.988
 Rotational               0.889              2.981             32.137
 Vibrational            218.677             55.990             52.416
 Vibration     1          0.594              1.983              5.597
 Vibration     2          0.595              1.978              4.817
 Vibration     3          0.597              1.972              4.361
 Vibration     4          0.599              1.966              4.048
 Vibration     5          0.610              1.930              3.049
 Vibration     6          0.612              1.921              2.918
 Vibration     7          0.627              1.876              2.401
 Vibration     8          0.645              1.817              1.996
 Vibration     9          0.649              1.803              1.920
 Vibration    10          0.654              1.789              1.849
 Vibration    11          0.669              1.745              1.658
 Vibration    12          0.678              1.716              1.550
 Vibration    13          0.690              1.682              1.442
 Vibration    14          0.696              1.662              1.384
 Vibration    15          0.725              1.581              1.179
 Vibration    16          0.730              1.568              1.150
 Vibration    17          0.752              1.506              1.027
 Vibration    18          0.763              1.477              0.975
 Vibration    19          0.767              1.468              0.958
 Vibration    20          0.779              1.437              0.908
 Vibration    21          0.808              1.364              0.800
 Vibration    22          0.839              1.287              0.702
 Vibration    23          0.862              1.234              0.640
 Vibration    24          0.910              1.129              0.534
 Vibration    25          0.915              1.120              0.526
 Vibration    26          0.940              1.068              0.480

 Optimization completed.
    -- Stationary point found.
 Normal termination of Gaussian 16 at Thu Dec 10 18:17:45 2020.

 ----------------------------------------------------------------------
 # B3LYP/6-311++G(d,p) empiricaldispersion=gd3bj scf=xqc pop=npa geom=c
 heck
 ----------------------------------------------------------------------

 --------------------------------------
 CID_65053564_JID_5994_Energie_neutraal
 --------------------------------------
 Structure from the checkpoint file:  "JID_5994.chk"
 Charge =  0 Multiplicity = 1

 SCF Done:  E(RB3LYP) =  -692.642579566     A.U. after   14 cycles
 Normal termination of Gaussian 16 at Thu Dec 10 18:22:59 2020.

 ----------------------------------------------------------------------
 # B3LYP/6-311++G(d,p) empiricaldispersion=gd3bj scf=xqc pop=npa geom=c
 heck
 ----------------------------------------------------------------------

 ------------------------------------
 CID_65053564_JID_5994_Energie_kation
 ------------------------------------
 Structure from the checkpoint file:  "JID_5994.chk"
 Charge =  1 Multiplicity = 2

 SCF Done:  E(UB3LYP) =  -692.341246878     A.U. after   30 cycles
 Normal termination of Gaussian 16 at Thu Dec 10 18:37:34 2020.
 Gaussian 16:  ES64L-G16RevA.03 25-Dec-2016

 ----------------------------------------------------------------------
 # B3LYP/6-311++G(d,p) empiricaldispersion=gd3bj scf=xqc pop=npa geom=c
 heck
 ----------------------------------------------------------------------

 -----------------------------------
 CID_65053564_JID_5994_Energie_anion
 -----------------------------------
 Structure from the checkpoint file:  "JID_5994.chk"
 Charge = -1 Multiplicity = 2

                         Standard orientation:
 ---------------------------------------------------------------------
 Center     Atomic      Atomic             Coordinates (Angstroms)
 Number     Number       Type             X           Y           Z
 ---------------------------------------------------------------------
      1          6           0        2.795291   -1.998163   -0.022498
      2          6           0        1.983293   -0.742790    0.306290
      3          6           0        0.970570   -1.044173    1.421772
      4          6           0        2.896263    0.409084    0.769405
      5          7           0        3.861443    0.814518   -0.254497
      6          8           0        1.289756   -0.462530   -0.931718
      7          6           0        0.879414    0.870427   -1.193502
      8          6           0       -0.262087    1.363261   -0.295773
      9          8           0       -0.055240    2.261210    0.523770
     10          7           0       -1.482060    0.761967   -0.433080
     11          6           0       -2.600137    1.213174    0.394411
     12          6           0       -3.207028    0.046603    1.178318
     13          6           0       -3.612429   -1.088001    0.229866
     14          6           0       -2.418455   -1.516593   -0.630699
     15          6           0       -1.790522   -0.323442   -1.363070
     16          1           0        3.366589   -2.336360    0.849073
     17          1           0        3.480980   -1.803925   -0.852505
     18          1           0        2.122952   -2.805130   -0.330543
     19          1           0        1.484815   -1.394065    2.323976
     20          1           0        0.392926   -0.154851    1.686765
     21          1           0        0.281151   -1.828361    1.096212
     22          1           0        2.273650    1.276700    1.009688
     23          1           0        3.356966    0.080900    1.718012
     24          1           0        4.353195    1.649135    0.057723
     25          1           0        4.570228    0.094524   -0.376816
     26          1           0        1.707104    1.572363   -1.085863
     27          1           0        0.569561    0.874059   -2.244020
     28          1           0       -3.366391    1.655362   -0.261304
     29          1           0       -2.218515    1.994912    1.050432
     30          1           0       -4.071351    0.403842    1.751143
     31          1           0       -2.465615   -0.319843    1.900317
     32          1           0       -4.003895   -1.943508    0.792791
     33          1           0       -4.425872   -0.739293   -0.423426
     34          1           0       -1.651844   -1.975177    0.005118
     35          1           0       -2.719762   -2.268400   -1.370255
     36          1           0       -0.880254   -0.645448   -1.863227
     37          1           0       -2.493467    0.051419   -2.123802
 ---------------------------------------------------------------------

 SCF Done:  E(UB3LYP) =  -692.628641806     A.U. after   32 cycles

 The electronic state is 2-A.
 Alpha  occ. eigenvalues --  -19.02845 -18.99126 -14.24777 -14.19780 -10.17197
 Alpha  occ. eigenvalues --  -10.13488 -10.12219 -10.11078 -10.10522 -10.09331
 Alpha  occ. eigenvalues --  -10.07608 -10.07470 -10.07267 -10.06252 -10.06243
 Alpha  occ. eigenvalues --   -0.94883  -0.93083  -0.84608  -0.78822  -0.71028
 Alpha  occ. eigenvalues --   -0.69827  -0.67182  -0.62165  -0.59644  -0.57582
 Alpha  occ. eigenvalues --   -0.56891  -0.54049  -0.49721  -0.46952  -0.44797
 Alpha  occ. eigenvalues --   -0.41937  -0.39823  -0.39129  -0.38244  -0.37419
 Alpha  occ. eigenvalues --   -0.36362  -0.35829  -0.34393  -0.33908  -0.33401
 Alpha  occ. eigenvalues --   -0.32993  -0.31931  -0.30652  -0.29995  -0.29454
 Alpha  occ. eigenvalues --   -0.29260  -0.28376  -0.27270  -0.26347  -0.25630
 Alpha  occ. eigenvalues --   -0.25096  -0.24383  -0.23455  -0.23229  -0.21774
 Alpha  occ. eigenvalues --   -0.18557  -0.15121  -0.14902  -0.14565   0.04206
 Alpha virt. eigenvalues --    0.05451   0.07028   0.07244   0.07973   0.08492
 Alpha virt. eigenvalues --    0.08689   0.09412   0.09887   0.10237   0.10870
 Alpha virt. eigenvalues --    0.10988   0.11457   0.11676   0.12012   0.13148

  Beta  occ. eigenvalues --  -19.02839 -18.99119 -14.24779 -14.19742 -10.17190
  Beta  occ. eigenvalues --  -10.13488 -10.12213 -10.11064 -10.10511 -10.09313
  Beta  occ. eigenvalues --  -10.07594 -10.07452 -10.07239 -10.06240 -10.06215
  Beta  occ. eigenvalues --   -0.94873  -0.93073  -0.84602  -0.78761  -0.70995
  Beta  occ. eigenvalues --   -0.69801  -0.67155  -0.62139  -0.59602  -0.57542
  Beta  occ. eigenvalues --   -0.56834  -0.54010  -0.49674  -0.46919  -0.44756
  Beta  occ. eigenvalues --   -0.41909  -0.39793  -0.39096  -0.38207  -0.37391
  Beta  occ. eigenvalues --   -0.36333  -0.35792  -0.34361  -0.33872  -0.33359
  Beta  occ. eigenvalues --   -0.32965  -0.31901  -0.30634  -0.29971  -0.29416
  Beta  occ. eigenvalues --   -0.29232  -0.28346  -0.27242  -0.26317  -0.25605
  Beta  occ. eigenvalues --   -0.25074  -0.24352  -0.23413  -0.23192  -0.21756
  Beta  occ. eigenvalues --   -0.18546  -0.15106  -0.14864  -0.14555
  Beta virt. eigenvalues --    0.06358   0.06629   0.07512   0.07848   0.08584
  Beta virt. eigenvalues --    0.08937   0.08982   0.09608   0.10221   0.10518
  Beta virt. eigenvalues --    0.11193   0.11485   0.11687   0.11992   0.12125

 Mulliken charges and spin densities:
               1          2
     1  C    0.237813  -0.581850
     2  C   -0.961457   1.128475
     3  C    0.372962  -1.002941
     4  C    0.393630  -1.179921
     5  N   -0.353271   0.050202
     6  O    0.040152   0.019924
     7  C    0.136879  -0.630549
     8  C   -0.294141   0.195955
     9  O   -0.283678   0.015047
    10  N    0.102375   0.081097
    11  C    0.089813  -0.250041
    12  C   -0.105221  -0.063836
    13  C    0.685197  -1.227622
    14  C   -0.086124   0.021938
    15  C   -0.175273  -0.247324
    16  H   -0.221541   0.374448
    17  H    0.039365   0.104312
    18  H   -0.083432   0.234324
    19  H    0.135687   0.022130
    20  H    0.020859   0.205326
    21  H   -0.142897   0.287717
    22  H    0.143985   0.095225
    23  H   -0.241978   0.390796
    24  H   -0.041499   0.275111
    25  H   -0.084299   0.309666
    26  H    0.336029  -0.094554
    27  H    0.075140   0.099598
    28  H   -0.121565   0.292315
    29  H    0.187583   0.000101
    30  H   -0.219965   0.403342
    31  H    0.165070  -0.047708
    32  H   -0.700969   0.872557
    33  H   -0.045563   0.175131
    34  H    0.463759  -0.338813
    35  H   -0.432462   0.614248
    36  H    0.184802   0.005994
    37  H   -0.215762   0.390183
 Sum of Mulliken charges =  -1.00000   1.00000

 Dipole moment (field-independent basis, Debye):
    X=              0.2329    Y=              1.7299    Z=             -0.5936  Tot=              1.8437
 Quadrupole moment (field-independent basis, Debye-Ang):
   XX=           -190.8517   YY=           -138.7122   ZZ=           -127.2076
   XY=             -8.7139   XZ=             -2.8299   YZ=             -2.7759

 Summary of Natural Population Analysis:

                                       Natural Population
                Natural  -----------------------------------------------
    Atom  No    Charge         Core      Valence    Rydberg      Total
 -----------------------------------------------------------------------
      C    1   -0.29212      0.99960     2.28495    0.00757     3.29212
      C    2    0.13309      0.99952     1.85051    0.01687     2.86691
      C    3   -0.29885      0.99960     2.29232    0.00693     3.29885
      C    4   -0.11099      0.99955     2.09930    0.01214     3.11099
      N    5   -0.42485      0.99977     2.91401    0.01107     3.92485
      O    6   -0.30971      0.99987     3.29908    0.01076     4.30971
      C    7   -0.05139      0.99952     2.04037    0.01150     3.05139
      C    8    0.33080      0.99964     1.64764    0.02193     2.66920
      O    9   -0.33265      0.99988     3.32769    0.00508     4.33265
      N   10   -0.25412      0.99963     2.74350    0.01098     3.75412
      C   11   -0.08787      0.99960     2.07783    0.01043     3.08787
      C   12   -0.19456      0.99963     2.18668    0.00825     3.19456
      C   13   -0.19021      0.99963     2.18188    0.00871     3.19021
      C   14   -0.19427      0.99962     2.18573    0.00892     3.19427
      C   15   -0.08359      0.99960     2.07359    0.01040     3.08359
      H   16    0.10006      0.00000     0.39885    0.00108     0.39994
      H   17    0.10375      0.00000     0.39504    0.00121     0.39625
      H   18    0.10352      0.00000     0.39537    0.00110     0.39648
      H   19    0.10128      0.00000     0.39780    0.00092     0.39872
      H   20    0.10604      0.00000     0.39269    0.00127     0.39396
      H   21    0.10142      0.00000     0.39732    0.00126     0.39858
      H   22    0.10536      0.00000     0.39308    0.00156     0.39464
      H   23    0.08720      0.00000     0.41099    0.00181     0.41280
      H   24    0.17703      0.00000     0.32132    0.00165     0.32297
      H   25    0.17642      0.00000     0.32124    0.00234     0.32358
      H   26    0.10511      0.00000     0.39300    0.00189     0.39489
      H   27    0.09446      0.00000     0.40442    0.00111     0.40554
      H   28    0.09008      0.00000     0.40876    0.00116     0.40992
      H   29    0.11635      0.00000     0.38249    0.00116     0.38365
      H   30    0.10080      0.00000     0.39819    0.00101     0.39920
      H   31    0.09643      0.00000     0.40202    0.00154     0.40357
      H   32    0.10213      0.00000     0.39623    0.00164     0.39787
      H   33    0.09464      0.00000     0.40327    0.00209     0.40536
      H   34    0.09666      0.00000     0.40146    0.00188     0.40334
      H   35    0.10235      0.00000     0.39623    0.00141     0.39765
      H   36    0.11116      0.00000     0.38718    0.00166     0.38884
      H   37    0.08902      0.00000     0.40967    0.00131     0.41098
 =======================================================================
   * Total *    0.00000     14.99465    43.81172    0.19364    59.00000

 Normal termination of Gaussian 16 at Thu Dec 10 18:52:40 2020.
