 Gaussian 16, Revision A.03,

 -----------------------------------------------------------
 # opt freq B3LYP/6-31G(d) empiricaldispersion=gd3bj scf=xqc
 -----------------------------------------------------------

 -------------------------------
 CID_105748731_JID_5290_neutraal
 -------------------------------
 Symbolic Z-matrix:
 Charge =  0 Multiplicity = 1

 SCF Done:  E(RB3LYP) =  -668.930206881     A.U. after   14 cycles
 SCF Done:  E(RB3LYP) =  -668.934628463     A.U. after   12 cycles
 SCF Done:  E(RB3LYP) =  -668.935232133     A.U. after   11 cycles
 SCF Done:  E(RB3LYP) =  -668.935488439     A.U. after   11 cycles
 SCF Done:  E(RB3LYP) =  -668.935574633     A.U. after   10 cycles
 SCF Done:  E(RB3LYP) =  -668.935682116     A.U. after   11 cycles
 SCF Done:  E(RB3LYP) =  -668.935709914     A.U. after   10 cycles
 SCF Done:  E(RB3LYP) =  -668.935715114     A.U. after    8 cycles
 SCF Done:  E(RB3LYP) =  -668.935725033     A.U. after   10 cycles
 SCF Done:  E(RB3LYP) =  -668.935735960     A.U. after   10 cycles
 SCF Done:  E(RB3LYP) =  -668.935744109     A.U. after   10 cycles
 SCF Done:  E(RB3LYP) =  -668.935745492     A.U. after    8 cycles
 SCF Done:  E(RB3LYP) =  -668.935745677     A.U. after    7 cycles
 Optimization completed.
    -- Stationary point found.
 Normal termination of Gaussian 16 at Thu Dec 10 15:26:20 2020.

 --------------------------------------------------------------------
 #N Geom=AllCheck Guess=TCheck SCRF=Check GenChk RB3LYP/6-31G(d) Freq
 --------------------------------------------------------------------

 Structure from the checkpoint file:  "JID_5290.chk"
 -------------------------------
 CID_105748731_JID_5290_neutraal
 -------------------------------
 Charge =  0 Multiplicity = 1

 SCF Done:  E(RB3LYP) =  -668.935745677     A.U. after    1 cycles

  Exact polarizability: 189.286  15.951 102.876   1.902 -12.993 120.263
 Approx polarizability: 257.871  24.913 151.353   2.734 -33.921 203.645

                      1                      2                      3
                      A                      A                      A
 Frequencies --     26.7925                63.4233                86.1640
 Red. masses --      4.4643                 3.6269                 4.4082
 Frc consts  --      0.0019                 0.0086                 0.0193
 IR Inten    --      0.6654                 1.3787                 1.0639

                      4                      5                      6
                      A                      A                      A
 Frequencies --    121.5744               154.9449               185.0148
 Red. masses --      4.1669                 3.4145                 2.6564
 Frc consts  --      0.0363                 0.0483                 0.0536
 IR Inten    --      4.4238                 2.4898                 4.3813

                      7                      8                      9
                      A                      A                      A
 Frequencies --    219.5416               245.0516               290.2410
 Red. masses --      1.2346                 3.2006                 2.5649
 Frc consts  --      0.0351                 0.1132                 0.1273
 IR Inten    --      0.2935                 3.8567                 2.2793

                     10                     11                     12
                      A                      A                      A
 Frequencies --    319.0384               342.3538               350.5959
 Red. masses --      1.1142                 2.4473                 2.4849
 Frc consts  --      0.0668                 0.1690                 0.1800
 IR Inten    --     45.0570                30.7232                 3.0418

                     13                     14                     15
                      A                      A                      A
 Frequencies --    368.9909               391.9436               422.5282
 Red. masses --      2.4723                 2.0143                 3.1368
 Frc consts  --      0.1983                 0.1823                 0.3299
 IR Inten    --      1.4715                22.5462                16.1948

                     16                     17                     18
                      A                      A                      A
 Frequencies --    429.3784               450.5099               474.5587
 Red. masses --      4.0683                 2.8294                 2.3211
 Frc consts  --      0.4419                 0.3383                 0.3080
 IR Inten    --      8.3183                66.5307                66.6171

                     19                     20                     21
                      A                      A                      A
 Frequencies --    518.7434               532.4811               570.8962
 Red. masses --      2.5014                 2.7584                 3.0700
 Frc consts  --      0.3966                 0.4608                 0.5895
 IR Inten    --     30.9310                 7.7619                10.1301

                     22                     23                     24
                      A                      A                      A
 Frequencies --    606.5801               661.4282               667.8958
 Red. masses --      4.2545                 6.9735                 1.4807
 Frc consts  --      0.9223                 1.7975                 0.3892
 IR Inten    --     66.2772                 2.1102               291.6194

                     25                     26                     27
                      A                      A                      A
 Frequencies --    750.8098               763.2284               766.9392
 Red. masses --      2.3009                 4.4057                 3.0685
 Frc consts  --      0.7642                 1.5121                 1.0634
 IR Inten    --      8.7851                28.6751                 3.6497

                     28                     29                     30
                      A                      A                      A
 Frequencies --    819.2927               832.6275               856.2285
 Red. masses --      2.2534                 2.0549                 2.6917
 Frc consts  --      0.8912                 0.8393                 1.1627
 IR Inten    --      7.1935                53.6535                 8.8010

                     31                     32                     33
                      A                      A                      A
 Frequencies --    872.3597               880.0755               893.2788
 Red. masses --      2.9707                 1.8093                 4.1938
 Frc consts  --      1.3320                 0.8257                 1.9717
 IR Inten    --      1.8800                 0.4671                 0.0883

                     34                     35                     36
                      A                      A                      A
 Frequencies --    917.4840               938.8477               964.3447
 Red. masses --      1.4223                 1.3305                 2.1280
 Frc consts  --      0.7054                 0.6910                 1.1660
 IR Inten    --      7.2288                 1.2622                 8.0914

                     37                     38                     39
                      A                      A                      A
 Frequencies --    984.8292              1023.8470              1044.6098
 Red. masses --      1.9673                 2.6991                 2.3818
 Frc consts  --      1.1242                 1.6670                 1.5313
 IR Inten    --      5.5867                 6.3401                 2.8676

                     40                     41                     42
                      A                      A                      A
 Frequencies --   1051.5217              1092.1973              1100.2309
 Red. masses --      1.7483                 1.5727                 2.8671
 Frc consts  --      1.1390                 1.1053                 2.0449
 IR Inten    --      9.5902                18.2280                44.1764

                     43                     44                     45
                      A                      A                      A
 Frequencies --   1107.5741              1127.8425              1173.9639
 Red. masses --      1.5341                 1.6448                 2.4422
 Frc consts  --      1.1088                 1.2327                 1.9831
 IR Inten    --      8.6572                13.9876                31.2105

                     46                     47                     48
                      A                      A                      A
 Frequencies --   1181.4387              1186.6731              1247.1109
 Red. masses --      1.4635                 1.8605                 1.4860
 Frc consts  --      1.2036                 1.5436                 1.3617
 IR Inten    --      6.6956                25.9617                42.8713

                     49                     50                     51
                      A                      A                      A
 Frequencies --   1276.4416              1295.8319              1306.3402
 Red. masses --      1.5873                 1.7805                 1.2731
 Frc consts  --      1.5237                 1.7615                 1.2800
 IR Inten    --     28.7554                37.1558                 3.5906

                     52                     53                     54
                      A                      A                      A
 Frequencies --   1337.0700              1343.9181              1365.2458
 Red. masses --      2.2438                 1.4674                 2.3503
 Frc consts  --      2.3635                 1.5615                 2.5810
 IR Inten    --    140.0668                42.9099                 7.6384

                     55                     56                     57
                      A                      A                      A
 Frequencies --   1367.0196              1377.9068              1389.2099
 Red. masses --      1.9734                 1.6272                 1.3133
 Frc consts  --      2.1728                 1.8202                 1.4933
 IR Inten    --      3.6378                37.1950                 9.5123

                     58                     59                     60
                      A                      A                      A
 Frequencies --   1399.1950              1409.5658              1416.8112
 Red. masses --      1.2490                 1.4145                 1.3586
 Frc consts  --      1.4407                 1.6559                 1.6068
 IR Inten    --      5.6898                14.1754                18.6983

                     61                     62                     63
                      A                      A                      A
 Frequencies --   1434.6802              1439.2902              1446.6169
 Red. masses --      1.3090                 1.5674                 2.0614
 Frc consts  --      1.5875                 1.9131                 2.5417
 IR Inten    --     18.5021                 5.5737                 7.9322

                     64                     65                     66
                      A                      A                      A
 Frequencies --   1499.1882              1508.6458              1518.8658
 Red. masses --      1.1107                 1.1119                 1.0762
 Frc consts  --      1.4709                 1.4910                 1.4628
 IR Inten    --     11.3014                20.3682                 4.4145

                     67                     68                     69
                      A                      A                      A
 Frequencies --   1526.8447              1534.8291              1544.4055
 Red. masses --      1.0819                 1.5484                 1.0946
 Frc consts  --      1.4860                 2.1491                 1.5382
 IR Inten    --     28.2852                10.5276                 1.8710

                     70                     71                     72
                      A                      A                      A
 Frequencies --   1548.5503              1633.9299              1664.4653
 Red. masses --      2.5269                 4.8477                 1.4769
 Frc consts  --      3.5702                 7.6253                 2.4108
 IR Inten    --    342.6341                34.2348                62.2024

                     73                     74                     75
                      A                      A                      A
 Frequencies --   1684.0416              2964.5966              3014.9267
 Red. masses --      3.0507                 1.0833                 1.0698
 Frc consts  --      5.0975                 5.6097                 5.7295
 IR Inten    --     59.9455                48.1933                38.8961

                     76                     77                     78
                      A                      A                      A
 Frequencies --   3041.7320              3049.9431              3058.6000
 Red. masses --      1.0654                 1.0708                 1.0458
 Frc consts  --      5.8078                 5.8688                 5.7642
 IR Inten    --     38.5516                20.1713                24.0477

                     79                     80                     81
                      A                      A                      A
 Frequencies --   3067.9951              3094.4722              3105.4306
 Red. masses --      1.0741                 1.0963                 1.0966
 Frc consts  --      5.9569                 6.1852                 6.2308
 IR Inten    --     45.8049                28.1055                18.4075

                     82                     83                     84
                      A                      A                      A
 Frequencies --   3106.5159              3122.7886              3140.0310
 Red. masses --      1.0989                 1.1016                 1.0893
 Frc consts  --      6.2479                 6.3293                 6.3280
 IR Inten    --     73.7116                33.5494                37.7964

                     85                     86                     87
                      A                      A                      A
 Frequencies --   3162.1676              3190.6590              3225.4298
 Red. masses --      1.0994                 1.0896                 1.0918
 Frc consts  --      6.4767                 6.5352                 6.6924
 IR Inten    --     19.0963                19.9112                12.4881

                     88                     89                     90
                      A                      A                      A
 Frequencies --   3545.1783              3562.4807              3651.4438
 Red. masses --      1.0475                 1.0753                 1.0982
 Frc consts  --      7.7566                 8.0404                 8.6270
 IR Inten    --     17.2063                 6.8142                13.3417

 - Thermochemistry -
 -------------------
 Temperature   298.150 Kelvin.  Pressure   1.00000 Atm.
 Atom     1 has atomic number  6 and mass  12.00000

 Molecular mass:   207.13716 amu.
 Principal axes and moments of inertia in atomic units:
                           1         2         3
     Eigenvalues --  1151.799336404.297186500.68117
           X            0.99997   0.00678  -0.00399
           Y           -0.00677   0.99997   0.00229
           Z            0.00401  -0.00227   0.99999
 This molecule is an asymmetric top.
 Rotational symmetry number  1.
 Warning -- assumption of classical behavior for rotation
           may cause significant error
 Rotational temperatures (Kelvin)      0.07520     0.01352     0.01332
 Rotational constants (GHZ):           1.56689     0.28180     0.27762
 Zero-point vibrational energy     732421.6 (Joules/Mol)
                                  175.05296 (Kcal/Mol)
 Warning -- explicit consideration of  22 degrees of freedom as
           vibrations may cause significant error
 Vibrational temperatures:     38.55    91.25   123.97   174.92   222.93
          (Kelvin)            266.20   315.87   352.57   417.59   459.03
                              492.57   504.43   530.90   563.92   607.92
                              617.78   648.18   682.78   746.36   766.12
                              821.39   872.73   951.65   960.95  1080.25
                             1098.12  1103.45  1178.78  1197.97  1231.92
                             1255.13  1266.23  1285.23  1320.05  1350.79
                             1387.48  1416.95  1473.09  1502.96  1512.91
                             1571.43  1582.99  1593.55  1622.71  1689.07
                             1699.83  1707.36  1794.31  1836.51  1864.41
                             1879.53  1923.75  1933.60  1964.28  1966.84
                             1982.50  1998.76  2013.13  2028.05  2038.48
                             2064.18  2070.82  2081.36  2157.00  2170.60
                             2185.31  2196.79  2208.28  2222.06  2228.02
                             2350.86  2394.79  2422.96  4265.39  4337.81
                             4376.37  4388.19  4400.64  4414.16  4452.26
                             4468.02  4469.58  4493.00  4517.80  4549.65
                             4590.65  4640.67  5100.72  5125.62  5253.61

 Zero-point correction=                           0.278965 (Hartree/Particle)
 Thermal correction to Energy=                    0.292739
 Thermal correction to Enthalpy=                  0.293683
 Thermal correction to Gibbs Free Energy=         0.238320
 Sum of electronic and zero-point Energies=           -668.656781
 Sum of electronic and thermal Energies=              -668.643007
 Sum of electronic and thermal Enthalpies=            -668.642063
 Sum of electronic and thermal Free Energies=         -668.697425

                     E (Thermal)             CV                S
                      KCal/Mol        Cal/Mol-Kelvin    Cal/Mol-Kelvin
 Total                  183.696             55.006            116.521
 Electronic               0.000              0.000              0.000
 Translational            0.889              2.981             41.889
 Rotational               0.889              2.981             32.239
 Vibrational            181.919             49.044             42.393
 Vibration     1          0.593              1.984              6.054
 Vibration     2          0.597              1.972              4.348
 Vibration     3          0.601              1.959              3.745
 Vibration     4          0.609              1.931              3.075
 Vibration     5          0.620              1.897              2.611
 Vibration     6          0.631              1.860              2.277
 Vibration     7          0.647              1.811              1.963
 Vibration     8          0.660              1.771              1.766
 Vibration     9          0.686              1.692              1.473
 Vibration    10          0.705              1.637              1.315
 Vibration    11          0.721              1.591              1.201
 Vibration    12          0.727              1.574              1.164
 Vibration    13          0.741              1.536              1.084
 Vibration    14          0.759              1.487              0.993
 Vibration    15          0.785              1.421              0.883
 Vibration    16          0.791              1.406              0.861
 Vibration    17          0.809              1.360              0.794
 Vibration    18          0.831              1.306              0.725
 Vibration    19          0.874              1.208              0.613
 Vibration    20          0.887              1.178              0.582
 Vibration    21          0.927              1.094              0.503
 Vibration    22          0.965              1.018              0.438

                           ! Non-Optimized Parameters !
 Normal termination of Gaussian 16 at Thu Dec 10 15:37:22 2020.

 ----------------------------------------------------------------------
 # B3LYP/6-311++G(d,p) empiricaldispersion=gd3bj scf=xqc pop=npa geom=c
 heck
 ----------------------------------------------------------------------

 ---------------------------------------
 CID_105748731_JID_5290_Energie_neutraal
 ---------------------------------------
 Structure from the checkpoint file:  "JID_5290.chk"
 Charge =  0 Multiplicity = 1

 SCF Done:  E(RB3LYP) =  -669.127913108     A.U. after   15 cycles
 Normal termination of Gaussian 16 at Thu Dec 10 15:43:04 2020.

 ----------------------------------------------------------------------
 # B3LYP/6-311++G(d,p) empiricaldispersion=gd3bj scf=xqc pop=npa geom=c
 heck
 ----------------------------------------------------------------------

 -------------------------------------
 CID_105748731_JID_5290_Energie_kation
 -------------------------------------
 Structure from the checkpoint file:  "JID_5290.chk"
 Charge =  1 Multiplicity = 2

 SCF Done:  E(UB3LYP) =  -668.869149051     A.U. after   24 cycles
 Normal termination of Gaussian 16 at Thu Dec 10 15:55:35 2020.
 Gaussian 16:  ES64L-G16RevA.03 25-Dec-2016

 ----------------------------------------------------------------------
 # B3LYP/6-311++G(d,p) empiricaldispersion=gd3bj scf=xqc pop=npa geom=c
 heck
 ----------------------------------------------------------------------

 ------------------------------------
 CID_105748731_JID_5290_Energie_anion
 ------------------------------------
 Structure from the checkpoint file:  "JID_5290.chk"
 Charge = -1 Multiplicity = 2

                         Standard orientation:
 ---------------------------------------------------------------------
 Center     Atomic      Atomic             Coordinates (Angstroms)
 Number     Number       Type             X           Y           Z
 ---------------------------------------------------------------------
      1          6           0       -2.059183    1.752234    1.235838
      2          6           0       -2.721676    1.304219   -0.069792
      3          6           0       -1.745860    0.746676   -1.122206
      4          6           0       -1.288770   -0.702470   -0.848480
      5          6           0       -2.525978   -1.557216   -0.540451
      6          6           0       -3.389756   -0.912899    0.543837
      7          8           0       -3.803323    0.389737    0.162453
      8          7           0       -0.351809   -0.778945    0.269710
      9          6           0        1.003772   -0.463652    0.104587
     10          6           0        1.903060   -0.715190    1.152653
     11          7           0        3.205464   -0.437966    1.119575
     12          6           0        3.709720    0.125548    0.012538
     13          6           0        2.903586    0.421186   -1.096636
     14          6           0        1.546739    0.124301   -1.049165
     15          7           0        5.088160    0.349784    0.000552
     16          1           0       -1.504779    0.942389    1.713432
     17          1           0       -2.822244    2.127770    1.925406
     18          1           0       -1.346545    2.560029    1.033747
     19          1           0       -3.220579    2.175604   -0.508775
     20          1           0       -2.249632    0.751245   -2.097102
     21          1           0       -0.882280    1.414704   -1.201406
     22          1           0       -0.814956   -1.094412   -1.764436
     23          1           0       -2.227146   -2.572414   -0.244756
     24          1           0       -3.123174   -1.647215   -1.454686
     25          1           0       -2.852087   -0.891055    1.503793
     26          1           0       -4.310801   -1.484121    0.694212
     27          1           0       -0.488361   -1.597957    0.849951
     28          1           0        1.533927   -1.167851    2.074153
     29          1           0        3.336785    0.863587   -1.989210
     30          1           0        0.925319    0.341921   -1.910096
     31          1           0        5.480796    0.330126    0.934667
     32          1           0        5.385712    1.163228   -0.523723
 ---------------------------------------------------------------------

 SCF Done:  E(UB3LYP) =  -669.116363586     A.U. after   33 cycles
 SCF Done:  E(UB3LYP) =  -669.116363585     a.u. after    1 cycles

 The electronic state is 2-A.
 Alpha  occ. eigenvalues --  -19.02654 -14.22488 -14.21797 -14.20748 -10.13716
 Alpha  occ. eigenvalues --  -10.12765 -10.12092 -10.11716 -10.11484 -10.10422
 Alpha  occ. eigenvalues --  -10.08612 -10.07831 -10.07806 -10.07372 -10.06266
 Alpha  occ. eigenvalues --   -0.94061  -0.86695  -0.83974  -0.78748  -0.71058
 Alpha  occ. eigenvalues --   -0.69148  -0.68545  -0.63023  -0.61140  -0.55296
 Alpha  occ. eigenvalues --   -0.54974  -0.53173  -0.50818  -0.45361  -0.44253
 Alpha  occ. eigenvalues --   -0.43008  -0.41337  -0.40733  -0.38883  -0.37413
 Alpha  occ. eigenvalues --   -0.36063  -0.35390  -0.34470  -0.32999  -0.32317
 Alpha  occ. eigenvalues --   -0.31745  -0.31382  -0.30184  -0.29704  -0.29007
 Alpha  occ. eigenvalues --   -0.27859  -0.26808  -0.25703  -0.24493  -0.23523
 Alpha  occ. eigenvalues --   -0.20458  -0.19000  -0.17327  -0.16721  -0.16097
 Alpha  occ. eigenvalues --   -0.09534   0.04037
 Alpha virt. eigenvalues --    0.05535   0.06594   0.06709   0.07298   0.07850
 Alpha virt. eigenvalues --    0.08473   0.09453   0.09564   0.09873   0.10300
 Alpha virt. eigenvalues --    0.10615   0.11070   0.11975   0.12733   0.13114

  Beta  occ. eigenvalues --  -19.02652 -14.22476 -14.21761 -14.20744 -10.13711
  Beta  occ. eigenvalues --  -10.12760 -10.12075 -10.11708 -10.11485 -10.10412
  Beta  occ. eigenvalues --  -10.08599 -10.07802 -10.07787 -10.07355 -10.06254
  Beta  occ. eigenvalues --   -0.94052  -0.86676  -0.83951  -0.78707  -0.71032
  Beta  occ. eigenvalues --   -0.69123  -0.68514  -0.62986  -0.61108  -0.55253
  Beta  occ. eigenvalues --   -0.54939  -0.53133  -0.50784  -0.45322  -0.44218
  Beta  occ. eigenvalues --   -0.42950  -0.41291  -0.40689  -0.38853  -0.37377
  Beta  occ. eigenvalues --   -0.36029  -0.35360  -0.34432  -0.32970  -0.32293
  Beta  occ. eigenvalues --   -0.31721  -0.31345  -0.30160  -0.29673  -0.28983
  Beta  occ. eigenvalues --   -0.27830  -0.26777  -0.25677  -0.24460  -0.23494
  Beta  occ. eigenvalues --   -0.20438  -0.18983  -0.17307  -0.16707  -0.16075
  Beta  occ. eigenvalues --   -0.09506
  Beta virt. eigenvalues --    0.06201   0.06569   0.06878   0.07313   0.07702
  Beta virt. eigenvalues --    0.08377   0.09042   0.09773   0.09875   0.10101
  Beta virt. eigenvalues --    0.10753   0.10987   0.11230   0.12422   0.13098

 Mulliken charges and spin densities:
               1          2
     1  C    0.033781  -0.611004
     2  C   -1.148419   0.912321
     3  C    1.509952  -1.678013
     4  C   -0.394172   0.516590
     5  C    0.048472  -0.660746
     6  C    0.638996  -0.873693
     7  O   -0.112140   0.012615
     8  N    0.260916  -0.175573
     9  C    0.528109  -0.948297
    10  C   -1.552275   0.939958
    11  N   -0.128496  -0.017451
    12  C    1.191999  -1.753991
    13  C   -1.616996   2.037657
    14  C    1.830898  -1.696735
    15  N   -0.360474   0.080104
    16  H    0.210965  -0.031201
    17  H    0.032370   0.122019
    18  H    0.020722   0.108338
    19  H   -0.009471   0.227330
    20  H   -0.268511   0.442632
    21  H    0.149103  -0.016549
    22  H   -0.228463   0.432080
    23  H   -0.639136   0.803637
    24  H   -0.017604   0.193741
    25  H   -0.020492   0.136565
    26  H   -0.247184   0.459116
    27  H    0.476309  -0.211725
    28  H   -0.284573   0.457056
    29  H   -0.888562   1.089719
    30  H    0.042917   0.149311
    31  H    0.154775   0.096564
    32  H   -0.213315   0.457625
 Sum of Mulliken charges =  -1.00000   1.00000

 Dipole moment (field-independent basis, Debye):
    X=             -2.1445    Y=              0.6094    Z=              2.6478  Tot=              3.4614
 Quadrupole moment (field-independent basis, Debye-Ang):
   XX=           -185.9171   YY=           -130.6092   ZZ=           -128.7184
   XY=             -9.6263   XZ=              5.3625   YZ=              3.2027

 Summary of Natural Population Analysis:

                                       Natural Population
                Natural  -----------------------------------------------
    Atom  No    Charge         Core      Valence    Rydberg      Total
 -----------------------------------------------------------------------
      C    1   -0.30133      0.99964     2.29702    0.00467     3.30133
      C    2    0.06678      0.99955     1.91885    0.01481     2.93322
      C    3   -0.20630      0.99958     2.19675    0.00997     3.20630
      C    4   -0.01010      0.99958     1.99641    0.01411     3.01010
      C    5   -0.20465      0.99961     2.19538    0.00967     3.20465
      C    6   -0.01222      0.99957     1.99886    0.01379     3.01222
      O    7   -0.30606      0.99989     3.29663    0.00954     4.30606
      N    8   -0.32685      0.99967     2.81514    0.01204     3.82685
      C    9    0.05580      0.99948     1.93459    0.01013     2.94420
      C   10    0.02135      0.99955     1.96625    0.01285     2.97865
      N   11   -0.25264      0.99967     2.74233    0.01064     3.75264
      C   12    0.17887      0.99954     1.80589    0.01570     2.82113
      C   13   -0.12809      0.99952     2.11869    0.00988     3.12809
      C   14   -0.10458      0.99953     2.09604    0.00901     3.10458
      N   15   -0.40169      0.99972     2.89151    0.01047     3.90169
      H   16    0.10674      0.00000     0.39201    0.00125     0.39326
      H   17    0.09831      0.00000     0.40066    0.00103     0.40169
      H   18    0.10139      0.00000     0.39769    0.00093     0.39861
      H   19    0.08966      0.00000     0.40905    0.00129     0.41034
      H   20    0.10358      0.00000     0.39501    0.00141     0.39642
      H   21    0.10533      0.00000     0.39307    0.00160     0.39467
      H   22    0.09249      0.00000     0.40496    0.00255     0.40751
      H   23    0.10285      0.00000     0.39507    0.00208     0.39715
      H   24    0.10506      0.00000     0.39355    0.00139     0.39494
      H   25    0.07829      0.00000     0.42013    0.00158     0.42171
      H   26    0.09226      0.00000     0.40644    0.00129     0.40774
      H   27    0.18478      0.00000     0.31237    0.00285     0.31522
      H   28    0.08678      0.00000     0.41170    0.00153     0.41322
      H   29    0.10510      0.00000     0.39315    0.00174     0.39490
      H   30    0.10526      0.00000     0.39283    0.00191     0.39474
      H   31    0.18688      0.00000     0.31082    0.00231     0.31312
      H   32    0.18696      0.00000     0.30950    0.00354     0.31304
 =======================================================================
   * Total *   -0.00000     14.99411    40.80832    0.19757    56.00000

 Normal termination of Gaussian 16 at Thu Dec 10 16:13:06 2020.
