 Gaussian 16, Revision A.03,

 -----------------------------------------------------------
 # opt freq B3LYP/6-31G(d) empiricaldispersion=gd3bj scf=xqc
 -----------------------------------------------------------

 ------------------------------
 CID_79561940_JID_4246_neutraal
 ------------------------------
 Symbolic Z-matrix:
 Charge =  0 Multiplicity = 1

 SCF Done:  E(RB3LYP) =  -1385.61765961     A.U. after   16 cycles
 SCF Done:  E(RB3LYP) =  -1385.62332657     A.U. after   13 cycles
 SCF Done:  E(RB3LYP) =  -1385.62419060     A.U. after   12 cycles
 SCF Done:  E(RB3LYP) =  -1385.62371021     A.U. after   13 cycles
 SCF Done:  E(RB3LYP) =  -1385.62449685     A.U. after   12 cycles
 SCF Done:  E(RB3LYP) =  -1385.62458268     A.U. after   11 cycles
 SCF Done:  E(RB3LYP) =  -1385.62464010     A.U. after   12 cycles
 SCF Done:  E(RB3LYP) =  -1385.62465838     A.U. after   12 cycles
 SCF Done:  E(RB3LYP) =  -1385.62466327     A.U. after   10 cycles
 SCF Done:  E(RB3LYP) =  -1385.62466505     A.U. after    9 cycles
 SCF Done:  E(RB3LYP) =  -1385.62466558     A.U. after    8 cycles
 SCF Done:  E(RB3LYP) =  -1385.62466567     A.U. after    7 cycles
 SCF Done:  E(RB3LYP) =  -1385.62466569     A.U. after    7 cycles
 SCF Done:  E(RB3LYP) =  -1385.62466570     A.U. after    6 cycles
 SCF Done:  E(RB3LYP) =  -1385.62466570     A.U. after    6 cycles
 Optimization completed.
    -- Stationary point found.
 Normal termination of Gaussian 16 at Thu Dec 10 09:22:35 2020.

 --------------------------------------------------------------------
 #N Geom=AllCheck Guess=TCheck SCRF=Check GenChk RB3LYP/6-31G(d) Freq
 --------------------------------------------------------------------

 Structure from the checkpoint file:  "JID_4246.chk"
 ------------------------------
 CID_79561940_JID_4246_neutraal
 ------------------------------
 Charge =  0 Multiplicity = 1

 SCF Done:  E(RB3LYP) =  -1385.62466570     A.U. after    2 cycles

  Exact polarizability: 168.166   3.418 122.811  -2.313   5.945 100.050
 Approx polarizability: 239.355   8.667 223.259  -8.223  29.692 158.823

                      1                      2                      3
                      A                      A                      A
 Frequencies --     19.0418                39.6155                57.3384
 Red. masses --      4.5512                 9.9086                 5.2860
 Frc consts  --      0.0010                 0.0092                 0.0102
 IR Inten    --      1.8092                 1.2871                 1.1973

                      4                      5                      6
                      A                      A                      A
 Frequencies --     88.5763               143.2924               172.7747
 Red. masses --      5.7249                 4.2274                 2.4436
 Frc consts  --      0.0265                 0.0511                 0.0430
 IR Inten    --      1.4803                 8.9477                 0.2302

                      7                      8                      9
                      A                      A                      A
 Frequencies --    195.7734               211.6968               225.8310
 Red. masses --      1.4136                 1.1267                 2.6697
 Frc consts  --      0.0319                 0.0297                 0.0802
 IR Inten    --      1.2768                 0.2659                 7.4904

                     10                     11                     12
                      A                      A                      A
 Frequencies --    242.0267               253.7191               272.7179
 Red. masses --      4.8482                 1.1387                 4.6752
 Frc consts  --      0.1673                 0.0432                 0.2049
 IR Inten    --      1.5236                 0.7232                 5.5878

                     13                     14                     15
                      A                      A                      A
 Frequencies --    285.9522               305.4068               316.2928
 Red. masses --      3.2699                 3.2939                 2.8508
 Frc consts  --      0.1575                 0.1810                 0.1680
 IR Inten    --      4.0440                 3.6262                 0.2192

                     16                     17                     18
                      A                      A                      A
 Frequencies --    346.2144               362.5841               442.0633
 Red. masses --      3.2233                 3.6607                 3.7578
 Frc consts  --      0.2276                 0.2835                 0.4327
 IR Inten    --      2.0555                 4.2619                17.1025

                     19                     20                     21
                      A                      A                      A
 Frequencies --    483.5899               487.3358               505.9414
 Red. masses --      4.8020                 4.4362                 3.9139
 Frc consts  --      0.6617                 0.6208                 0.5903
 IR Inten    --      7.2587                26.6606                 9.7664

                     22                     23                     24
                      A                      A                      A
 Frequencies --    550.0157               587.3681               604.5575
 Red. masses --      6.5453                 4.3329                 5.5240
 Frc consts  --      1.1666                 0.8807                 1.1895
 IR Inten    --      0.6025                18.5255                 4.6170

                     25                     26                     27
                      A                      A                      A
 Frequencies --    626.3446               664.1581               700.7195
 Red. masses --      6.1188                 4.9968                 1.7251
 Frc consts  --      1.4143                 1.2986                 0.4991
 IR Inten    --     14.2628                54.6978                51.4709

                     28                     29                     30
                      A                      A                      A
 Frequencies --    745.4536               764.8428               768.4722
 Red. masses --      5.4034                 1.5932                 2.5384
 Frc consts  --      1.7691                 0.5491                 0.8832
 IR Inten    --     62.7968                25.4329                25.6197

                     31                     32                     33
                      A                      A                      A
 Frequencies --    840.2902               894.6786               956.7778
 Red. masses --      2.8606                 5.0577                 1.7704
 Frc consts  --      1.1901                 2.3853                 0.9549
 IR Inten    --      9.4827                10.6555                 0.6274

                     34                     35                     36
                      A                      A                      A
 Frequencies --    977.6461               983.8330               986.2627
 Red. masses --      1.4550                 1.3300                 1.4354
 Frc consts  --      0.8193                 0.7585                 0.8226
 IR Inten    --      3.5152                 0.7751                37.5383

                     37                     38                     39
                      A                      A                      A
 Frequencies --   1007.2089              1047.9680              1072.0904
 Red. masses --      1.6037                 1.3937                 4.7970
 Frc consts  --      0.9585                 0.9018                 3.2485
 IR Inten    --      4.7847                 4.1074                39.0326

                     40                     41                     42
                      A                      A                      A
 Frequencies --   1100.5892              1154.5789              1194.9080
 Red. masses --      8.2568                 2.7308                 2.0422
 Frc consts  --      5.8927                 2.1448                 1.7180
 IR Inten    --    134.7382                18.6456                27.2644

                     43                     44                     45
                      A                      A                      A
 Frequencies --   1219.0571              1259.4712              1265.3258
 Red. masses --      3.1075                 1.7220                 2.5392
 Frc consts  --      2.7209                 1.6094                 2.3953
 IR Inten    --      6.3944                 0.8772                31.6864

                     46                     47                     48
                      A                      A                      A
 Frequencies --   1291.5062              1305.5199              1330.5130
 Red. masses --      6.2179                 1.8568                 2.4056
 Frc consts  --      6.1107                 1.8646                 2.5091
 IR Inten    --    218.1584                 5.7358                32.1345

                     49                     50                     51
                      A                      A                      A
 Frequencies --   1371.9596              1388.4424              1430.2952
 Red. masses --      1.2151                 1.4520                 1.2223
 Frc consts  --      1.3475                 1.6491                 1.4733
 IR Inten    --     12.8990                89.4239                 9.1738

                     52                     53                     54
                      A                      A                      A
 Frequencies --   1450.0709              1481.9545              1483.3002
 Red. masses --      1.2140                 1.0794                 1.0606
 Frc consts  --      1.5040                 1.3967                 1.3749
 IR Inten    --     15.4606                 5.8341                 5.9904

                     55                     56                     57
                      A                      A                      A
 Frequencies --   1489.6185              1499.3927              1512.1931
 Red. masses --      1.3788                 8.2046                 1.0707
 Frc consts  --      1.8026                10.8677                 1.4426
 IR Inten    --      5.3283                12.4612                 6.2925

                     58                     59                     60
                      A                      A                      A
 Frequencies --   1520.6076              1532.0076              1538.7983
 Red. masses --      1.0467                 1.0623                 1.0605
 Frc consts  --      1.4260                 1.4689                 1.4795
 IR Inten    --      2.5143                 2.7595                 7.6616

                     61                     62                     63
                      A                      A                      A
 Frequencies --   1548.0843              1607.5015              2988.5427
 Red. masses --      1.0689                 4.0687                 1.0699
 Frc consts  --      1.5093                 6.1946                 5.6301
 IR Inten    --     47.1806               548.3866                43.9737

                     64                     65                     66
                      A                      A                      A
 Frequencies --   3050.9261              3062.2591              3073.3592
 Red. masses --      1.0904                 1.0372                 1.0386
 Frc consts  --      5.9801                 5.7305                 5.7801
 IR Inten    --     12.2128                14.8906                12.3440

                     67                     68                     69
                      A                      A                      A
 Frequencies --   3091.4842              3124.5398              3145.0017
 Red. masses --      1.0297                 1.1019                 1.0998
 Frc consts  --      5.7981                 6.3381                 6.4094
 IR Inten    --      1.6929                20.5071                 6.7194

                     70                     71                     72
                      A                      A                      A
 Frequencies --   3159.9616              3174.8380              3188.7108
 Red. masses --      1.1014                 1.1027                 1.1055
 Frc consts  --      6.4795                 6.5487                 6.6226
 IR Inten    --      5.3512                 5.5253                 1.1989

                     73                     74                     75
                      A                      A                      A
 Frequencies --   3201.3240              3267.0933              3500.4214
 Red. masses --      1.1082                 1.0948                 1.0767
 Frc consts  --      6.6918                 6.8851                 7.7731
 IR Inten    --      1.4146                 0.6981               246.7478

 - Thermochemistry -
 -------------------
 Temperature   298.150 Kelvin.  Pressure   1.00000 Atm.
 Atom     1 has atomic number  6 and mass  12.00000

 Molecular mass:   235.04492 amu.
 Principal axes and moments of inertia in atomic units:
                           1         2         3
     Eigenvalues --  1483.069516378.217076867.01419
           X            0.99994   0.01001   0.00401
           Y           -0.00977   0.99835  -0.05654
           Z           -0.00456   0.05650   0.99839
 This molecule is an asymmetric top.
 Rotational symmetry number  1.
 Warning -- assumption of classical behavior for rotation
           may cause significant error
 Rotational temperatures (Kelvin)      0.05840     0.01358     0.01261
 Rotational constants (GHZ):           1.21690     0.28295     0.26281
 Zero-point vibrational energy     557702.8 (Joules/Mol)
                                  133.29417 (Kcal/Mol)
 Warning -- explicit consideration of  24 degrees of freedom as
           vibrations may cause significant error
 Vibrational temperatures:     27.40    57.00    82.50   127.44   206.17
          (Kelvin)            248.58   281.67   304.58   324.92   348.22
                              365.05   392.38   411.42   439.41   455.07
                              498.13   521.68   636.03   695.78   701.17
                              727.94   791.35   845.09   869.82   901.17
                              955.58  1008.18  1072.54  1100.44  1105.66
                             1208.99  1287.24  1376.59  1406.61  1415.52
                             1419.01  1449.15  1507.79  1542.50  1583.50
                             1661.18  1719.21  1753.95  1812.10  1820.52
                             1858.19  1878.35  1914.31  1973.94  1997.66
                             2057.88  2086.33  2132.20  2134.14  2143.23
                             2157.29  2175.71  2187.82  2204.22  2213.99
                             2227.35  2312.84  4299.85  4389.60  4405.91
                             4421.88  4447.96  4495.52  4524.96  4546.48
                             4567.88  4587.84  4605.99  4700.62  5036.33

 Zero-point correction=                           0.212418 (Hartree/Particle)
 Thermal correction to Energy=                    0.227598
 Thermal correction to Enthalpy=                  0.228542
 Thermal correction to Gibbs Free Energy=         0.168913
 Sum of electronic and zero-point Energies=          -1385.412248
 Sum of electronic and thermal Energies=             -1385.397068
 Sum of electronic and thermal Enthalpies=           -1385.396124
 Sum of electronic and thermal Free Energies=        -1385.455753

                     E (Thermal)             CV                S
                      KCal/Mol        Cal/Mol-Kelvin    Cal/Mol-Kelvin
 Total                  142.820             56.283            125.500
 Electronic               0.000              0.000              0.000
 Translational            0.889              2.981             42.265
 Rotational               0.889              2.981             32.541
 Vibrational            141.042             50.321             50.694
 Vibration     1          0.593              1.986              6.732
 Vibration     2          0.594              1.981              5.278
 Vibration     3          0.596              1.975              4.547
 Vibration     4          0.601              1.957              3.691
 Vibration     5          0.616              1.910              2.759
 Vibration     6          0.626              1.876              2.405
 Vibration     7          0.636              1.846              2.172
 Vibration     8          0.643              1.823              2.029
 Vibration     9          0.650              1.802              1.912
 Vibration    10          0.658              1.776              1.788
 Vibration    11          0.665              1.757              1.705
 Vibration    12          0.676              1.724              1.579
 Vibration    13          0.684              1.700              1.498
 Vibration    14          0.696              1.663              1.387
 Vibration    15          0.703              1.643              1.329
 Vibration    16          0.724              1.583              1.183
 Vibration    17          0.736              1.549              1.111
 Vibration    18          0.802              1.378              0.820
 Vibration    19          0.840              1.286              0.700
 Vibration    20          0.843              1.278              0.691
 Vibration    21          0.861              1.237              0.643
 Vibration    22          0.905              1.140              0.544
 Vibration    23          0.945              1.059              0.472
 Vibration    24          0.963              1.022              0.442

                           ! Non-Optimized Parameters !
 Normal termination of Gaussian 16 at Thu Dec 10 09:30:29 2020.

 ----------------------------------------------------------------------
 # B3LYP/6-311++G(d,p) empiricaldispersion=gd3bj scf=xqc pop=npa geom=c
 heck
 ----------------------------------------------------------------------

 --------------------------------------
 CID_79561940_JID_4246_Energie_neutraal
 --------------------------------------
 Structure from the checkpoint file:  "JID_4246.chk"
 Charge =  0 Multiplicity = 1

 SCF Done:  E(RB3LYP) =  -1385.84755445     A.U. after   16 cycles
 Normal termination of Gaussian 16 at Thu Dec 10 09:34:19 2020.

 ----------------------------------------------------------------------
 # B3LYP/6-311++G(d,p) empiricaldispersion=gd3bj scf=xqc pop=npa geom=c
 heck
 ----------------------------------------------------------------------

 ------------------------------------
 CID_79561940_JID_4246_Energie_kation
 ------------------------------------
 Structure from the checkpoint file:  "JID_4246.chk"
 Charge =  1 Multiplicity = 2

 SCF Done:  E(UB3LYP) =  -1385.53817180     A.U. after   24 cycles
 Normal termination of Gaussian 16 at Thu Dec 10 09:42:47 2020.
 Gaussian 16:  ES64L-G16RevA.03 25-Dec-2016

 ----------------------------------------------------------------------
 # B3LYP/6-311++G(d,p) empiricaldispersion=gd3bj scf=xqc pop=npa geom=c
 heck
 ----------------------------------------------------------------------

 -----------------------------------
 CID_79561940_JID_4246_Energie_anion
 -----------------------------------
 Structure from the checkpoint file:  "JID_4246.chk"
 Charge = -1 Multiplicity = 2

                         Standard orientation:
 ---------------------------------------------------------------------
 Center     Atomic      Atomic             Coordinates (Angstroms)
 Number     Number       Type             X           Y           Z
 ---------------------------------------------------------------------
      1          6           0        1.573932    1.131609   -1.767489
      2          6           0        1.505689    0.928564   -0.248239
      3          6           0        2.242021    2.048355    0.493181
      4          6           0        0.055116    0.840748    0.254869
      5          7           0       -0.733968   -0.162984   -0.429554
      6          6           0       -2.074377   -0.278178   -0.218775
      7          7           0       -2.767035   -1.343205   -0.541090
      8          7           0       -4.103163   -1.198771   -0.281381
      9          6           0       -4.411515   -0.056109    0.240167
     10         16           0       -3.043415    1.026925    0.481490
     11         16           0        2.400591   -0.671080    0.064994
     12          8           0        1.634833   -1.743154   -0.609106
     13          8           0        3.820131   -0.466016   -0.261333
     14          6           0        2.284111   -0.983297    1.842745
     15          1           0        1.066392    2.069112   -2.018010
     16          1           0        1.080727    0.319058   -2.303135
     17          1           0        2.613696    1.195669   -2.097716
     18          1           0        1.810922    3.012590    0.203393
     19          1           0        2.149415    1.955913    1.580412
     20          1           0        3.301956    2.050165    0.229571
     21          1           0        0.043274    0.703281    1.348863
     22          1           0       -0.392710    1.825472    0.066757
     23          1           0       -0.260564   -1.038612   -0.647574
     24          1           0       -5.417859    0.231735    0.514786
     25          1           0        2.765885   -0.176477    2.396143
     26          1           0        1.239404   -1.103820    2.132220
     27          1           0        2.824248   -1.919674    1.999492
 ---------------------------------------------------------------------

 SCF Done:  E(UB3LYP) =  -1385.84512772     A.U. after   33 cycles
 SCF Done:  E(UB3LYP) =  -1385.84512772     a.u. after    1 cycles

 The electronic state is 2-A.
 Alpha  occ. eigenvalues --  -88.95331 -88.79479 -19.02662 -19.02481 -14.25006
 Alpha  occ. eigenvalues --  -14.24985 -14.23215 -10.17969 -10.14424 -10.13779
 Alpha  occ. eigenvalues --  -10.13579 -10.11460 -10.08513 -10.08203  -8.01898
 Alpha  occ. eigenvalues --   -7.88130  -5.98163  -5.98042  -5.97977  -5.84394
 Alpha  occ. eigenvalues --   -5.84088  -5.83698  -1.01735  -0.93726  -0.91516
 Alpha  occ. eigenvalues --   -0.86383  -0.75825  -0.72070  -0.70106  -0.68119
 Alpha  occ. eigenvalues --   -0.61889  -0.61185  -0.56463  -0.52112  -0.51160
 Alpha  occ. eigenvalues --   -0.46867  -0.43410  -0.42778  -0.41098  -0.39010
 Alpha  occ. eigenvalues --   -0.38331  -0.37633  -0.35736  -0.35050  -0.34643
 Alpha  occ. eigenvalues --   -0.34057  -0.33531  -0.32084  -0.31616  -0.30875
 Alpha  occ. eigenvalues --   -0.30533  -0.27734  -0.27556  -0.24216  -0.23687
 Alpha  occ. eigenvalues --   -0.23413  -0.21770  -0.21317  -0.20147  -0.19735
 Alpha  occ. eigenvalues --   -0.17245  -0.13554   0.03800
 Alpha virt. eigenvalues --    0.06214   0.06578   0.06698   0.08384   0.08569
 Alpha virt. eigenvalues --    0.09410   0.09568   0.10350   0.11144   0.11332
 Alpha virt. eigenvalues --    0.11637   0.11883   0.12650   0.13220   0.13407

  Beta  occ. eigenvalues --  -88.95327 -88.79465 -19.02652 -19.02471 -14.24983
  Beta  occ. eigenvalues --  -14.24983 -14.23224 -10.17923 -10.14423 -10.13729
  Beta  occ. eigenvalues --  -10.13539 -10.11382 -10.08487 -10.08139  -8.01894
  Beta  occ. eigenvalues --   -7.88115  -5.98161  -5.98040  -5.97966  -5.84383
  Beta  occ. eigenvalues --   -5.84079  -5.83667  -1.01711  -0.93683  -0.91493
  Beta  occ. eigenvalues --   -0.86347  -0.75793  -0.72023  -0.70046  -0.68035
  Beta  occ. eigenvalues --   -0.61824  -0.61096  -0.56398  -0.52034  -0.51111
  Beta  occ. eigenvalues --   -0.46783  -0.43363  -0.42716  -0.41042  -0.38969
  Beta  occ. eigenvalues --   -0.38291  -0.37561  -0.35648  -0.34987  -0.34568
  Beta  occ. eigenvalues --   -0.33995  -0.33457  -0.32027  -0.31562  -0.30829
  Beta  occ. eigenvalues --   -0.30479  -0.27685  -0.27495  -0.24172  -0.23555
  Beta  occ. eigenvalues --   -0.23381  -0.21753  -0.21295  -0.20027  -0.19692
  Beta  occ. eigenvalues --   -0.17216  -0.13449
  Beta virt. eigenvalues --    0.06398   0.06764   0.07052   0.07490   0.08834
  Beta virt. eigenvalues --    0.09081   0.09595   0.10277   0.11047   0.11429
  Beta virt. eigenvalues --    0.11514   0.11730   0.12223   0.12826   0.13388

 Mulliken charges and spin densities:
               1          2
     1  C   -0.069059  -0.422019
     2  C   -1.910369   1.878142
     3  C    1.640167  -2.061363
     4  C    0.537342  -1.450207
     5  N    0.145190   0.113382
     6  C   -0.376158   0.109043
     7  N   -0.079318  -0.001319
     8  N   -0.078353  -0.015168
     9  C   -0.205482   0.075355
    10  S    0.202894  -0.081660
    11  S    0.400794  -0.242993
    12  O   -0.197279   0.025685
    13  O   -0.114704  -0.003749
    14  C    0.798602  -1.335346
    15  H   -0.050196   0.225508
    16  H    0.101711   0.071346
    17  H    0.075065   0.115842
    18  H   -0.420314   0.592559
    19  H   -0.537766   0.711130
    20  H    0.030329   0.164249
    21  H   -0.310653   0.545267
    22  H   -0.248489   0.414791
    23  H    0.336322  -0.016132
    24  H    0.080062   0.147625
    25  H   -0.481021   0.719797
    26  H   -0.332781   0.546497
    27  H    0.063463   0.173741
 Sum of Mulliken charges =  -1.00000   1.00000

 Dipole moment (field-independent basis, Debye):
    X=             -2.4894    Y=             -0.2187    Z=             -2.6745  Tot=              3.6603
 Quadrupole moment (field-independent basis, Debye-Ang):
   XX=           -161.4914   YY=           -145.4452   ZZ=           -138.2057
   XY=            -12.8991   XZ=             -9.6034   YZ=             -8.8234

 Summary of Natural Population Analysis:

                                       Natural Population
                Natural  -----------------------------------------------
    Atom  No    Charge         Core      Valence    Rydberg      Total
 -----------------------------------------------------------------------
      C    1   -0.29933      0.99960     2.29073    0.00900     3.29933
      C    2   -0.11771      0.99955     2.09940    0.01876     3.11771
      C    3   -0.29940      0.99960     2.28913    0.01067     3.29940
      C    4   -0.10137      0.99953     2.08767    0.01416     3.10137
      N    5   -0.32629      0.99963     2.81495    0.01170     3.82629
      C    6    0.14120      0.99962     1.83860    0.02058     2.85880
      N    7   -0.18389      0.99963     2.67041    0.01386     3.68389
      N    8   -0.13458      0.99967     2.61919    0.01572     3.63458
      C    9   -0.06949      0.99967     2.05450    0.01533     3.06949
      S   10    0.14620      4.99949     2.83511    0.01921     7.85380
      S   11    1.02180      4.99915     1.88692    0.09213     6.97820
      O   12   -0.48041      0.99991     3.47499    0.00552     4.48041
      O   13   -0.46738      0.99991     3.46174    0.00573     4.46738
      C   14   -0.39125      0.99961     2.38360    0.00804     3.39125
      H   15    0.10915      0.00000     0.38992    0.00094     0.39085
      H   16    0.11317      0.00000     0.38576    0.00107     0.38683
      H   17    0.11125      0.00000     0.38784    0.00090     0.38875
      H   18    0.11095      0.00000     0.38686    0.00219     0.38905
      H   19    0.11169      0.00000     0.38456    0.00375     0.38831
      H   20    0.11476      0.00000     0.38392    0.00132     0.38524
      H   21    0.10392      0.00000     0.39270    0.00338     0.39608
      H   22    0.10857      0.00000     0.38927    0.00216     0.39143
      H   23    0.21560      0.00000     0.28079    0.00362     0.28440
      H   24    0.10087      0.00000     0.39789    0.00124     0.39913
      H   25    0.12241      0.00000     0.37511    0.00248     0.37759
      H   26    0.11881      0.00000     0.37952    0.00167     0.38119
      H   27    0.12073      0.00000     0.37823    0.00104     0.37927
 =======================================================================
   * Total *    0.00000     21.99457    39.71930    0.28614    62.00000

 Normal termination of Gaussian 16 at Thu Dec 10 09:55:09 2020.
