 Gaussian 16, Revision A.03,

 -----------------------------------------------------------
 # opt freq B3LYP/6-31G(d) empiricaldispersion=gd3bj scf=xqc
 -----------------------------------------------------------

 ------------------------------
 CID_64085327_JID_7927_neutraal
 ------------------------------
 Symbolic Z-matrix:
 Charge =  0 Multiplicity = 1

 SCF Done:  E(RB3LYP) =  -1139.89724509     A.U. after   15 cycles
 SCF Done:  E(RB3LYP) =  -1139.90465216     A.U. after   12 cycles
 SCF Done:  E(RB3LYP) =  -1139.90687529     A.U. after   14 cycles
 SCF Done:  E(RB3LYP) =  -1139.91062396     A.U. after   15 cycles
 SCF Done:  E(RB3LYP) =  -1139.88613862     A.U. after   15 cycles
 SCF Done:  E(RB3LYP) =  -1139.90706772     A.U. after   14 cycles
 SCF Done:  E(RB3LYP) =  -1139.91233190     A.U. after   11 cycles
 SCF Done:  E(RB3LYP) =  -1139.91194779     A.U. after   13 cycles
 SCF Done:  E(RB3LYP) =  -1139.91354637     A.U. after   12 cycles
 SCF Done:  E(RB3LYP) =  -1139.91384705     A.U. after   11 cycles
 SCF Done:  E(RB3LYP) =  -1139.91471044     A.U. after    8 cycles
 SCF Done:  E(RB3LYP) =  -1139.91471067     A.U. after    7 cycles
 SCF Done:  E(RB3LYP) =  -1139.91471084     A.U. after    8 cycles
 SCF Done:  E(RB3LYP) =  -1139.91471099     A.U. after    7 cycles
 SCF Done:  E(RB3LYP) =  -1139.91471109     A.U. after    7 cycles
 Optimization completed.
    -- Stationary point found.
 Normal termination of Gaussian 16 at Fri Dec 11 13:21:42 2020.

 --------------------------------------------------------------------
 #N Geom=AllCheck Guess=TCheck SCRF=Check GenChk RB3LYP/6-31G(d) Freq
 --------------------------------------------------------------------

 Structure from the checkpoint file:  "JID_7927.chk"
 ------------------------------
 CID_64085327_JID_7927_neutraal
 ------------------------------
 Charge =  0 Multiplicity = 1

 SCF Done:  E(RB3LYP) =  -1139.91471109     A.U. after    1 cycles

  Exact polarizability: 139.121 -10.803 167.969 -17.922  -7.911 120.605
 Approx polarizability: 201.799 -22.221 272.760 -40.824 -22.757 212.614

                      1                      2                      3
                      A                      A                      A
 Frequencies --     14.1453                28.8799                48.3247
 Red. masses --      5.0808                 7.7309                 4.2563
 Frc consts  --      0.0006                 0.0038                 0.0059
 IR Inten    --      0.9181                 2.9085                 3.1303

                      4                      5                      6
                      A                      A                      A
 Frequencies --     51.6727                65.2682                97.5235
 Red. masses --      6.7318                 5.6281                 5.5845
 Frc consts  --      0.0106                 0.0141                 0.0313
 IR Inten    --      1.1566                 0.5343                 1.5935

                      7                      8                      9
                      A                      A                      A
 Frequencies --    125.0206               138.8559               210.2399
 Red. masses --      5.7536                 4.9946                 1.3693
 Frc consts  --      0.0530                 0.0567                 0.0357
 IR Inten    --      0.4884                 0.1019                32.0592

                     10                     11                     12
                      A                      A                      A
 Frequencies --    211.6553               251.8056               270.9367
 Red. masses --      1.9706                 5.0203                 4.5118
 Frc consts  --      0.0520                 0.1875                 0.1951
 IR Inten    --     23.0087                 4.1051                 9.8969

                     13                     14                     15
                      A                      A                      A
 Frequencies --    287.2376               337.6751               352.1900
 Red. masses --      2.5593                 2.6239                 3.9462
 Frc consts  --      0.1244                 0.1763                 0.2884
 IR Inten    --      2.0097                 2.2408                 1.1056

                     16                     17                     18
                      A                      A                      A
 Frequencies --    404.7246               422.2744               449.2275
 Red. masses --      8.4699                 2.5561                 4.6963
 Frc consts  --      0.8174                 0.2685                 0.5584
 IR Inten    --      5.4158                 3.2926                 1.3482

                     19                     20                     21
                      A                      A                      A
 Frequencies --    474.2248               558.2921               580.9240
 Red. masses --      4.1394                 4.7328                 3.6267
 Frc consts  --      0.5485                 0.8692                 0.7211
 IR Inten    --      1.4217                 1.9998                 9.3630

                     22                     23                     24
                      A                      A                      A
 Frequencies --    621.9472               646.9778               655.2957
 Red. masses --      3.4693                 4.5520                 3.2530
 Frc consts  --      0.7907                 1.1226                 0.8230
 IR Inten    --      7.9216                 6.4035                52.3370

                     25                     26                     27
                      A                      A                      A
 Frequencies --    658.8561               669.4062               688.1469
 Red. masses --      3.1741                 2.8457                 6.0622
 Frc consts  --      0.8118                 0.7513                 1.6914
 IR Inten    --     16.0586                11.8661                24.1727

                     28                     29                     30
                      A                      A                      A
 Frequencies --    696.9585               724.9679               782.8540
 Red. masses --      1.3842                 1.4491                 1.3685
 Frc consts  --      0.3961                 0.4487                 0.4941
 IR Inten    --      0.2927                12.7581               131.0440

                     31                     32                     33
                      A                      A                      A
 Frequencies --    804.1146               809.8803               824.1245
 Red. masses --      1.3000                 3.6322                 4.6287
 Frc consts  --      0.4953                 1.4037                 1.8522
 IR Inten    --     87.3590                29.1821                 6.5666

                     34                     35                     36
                      A                      A                      A
 Frequencies --    831.4562               855.1759               876.8060
 Red. masses --      1.4880                 3.5354                 3.5025
 Frc consts  --      0.6061                 1.5233                 1.5865
 IR Inten    --     58.1777                15.2801                 3.0183

                     37                     38                     39
                      A                      A                      A
 Frequencies --    888.8090               932.7082               954.9331
 Red. masses --      1.2845                 3.2206                 4.2710
 Frc consts  --      0.5978                 1.6507                 2.2947
 IR Inten    --      0.2784                 3.7948                 5.7238

                     40                     41                     42
                      A                      A                      A
 Frequencies --    979.5190              1006.7036              1022.0975
 Red. masses --      2.5438                 1.9793                 3.1509
 Frc consts  --      1.4380                 1.1819                 1.9394
 IR Inten    --      2.5781                 2.3860                20.7266

                     43                     44                     45
                      A                      A                      A
 Frequencies --   1045.7977              1050.1838              1090.3153
 Red. masses --      2.9566                 3.9491                 2.3348
 Frc consts  --      1.9052                 2.5661                 1.6353
 IR Inten    --     53.1242                11.1071                18.8052

                     46                     47                     48
                      A                      A                      A
 Frequencies --   1118.0993              1118.3360              1189.3822
 Red. masses --      1.2082                 1.2135                 1.4960
 Frc consts  --      0.8899                 0.8942                 1.2469
 IR Inten    --      0.2908                 3.2846                 8.6258

                     49                     50                     51
                      A                      A                      A
 Frequencies --   1193.6258              1220.8438              1228.1321
 Red. masses --      1.7233                 1.6969                 1.4635
 Frc consts  --      1.4466                 1.4902                 1.3005
 IR Inten    --     14.5676                10.0848                 3.3461

                     52                     53                     54
                      A                      A                      A
 Frequencies --   1262.7713              1274.6500              1286.1762
 Red. masses --      1.4622                 1.2616                 1.4708
 Frc consts  --      1.3738                 1.2077                 1.4336
 IR Inten    --     13.8763                39.1592                45.0439

                     55                     56                     57
                      A                      A                      A
 Frequencies --   1307.1551              1372.4393              1385.0339
 Red. masses --      3.0306                 1.3663                 1.4372
 Frc consts  --      3.0509                 1.5162                 1.6243
 IR Inten    --    276.6841                 4.3942                 4.8895

                     58                     59                     60
                      A                      A                      A
 Frequencies --   1402.1493              1418.2108              1425.2761
 Red. masses --      2.4220                 1.7382                 5.0747
 Frc consts  --      2.8055                 2.0598                 6.0737
 IR Inten    --     24.4634                 8.3165                30.9509

                     61                     62                     63
                      A                      A                      A
 Frequencies --   1438.2773              1450.8752              1474.5865
 Red. masses --      2.4195                 4.8131                 1.1320
 Frc consts  --      2.9489                 5.9695                 1.4503
 IR Inten    --      3.0107               103.8107                 3.8258

                     64                     65                     66
                      A                      A                      A
 Frequencies --   1480.7351              1504.9696              1506.2431
 Red. masses --      5.3500                 3.8717                 1.1235
 Frc consts  --      6.9113                 5.1666                 1.5018
 IR Inten    --     11.0336                 5.0131                 5.1649

                     67                     68                     69
                      A                      A                      A
 Frequencies --   1534.5585              1610.6960              1647.6048
 Red. masses --      1.0939                 5.8736                 3.9495
 Frc consts  --      1.5177                 8.9781                 6.3168
 IR Inten    --      5.1124                 0.0350                19.6140

                     70                     71                     72
                      A                      A                      A
 Frequencies --   1692.8037              1828.1718              3050.4632
 Red. masses --      1.2167                11.8495                 1.0644
 Frc consts  --      2.0542                23.3338                 5.8358
 IR Inten    --     68.3931               275.3733                20.5003

                     73                     74                     75
                      A                      A                      A
 Frequencies --   3076.4182              3092.3650              3103.0972
 Red. masses --      1.0597                 1.0609                 1.1004
 Frc consts  --      5.9093                 5.9771                 6.2428
 IR Inten    --     39.8671                18.9834                 9.2461

                     76                     77                     78
                      A                      A                      A
 Frequencies --   3133.8115              3145.6610              3207.8350
 Red. masses --      1.1058                 1.1036                 1.0909
 Frc consts  --      6.3986                 6.4340                 6.6141
 IR Inten    --     23.9176                 1.5958                 7.0061

                     79                     80                     81
                      A                      A                      A
 Frequencies --   3249.9904              3269.5154              3280.3985
 Red. masses --      1.0957                 1.0964                 1.0977
 Frc consts  --      6.8189                 6.9051                 6.9597
 IR Inten    --      7.8868                 1.5080                 0.9346

                     82                     83                     84
                      A                      A                      A
 Frequencies --   3295.2393              3522.1414              3615.9794
 Red. masses --      1.0942                 1.0492                 1.0956
 Frc consts  --      7.0005                 7.6685                 8.4401
 IR Inten    --      2.4346                 4.4628                 6.2771

 - Thermochemistry -
 -------------------
 Temperature   298.150 Kelvin.  Pressure   1.00000 Atm.
 Atom     1 has atomic number  6 and mass  12.00000

 Molecular mass:   251.07285 amu.
 Principal axes and moments of inertia in atomic units:
                           1         2         3
     Eigenvalues --  3549.846014347.792146709.51583
           X            0.99824   0.05938   0.00053
           Y           -0.05939   0.99820   0.00859
           Z           -0.00002  -0.00861   0.99996
 This molecule is an asymmetric top.
 Rotational symmetry number  1.
 Warning -- assumption of classical behavior for rotation
           may cause significant error
 Rotational temperatures (Kelvin)      0.02440     0.01992     0.01291
 Rotational constants (GHZ):           0.50840     0.41509     0.26898
 Zero-point vibrational energy     621542.9 (Joules/Mol)
                                  148.55231 (Kcal/Mol)
 Warning -- explicit consideration of  21 degrees of freedom as
           vibrations may cause significant error
 Vibrational temperatures:     20.35    41.55    69.53    74.35    93.91
          (Kelvin)            140.31   179.88   199.78   302.49   304.52
                              362.29   389.82   413.27   485.84   506.72
                              582.31   607.56   646.34   682.30   803.26
                              835.82   894.84   930.86   942.82   947.95
                              963.13   990.09  1002.77  1043.07  1126.35
                             1156.94  1165.24  1185.73  1196.28  1230.41
                             1261.53  1278.80  1341.96  1373.94  1409.31
                             1448.42  1470.57  1504.67  1510.98  1568.72
                             1608.70  1609.04  1711.26  1717.36  1756.52
                             1767.01  1816.85  1833.94  1850.52  1880.70
                             1974.63  1992.75  2017.38  2040.49  2050.65
                             2069.36  2087.49  2121.60  2130.45  2165.32
                             2167.15  2207.89  2317.43  2370.54  2435.57
                             2630.33  4388.94  4426.28  4449.22  4464.66
                             4508.86  4525.90  4615.36  4676.01  4704.10
                             4719.76  4741.11  5067.58  5202.59

 Zero-point correction=                           0.236733 (Hartree/Particle)
 Thermal correction to Energy=                    0.252672
 Thermal correction to Enthalpy=                  0.253616
 Thermal correction to Gibbs Free Energy=         0.190361
 Sum of electronic and zero-point Energies=          -1139.677978
 Sum of electronic and thermal Energies=             -1139.662039
 Sum of electronic and thermal Enthalpies=           -1139.661095
 Sum of electronic and thermal Free Energies=        -1139.724350

                     E (Thermal)             CV                S
                      KCal/Mol        Cal/Mol-Kelvin    Cal/Mol-Kelvin
 Total                  158.554             59.441            133.131
 Electronic               0.000              0.000              0.000
 Translational            0.889              2.981             42.462
 Rotational               0.889              2.981             33.004
 Vibrational            156.777             53.479             57.665
 Vibration     1          0.593              1.986              7.322
 Vibration     2          0.593              1.984              5.905
 Vibration     3          0.595              1.978              4.885
 Vibration     4          0.596              1.977              4.752
 Vibration     5          0.597              1.971              4.291
 Vibration     6          0.603              1.951              3.503
 Vibration     7          0.610              1.928              3.021
 Vibration     8          0.614              1.914              2.820
 Vibration     9          0.642              1.825              2.042
 Vibration    10          0.643              1.823              2.029
 Vibration    11          0.664              1.760              1.718
 Vibration    12          0.675              1.727              1.590
 Vibration    13          0.684              1.697              1.490
 Vibration    14          0.718              1.600              1.223
 Vibration    15          0.729              1.571              1.156
 Vibration    16          0.770              1.460              0.945
 Vibration    17          0.785              1.422              0.884
 Vibration    18          0.808              1.363              0.798
 Vibration    19          0.831              1.307              0.726
 Vibration    20          0.914              1.122              0.527
 Vibration    21          0.938              1.073              0.484

 Optimization completed.
    -- Stationary point found.
 Normal termination of Gaussian 16 at Fri Dec 11 13:33:03 2020.

 ----------------------------------------------------------------------
 # B3LYP/6-311++G(d,p) empiricaldispersion=gd3bj scf=xqc pop=npa geom=c
 heck
 ----------------------------------------------------------------------

 --------------------------------------
 CID_64085327_JID_7927_Energie_neutraal
 --------------------------------------
 Structure from the checkpoint file:  "JID_7927.chk"
 Charge =  0 Multiplicity = 1

 SCF Done:  E(RB3LYP) =  -1140.15457445     A.U. after   16 cycles
 Normal termination of Gaussian 16 at Fri Dec 11 13:38:39 2020.

 ----------------------------------------------------------------------
 # B3LYP/6-311++G(d,p) empiricaldispersion=gd3bj scf=xqc pop=npa geom=c
 heck
 ----------------------------------------------------------------------

 ------------------------------------
 CID_64085327_JID_7927_Energie_kation
 ------------------------------------
 Structure from the checkpoint file:  "JID_7927.chk"
 Charge =  1 Multiplicity = 2

 SCF Done:  E(UB3LYP) =  -1139.87608453     A.U. after   26 cycles
 Normal termination of Gaussian 16 at Fri Dec 11 13:51:03 2020.
 Gaussian 16:  ES64L-G16RevA.03 25-Dec-2016

 ----------------------------------------------------------------------
 # B3LYP/6-311++G(d,p) empiricaldispersion=gd3bj scf=xqc pop=npa geom=c
 heck
 ----------------------------------------------------------------------

 -----------------------------------
 CID_64085327_JID_7927_Energie_anion
 -----------------------------------
 Structure from the checkpoint file:  "JID_7927.chk"
 Charge = -1 Multiplicity = 2

                         Standard orientation:
 ---------------------------------------------------------------------
 Center     Atomic      Atomic             Coordinates (Angstroms)
 Number     Number       Type             X           Y           Z
 ---------------------------------------------------------------------
      1          6           0        2.788374    1.331274   -0.338506
      2          6           0        3.297570    0.274785   -1.038468
      3         16           0        2.668113   -1.237004   -0.454429
      4          6           0        1.710952   -0.421703    0.740811
      5          6           0        1.869509    0.936325    0.692609
      6          6           0        1.114027    1.905602    1.563887
      7          6           0       -0.038181    2.578680    0.823690
      8          8           0       -0.966835    1.539069    0.452912
      9          6           0       -1.819321    1.815895   -0.539863
     10          8           0       -1.920222    2.884816   -1.100707
     11          6           0       -2.692859    0.614033   -0.901428
     12          7           0       -2.224188   -0.653351   -0.405833
     13          6           0       -1.129689   -1.351785   -0.839217
     14          6           0       -0.945616   -2.387957    0.058814
     15          6           0       -1.983410   -2.217924    1.010671
     16          7           0       -2.747557   -1.162235    0.726733
     17          7           0        0.101893   -3.327937    0.100935
     18          1           0        3.055435    2.364208   -0.539079
     19          1           0        4.013652    0.292063   -1.848762
     20          1           0        1.060019   -0.997760    1.381375
     21          1           0        0.715262    1.390120    2.443770
     22          1           0        1.781724    2.697016    1.929023
     23          1           0       -0.560236    3.302557    1.458423
     24          1           0        0.297346    3.092736   -0.080780
     25          1           0       -3.690533    0.775504   -0.485085
     26          1           0       -2.780939    0.593901   -1.991700
     27          1           0       -0.560769   -1.045995   -1.704446
     28          1           0       -2.203187   -2.828765    1.876888
     29          1           0       -0.196628   -4.226120    0.467476
     30          1           0        0.536321   -3.467166   -0.804733
 ---------------------------------------------------------------------

 SCF Done:  E(UB3LYP) =  -1140.14306597     A.U. after   33 cycles
 SCF Done:  E(UB3LYP) =  -1140.14306597     a.u. after    1 cycles

 The electronic state is 2-A.
 Alpha  occ. eigenvalues --  -88.77404 -19.08652 -19.03260 -14.29488 -14.23526
 Alpha  occ. eigenvalues --  -14.21517 -10.22401 -10.14536 -10.14212 -10.10626
 Alpha  occ. eigenvalues --  -10.10061 -10.09871 -10.09097 -10.09064 -10.09009
 Alpha  occ. eigenvalues --  -10.08324 -10.07845  -7.85999  -5.82278  -5.81908
 Alpha  occ. eigenvalues --   -5.81617  -1.03020  -0.95827  -0.94369  -0.80937
 Alpha  occ. eigenvalues --   -0.78266  -0.75896  -0.70710  -0.68065  -0.64127
 Alpha  occ. eigenvalues --   -0.62925  -0.61523  -0.55666  -0.50532  -0.50205
 Alpha  occ. eigenvalues --   -0.48824  -0.46966  -0.45220  -0.44341  -0.42183
 Alpha  occ. eigenvalues --   -0.41780  -0.39694  -0.39564  -0.38914  -0.37566
 Alpha  occ. eigenvalues --   -0.35337  -0.34745  -0.33371  -0.33141  -0.31531
 Alpha  occ. eigenvalues --   -0.31197  -0.30214  -0.29455  -0.28747  -0.27606
 Alpha  occ. eigenvalues --   -0.27099  -0.26109  -0.24463  -0.23258  -0.22566
 Alpha  occ. eigenvalues --   -0.20730  -0.20262  -0.15897  -0.15214  -0.13920
 Alpha  occ. eigenvalues --   -0.11038   0.04151
 Alpha virt. eigenvalues --    0.05804   0.06710   0.07199   0.07471   0.07638
 Alpha virt. eigenvalues --    0.08463   0.08600   0.08957   0.09898   0.10080
 Alpha virt. eigenvalues --    0.10681   0.10966   0.11585   0.12326   0.12856

  Beta  occ. eigenvalues --  -88.77398 -19.08650 -19.03256 -14.29482 -14.23519
  Beta  occ. eigenvalues --  -14.21452 -10.22398 -10.14530 -10.14191 -10.10618
  Beta  occ. eigenvalues --  -10.10049 -10.09840 -10.09082 -10.09022 -10.09000
  Beta  occ. eigenvalues --  -10.08317 -10.07834  -7.85992  -5.82274  -5.81903
  Beta  occ. eigenvalues --   -5.81604  -1.03015  -0.95814  -0.94363  -0.80849
  Beta  occ. eigenvalues --   -0.78221  -0.75876  -0.70676  -0.68033  -0.64092
  Beta  occ. eigenvalues --   -0.62866  -0.61479  -0.55627  -0.50494  -0.50160
  Beta  occ. eigenvalues --   -0.48786  -0.46894  -0.45182  -0.44297  -0.42149
  Beta  occ. eigenvalues --   -0.41749  -0.39652  -0.39523  -0.38867  -0.37516
  Beta  occ. eigenvalues --   -0.35303  -0.34713  -0.33339  -0.33110  -0.31494
  Beta  occ. eigenvalues --   -0.31166  -0.30183  -0.29427  -0.28712  -0.27562
  Beta  occ. eigenvalues --   -0.27027  -0.26079  -0.24421  -0.23207  -0.22549
  Beta  occ. eigenvalues --   -0.20714  -0.20247  -0.15871  -0.15145  -0.13743
  Beta  occ. eigenvalues --   -0.10986
  Beta virt. eigenvalues --    0.06355   0.07133   0.07278   0.07575   0.07602
  Beta virt. eigenvalues --    0.07935   0.08973   0.09126   0.09211   0.10031
  Beta virt. eigenvalues --    0.10307   0.10944   0.11530   0.11704   0.12586

 Mulliken charges and spin densities:
               1          2
     1  C    0.292518   0.087285
     2  C   -0.211762  -0.305297
     3  S    0.683366  -0.994634
     4  C    0.244829   0.687817
     5  C   -1.142128   0.574672
     6  C    0.590748  -1.540260
     7  C    0.201166  -0.472295
     8  O    0.066108   0.017694
     9  C    0.058724   0.071694
    10  O   -0.269137   0.011592
    11  C   -0.308470  -0.213285
    12  N    0.404242   0.040274
    13  C   -0.179139  -0.492520
    14  C    0.561120  -0.398734
    15  C    0.520773  -0.745916
    16  N   -0.403274   0.090341
    17  N   -0.356147   0.045838
    18  H   -0.366230   0.531189
    19  H   -0.328281   0.570738
    20  H    0.141234   0.210277
    21  H    0.035397   0.161661
    22  H   -0.259114   0.436815
    23  H   -0.222894   0.411035
    24  H    0.129434   0.082217
    25  H    0.125393   0.085665
    26  H    0.105622   0.108941
    27  H   -0.233234   0.389781
    28  H   -0.176096   0.317955
    29  H   -0.343674   0.608467
    30  H   -0.361096   0.620992
 Sum of Mulliken charges =  -1.00000   1.00000

 Dipole moment (field-independent basis, Debye):
    X=             -1.9871    Y=              2.4631    Z=             -0.2173  Tot=              3.1722
 Quadrupole moment (field-independent basis, Debye-Ang):
   XX=           -154.7598   YY=           -183.5209   ZZ=           -139.8379
   XY=             -1.7325   XZ=              2.9784   YZ=             -1.3984

 Summary of Natural Population Analysis:

                                       Natural Population
                Natural  -----------------------------------------------
    Atom  No    Charge         Core      Valence    Rydberg      Total
 -----------------------------------------------------------------------
      C    1   -0.12861      0.99948     2.11808    0.01105     3.12861
      C    2   -0.19137      0.99954     2.18126    0.01058     3.19137
      S    3    0.20550      4.99946     2.77275    0.02229     7.79450
      C    4   -0.17439      0.99944     2.16417    0.01078     3.17439
      C    5   -0.05250      0.99947     2.04042    0.01261     3.05250
      C    6   -0.20461      0.99958     2.19475    0.01028     3.20461
      C    7   -0.01031      0.99955     1.99935    0.01140     3.01031
      O    8   -0.27245      0.99985     3.26358    0.00902     4.27245
      C    9    0.40613      0.99971     1.57070    0.02347     2.59387
      O   10   -0.30701      0.99987     3.30142    0.00571     4.30701
      C   11   -0.12718      0.99957     2.11684    0.01077     3.12718
      N   12   -0.10909      0.99966     2.59598    0.01345     3.60909
      C   13   -0.03287      0.99950     2.02130    0.01207     3.03287
      C   14    0.03051      0.99948     1.95679    0.01322     2.96949
      C   15   -0.03090      0.99957     2.01644    0.01488     3.03090
      N   16   -0.14861      0.99973     2.63786    0.01101     3.64861
      N   17   -0.40546      0.99973     2.89327    0.01246     3.90546
      H   18    0.10613      0.00000     0.39261    0.00126     0.39387
      H   19    0.10837      0.00000     0.39056    0.00107     0.39163
      H   20    0.11908      0.00000     0.37912    0.00181     0.38092
      H   21    0.10723      0.00000     0.39147    0.00130     0.39277
      H   22    0.10807      0.00000     0.39045    0.00148     0.39193
      H   23    0.09230      0.00000     0.40626    0.00144     0.40770
      H   24    0.09689      0.00000     0.40179    0.00133     0.40311
      H   25    0.12110      0.00000     0.37764    0.00126     0.37890
      H   26    0.11131      0.00000     0.38755    0.00114     0.38869
      H   27    0.10799      0.00000     0.39037    0.00164     0.39201
      H   28    0.09804      0.00000     0.40089    0.00107     0.40196
      H   29    0.18757      0.00000     0.30676    0.00567     0.31243
      H   30    0.18916      0.00000     0.30479    0.00605     0.31084
 =======================================================================
   * Total *    0.00000     20.99321    44.76524    0.24155    66.00000

 Normal termination of Gaussian 16 at Fri Dec 11 14:07:00 2020.
