 Gaussian 16, Revision A.03,

 -----------------------------------------------------------
 # opt freq B3LYP/6-31G(d) empiricaldispersion=gd3bj scf=xqc
 -----------------------------------------------------------

 -------------------------------
 CID_122168830_JID_6867_neutraal
 -------------------------------
 Symbolic Z-matrix:
 Charge =  0 Multiplicity = 1

 SCF Done:  E(RB3LYP) =  -674.749803632     A.U. after   14 cycles
 SCF Done:  E(RB3LYP) =  -674.752904706     A.U. after   11 cycles
 SCF Done:  E(RB3LYP) =  -674.753356157     A.U. after   11 cycles
 SCF Done:  E(RB3LYP) =  -674.753573875     A.U. after   11 cycles
 SCF Done:  E(RB3LYP) =  -674.753707878     A.U. after   11 cycles
 SCF Done:  E(RB3LYP) =  -674.753864998     A.U. after   11 cycles
 SCF Done:  E(RB3LYP) =  -674.753973993     A.U. after   13 cycles
 SCF Done:  E(RB3LYP) =  -674.754137485     A.U. after   12 cycles
 SCF Done:  E(RB3LYP) =  -674.754619617     A.U. after   13 cycles
 SCF Done:  E(RB3LYP) =  -674.754701676     A.U. after   10 cycles
 SCF Done:  E(RB3LYP) =  -674.755002445     A.U. after    9 cycles
 SCF Done:  E(RB3LYP) =  -674.755002484     A.U. after    7 cycles
 SCF Done:  E(RB3LYP) =  -674.755002649     A.U. after    7 cycles
 SCF Done:  E(RB3LYP) =  -674.755002900     A.U. after    9 cycles
 SCF Done:  E(RB3LYP) =  -674.755002925     A.U. after    6 cycles
 Optimization completed.
    -- Stationary point found.
 Normal termination of Gaussian 16 at Fri Dec 11 01:19:28 2020.

 --------------------------------------------------------------------
 #N Geom=AllCheck Guess=TCheck SCRF=Check GenChk RB3LYP/6-31G(d) Freq
 --------------------------------------------------------------------

 Structure from the checkpoint file:  "JID_6867.chk"
 -------------------------------
 CID_122168830_JID_6867_neutraal
 -------------------------------
 Charge =  0 Multiplicity = 1

 SCF Done:  E(RB3LYP) =  -674.755002925     A.U. after    1 cycles

  Exact polarizability: 170.359 -11.388 160.679   4.576   7.230 132.212
 Approx polarizability: 213.802 -21.068 221.638  14.878  16.757 218.423

                      1                      2                      3
                      A                      A                      A
 Frequencies --     12.4744                23.6093                33.2618
 Red. masses --      2.6817                 3.5054                 3.3390
 Frc consts  --      0.0002                 0.0012                 0.0022
 IR Inten    --      0.0141                 0.0712                 0.0224

                      4                      5                      6
                      A                      A                      A
 Frequencies --     52.4119                58.3883                78.9881
 Red. masses --      2.7114                 1.1742                 3.0515
 Frc consts  --      0.0044                 0.0024                 0.0112
 IR Inten    --      0.0288                 0.0589                 0.0516

                      7                      8                      9
                      A                      A                      A
 Frequencies --     97.3750               129.6601               162.3737
 Red. masses --      3.2741                 3.3322                 2.7993
 Frc consts  --      0.0183                 0.0330                 0.0435
 IR Inten    --      0.4813                 2.3890                 0.3422

                     10                     11                     12
                      A                      A                      A
 Frequencies --    185.4024               204.3831               223.1000
 Red. masses --      2.9217                 2.7717                 1.7928
 Frc consts  --      0.0592                 0.0682                 0.0526
 IR Inten    --      5.1454                 3.5191                 0.8194

                     13                     14                     15
                      A                      A                      A
 Frequencies --    231.9082               241.5079               251.5086
 Red. masses --      1.0472                 1.4182                 1.4137
 Frc consts  --      0.0332                 0.0487                 0.0527
 IR Inten    --      0.2869                 1.1370                 0.5772

                     16                     17                     18
                      A                      A                      A
 Frequencies --    267.7374               290.5681               300.3212
 Red. masses --      1.1674                 2.0103                 2.0035
 Frc consts  --      0.0493                 0.1000                 0.1065
 IR Inten    --      0.6949                 1.0769                 1.8106

                     19                     20                     21
                      A                      A                      A
 Frequencies --    311.8194               325.9073               376.3159
 Red. masses --      2.0521                 2.2587                 2.2359
 Frc consts  --      0.1176                 0.1414                 0.1866
 IR Inten    --      1.8501                 0.3682                 1.4326

                     22                     23                     24
                      A                      A                      A
 Frequencies --    402.9970               412.6753               429.4829
 Red. masses --      3.0878                 2.6131                 1.9026
 Frc consts  --      0.2955                 0.2622                 0.2068
 IR Inten    --      2.9945                 1.6152                 0.4593

                     25                     26                     27
                      A                      A                      A
 Frequencies --    480.8398               502.9682               573.2242
 Red. masses --      3.8970                 2.9029                 3.0568
 Frc consts  --      0.5309                 0.4327                 0.5918
 IR Inten    --      0.6297                 1.7031                 0.1347

                     28                     29                     30
                      A                      A                      A
 Frequencies --    627.7290               643.4667               705.3913
 Red. masses --      3.1885                 4.1518                 3.2496
 Frc consts  --      0.7403                 1.0128                 0.9527
 IR Inten    --      0.2082                 3.1401                 8.3925

                     31                     32                     33
                      A                      A                      A
 Frequencies --    738.6877               767.0944               779.1255
 Red. masses --      3.1011                 2.1749                 2.3262
 Frc consts  --      0.9970                 0.7540                 0.8320
 IR Inten    --      7.7583                43.4689                17.1863

                     34                     35                     36
                      A                      A                      A
 Frequencies --    799.0332               829.6634               854.2361
 Red. masses --      1.4585                 3.0224                 1.5906
 Frc consts  --      0.5486                 1.2258                 0.6839
 IR Inten    --     26.5841                35.4156                35.6723

                     37                     38                     39
                      A                      A                      A
 Frequencies --    896.8036               917.9329               939.1738
 Red. masses --      2.5778                 1.7926                 1.6324
 Frc consts  --      1.2215                 0.8899                 0.8483
 IR Inten    --      0.6393                 2.5516                 2.9452

                     40                     41                     42
                      A                      A                      A
 Frequencies --    943.8062               946.3372               976.2536
 Red. masses --      1.1557                 1.3122                 1.5344
 Frc consts  --      0.6066                 0.6924                 0.8616
 IR Inten    --      1.2785                 2.1194                 0.0958

                     43                     44                     45
                      A                      A                      A
 Frequencies --    981.0656              1024.4117              1026.1480
 Red. masses --      1.4349                 2.4174                 2.0927
 Frc consts  --      0.8137                 1.4947                 1.2983
 IR Inten    --      0.1010                 8.6767                 4.0885

                     46                     47                     48
                      A                      A                      A
 Frequencies --   1039.1690              1051.7870              1084.0195
 Red. masses --      1.6569                 1.9137                 2.5906
 Frc consts  --      1.0542                 1.2473                 1.7936
 IR Inten    --      8.2287                18.5885                 4.7519

                     49                     50                     51
                      A                      A                      A
 Frequencies --   1130.6238              1132.7297              1141.0791
 Red. masses --      1.8257                 1.9206                 3.1536
 Frc consts  --      1.3750                 1.4519                 2.4193
 IR Inten    --      3.6619                12.7222                20.4173

                     52                     53                     54
                      A                      A                      A
 Frequencies --   1150.7504              1157.5208              1159.6040
 Red. masses --      1.6438                 1.2978                 1.9862
 Frc consts  --      1.2825                 1.0245                 1.5736
 IR Inten    --      1.1753                 0.7203                13.5366

                     55                     56                     57
                      A                      A                      A
 Frequencies --   1173.8298              1203.9921              1209.0272
 Red. masses --      1.9278                 2.4941                 1.7747
 Frc consts  --      1.5650                 2.1301                 1.5285
 IR Inten    --      5.0487                 1.7244                 2.6178

                     58                     59                     60
                      A                      A                      A
 Frequencies --   1214.0764              1256.6869              1279.3947
 Red. masses --      1.8204                 1.2986                 1.3653
 Frc consts  --      1.5809                 1.2083                 1.3167
 IR Inten    --      4.9297                 2.3894                 0.8240

                     61                     62                     63
                      A                      A                      A
 Frequencies --   1329.9065              1339.0441              1345.6243
 Red. masses --      2.6821                 1.8955                 1.7495
 Frc consts  --      2.7949                 2.0025                 1.8664
 IR Inten    --      8.4734                30.7424                23.6029

                     64                     65                     66
                      A                      A                      A
 Frequencies --   1358.1433              1358.8774              1380.3728
 Red. masses --      1.2313                 1.3348                 1.3163
 Frc consts  --      1.3382                 1.4522                 1.4778
 IR Inten    --      1.2172                 5.3188                 5.4982

                     67                     68                     69
                      A                      A                      A
 Frequencies --   1383.8619              1412.6381              1422.5861
 Red. masses --      1.3619                 1.4701                 1.2344
 Frc consts  --      1.5367                 1.7285                 1.4718
 IR Inten    --      9.1594                 0.7121                 3.1370

                     70                     71                     72
                      A                      A                      A
 Frequencies --   1426.8986              1430.5009              1431.3070
 Red. masses --      1.7537                 1.6431                 1.3465
 Frc consts  --      2.1037                 1.9811                 1.6252
 IR Inten    --      8.4873                 5.3958                 6.3048

                     73                     74                     75
                      A                      A                      A
 Frequencies --   1443.4801              1451.3683              1469.3978
 Red. masses --      1.2823                 1.2332                 1.4691
 Frc consts  --      1.5742                 1.5306                 1.8689
 IR Inten    --      4.0960                 3.0142                 1.3818

                     76                     77                     78
                      A                      A                      A
 Frequencies --   1489.3081              1501.3312              1505.2983
 Red. masses --      3.7947                 1.1016                 1.0885
 Frc consts  --      4.9591                 1.4629                 1.4532
 IR Inten    --     11.4280                 0.3673                 0.6201

                     79                     80                     81
                      A                      A                      A
 Frequencies --   1515.0313              1515.9957              1517.5057
 Red. masses --      1.8849                 1.0885                 1.0456
 Frc consts  --      2.5490                 1.4739                 1.4186
 IR Inten    --      8.2154                 0.2978                 3.7129

                     82                     83                     84
                      A                      A                      A
 Frequencies --   1520.3878              1521.7003              1525.2788
 Red. masses --      1.0912                 1.0675                 1.0544
 Frc consts  --      1.4862                 1.4564                 1.4452
 IR Inten    --      1.6136                 3.4378                 2.8629

                     85                     86                     87
                      A                      A                      A
 Frequencies --   1529.3215              1530.7537              1536.0745
 Red. masses --      1.1349                 1.1375                 1.0630
 Frc consts  --      1.5639                 1.5704                 1.4778
 IR Inten    --     13.8260                24.8848                 5.8473

                     88                     89                     90
                      A                      A                      A
 Frequencies --   1536.9404              1541.0752              1544.3612
 Red. masses --      1.2068                 1.1083                 1.1513
 Frc consts  --      1.6796                 1.5508                 1.6178
 IR Inten    --     11.9765                12.8969                14.2779

                     91                     92                     93
                      A                      A                      A
 Frequencies --   1561.2936              1592.0396              2981.8684
 Red. masses --      1.0720                 5.2232                 1.0688
 Frc consts  --      1.5396                 7.8001                 5.5989
 IR Inten    --     11.5299                15.0231                34.6962

                     94                     95                     96
                      A                      A                      A
 Frequencies --   3002.2944              3028.2319              3030.4865
 Red. masses --      1.0823                 1.0667                 1.0837
 Frc consts  --      5.7480                 5.7632                 5.8636
 IR Inten    --     19.1103                13.4176                22.6211

                     97                     98                     99
                      A                      A                      A
 Frequencies --   3037.0751              3041.1072              3043.9061
 Red. masses --      1.0373                 1.0606                 1.0410
 Frc consts  --      5.6373                 5.7794                 5.6826
 IR Inten    --     29.6261                45.4956                26.4084

                    100                    101                    102
                      A                      A                      A
 Frequencies --   3044.4129              3053.9173              3058.3406
 Red. masses --      1.0529                 1.0359                 1.0521
 Frc consts  --      5.7496                 5.6924                 5.7979
 IR Inten    --     53.3476                36.5054                14.7337

                    103                    104                    105
                      A                      A                      A
 Frequencies --   3063.7402              3076.9005              3100.1332
 Red. masses --      1.0443                 1.1019                 1.1015
 Frc consts  --      5.7752                 6.1464                 6.2373
 IR Inten    --     74.8968                30.5748                 5.5125

                    106                    107                    108
                      A                      A                      A
 Frequencies --   3101.4170              3105.7475              3112.0650
 Red. masses --      1.1051                 1.1011                 1.1024
 Frc consts  --      6.2626                 6.2578                 6.2904
 IR Inten    --     17.9363                63.4507                52.5816

                    109                    110                    111
                      A                      A                      A
 Frequencies --   3112.5858              3118.5301              3119.5319
 Red. masses --      1.1025                 1.1014                 1.1022
 Frc consts  --      6.2932                 6.3109                 6.3197
 IR Inten    --     24.5900                17.2410                56.1514

                    112                    113                    114
                      A                      A                      A
 Frequencies --   3121.0229              3122.4911              3135.0644
 Red. masses --      1.1029                 1.1046                 1.1018
 Frc consts  --      6.3294                 6.3457                 6.3802
 IR Inten    --     22.4407                20.1462                31.2253

                    115                    116                    117
                      A                      A                      A
 Frequencies --   3187.3260              3252.1375              3496.4132
 Red. masses --      1.1003                 1.0964                 1.0730
 Frc consts  --      6.5858                 6.8324                 7.7289
 IR Inten    --      2.4099                 3.2591                 0.9289

 - Thermochemistry -
 -------------------
 Temperature   298.150 Kelvin.  Pressure   1.00000 Atm.
 Atom     1 has atomic number  6 and mass  12.00000

 Molecular mass:   223.20485 amu.
 Principal axes and moments of inertia in atomic units:
                           1         2         3
     Eigenvalues --  2609.227625792.695207411.57047
           X            1.00000  -0.00042  -0.00145
           Y            0.00043   0.99996   0.00900
           Z            0.00145  -0.00900   0.99996
 This molecule is an asymmetric top.
 Rotational symmetry number  1.
 Warning -- assumption of classical behavior for rotation
           may cause significant error
 Rotational temperatures (Kelvin)      0.03320     0.01495     0.01169
 Rotational constants (GHZ):           0.69168     0.31155     0.24350
 Zero-point vibrational energy     980676.5 (Joules/Mol)
                                  234.38731 (Kcal/Mol)
 Warning -- explicit consideration of  27 degrees of freedom as
           vibrations may cause significant error
 Vibrational temperatures:     17.95    33.97    47.86    75.41    84.01
          (Kelvin)            113.65   140.10   186.55   233.62   266.75
                              294.06   320.99   333.66   347.48   361.86
                              385.21   418.06   432.10   448.64   468.91
                              541.43   579.82   593.75   617.93   691.82
                              723.66   824.74   903.16   925.81  1014.90
                             1062.81  1103.68  1120.99  1149.63  1193.70
                             1229.06  1290.30  1320.70  1351.26  1357.93
                             1361.57  1404.61  1411.53  1473.90  1476.40
                             1495.13  1513.29  1559.66  1626.72  1629.75
                             1641.76  1655.67  1665.41  1668.41  1688.88
                             1732.28  1739.52  1746.79  1808.09  1840.76
                             1913.44  1926.59  1936.05  1954.07  1955.12
                             1986.05  1991.07  2032.47  2046.78  2052.99
                             2058.17  2059.33  2076.85  2088.20  2114.14
                             2142.78  2160.08  2165.79  2179.79  2181.18
                             2183.35  2187.50  2189.39  2194.54  2200.35
                             2202.41  2210.07  2211.31  2217.26  2221.99
                             2246.35  2290.59  4290.24  4319.63  4356.95
                             4360.19  4369.67  4375.47  4379.50  4380.23
                             4393.91  4400.27  4408.04  4426.97  4460.40
                             4462.25  4468.48  4477.57  4478.32  4486.87
                             4488.31  4490.46  4492.57  4510.66  4585.85
                             4679.10  5030.56

 Zero-point correction=                           0.373520 (Hartree/Particle)
 Thermal correction to Energy=                    0.392377
 Thermal correction to Enthalpy=                  0.393321
 Thermal correction to Gibbs Free Energy=         0.324023
 Sum of electronic and zero-point Energies=           -674.381483
 Sum of electronic and thermal Energies=              -674.362626
 Sum of electronic and thermal Enthalpies=            -674.361682
 Sum of electronic and thermal Free Energies=         -674.430980

                     E (Thermal)             CV                S
                      KCal/Mol        Cal/Mol-Kelvin    Cal/Mol-Kelvin
 Total                  246.220             69.103            145.851
 Electronic               0.000              0.000              0.000
 Translational            0.889              2.981             42.111
 Rotational               0.889              2.981             33.082
 Vibrational            244.443             63.142             70.658
 Vibration     1          0.593              1.987              7.572
 Vibration     2          0.593              1.985              6.305
 Vibration     3          0.594              1.983              5.625
 Vibration     4          0.596              1.977              4.724
 Vibration     5          0.596              1.974              4.511
 Vibration     6          0.600              1.963              3.916
 Vibration     7          0.603              1.951              3.506
 Vibration     8          0.612              1.924              2.951
 Vibration     9          0.622              1.889              2.522
 Vibration    10          0.631              1.860              2.273
 Vibration    11          0.640              1.834              2.093
 Vibration    12          0.649              1.806              1.934
 Vibration    13          0.653              1.792              1.864
 Vibration    14          0.658              1.777              1.792
 Vibration    15          0.663              1.760              1.720
 Vibration    16          0.673              1.732              1.611
 Vibration    17          0.687              1.691              1.471
 Vibration    18          0.693              1.673              1.415
 Vibration    19          0.700              1.651              1.353
 Vibration    20          0.710              1.624              1.280
 Vibration    21          0.747              1.521              1.054
 Vibration    22          0.768              1.464              0.952
 Vibration    23          0.776              1.443              0.917
 Vibration    24          0.791              1.406              0.860
 Vibration    25          0.837              1.293              0.708
 Vibration    26          0.858              1.243              0.651
 Vibration    27          0.929              1.089              0.498

 Optimization completed.
    -- Stationary point found.
 Normal termination of Gaussian 16 at Fri Dec 11 01:33:45 2020.

 ----------------------------------------------------------------------
 # B3LYP/6-311++G(d,p) empiricaldispersion=gd3bj scf=xqc pop=npa geom=c
 heck
 ----------------------------------------------------------------------

 ---------------------------------------
 CID_122168830_JID_6867_Energie_neutraal
 ---------------------------------------
 Structure from the checkpoint file:  "JID_6867.chk"
 Charge =  0 Multiplicity = 1

 SCF Done:  E(RB3LYP) =  -674.941067483     A.U. after   14 cycles
 Normal termination of Gaussian 16 at Fri Dec 11 01:41:24 2020.

 ----------------------------------------------------------------------
 # B3LYP/6-311++G(d,p) empiricaldispersion=gd3bj scf=xqc pop=npa geom=c
 heck
 ----------------------------------------------------------------------

 -------------------------------------
 CID_122168830_JID_6867_Energie_kation
 -------------------------------------
 Structure from the checkpoint file:  "JID_6867.chk"
 Charge =  1 Multiplicity = 2

 SCF Done:  E(UB3LYP) =  -674.644687840     A.U. after   32 cycles
 Normal termination of Gaussian 16 at Fri Dec 11 02:05:37 2020.
 Gaussian 16:  ES64L-G16RevA.03 25-Dec-2016

 ----------------------------------------------------------------------
 # B3LYP/6-311++G(d,p) empiricaldispersion=gd3bj scf=xqc pop=npa geom=c
 heck
 ----------------------------------------------------------------------

 ------------------------------------
 CID_122168830_JID_6867_Energie_anion
 ------------------------------------
 Structure from the checkpoint file:  "JID_6867.chk"
 Charge = -1 Multiplicity = 2

                         Standard orientation:
 ---------------------------------------------------------------------
 Center     Atomic      Atomic             Coordinates (Angstroms)
 Number     Number       Type             X           Y           Z
 ---------------------------------------------------------------------
      1          6           0       -1.918333   -1.880485    0.361305
      2          6           0       -3.182883   -1.155544   -0.119620
      3          6           0       -4.431553   -2.010636    0.129441
      4          6           0       -3.357582    0.229208    0.536383
      5          6           0       -2.154034    1.165011    0.419624
      6          7           0       -1.862411    1.499132   -0.976180
      7          6           0       -0.565895    2.166190   -1.156401
      8          6           0        0.619649    1.353285   -0.707513
      9          6           0        1.180064    0.214037   -1.267931
     10          6           0        2.182327   -0.205526   -0.362966
     11          7           0        2.245546    0.617358    0.687942
     12          7           0        1.286143    1.552329    0.466447
     13          6           0        1.115461    2.625042    1.426734
     14          6           0        3.054850   -1.431763   -0.446026
     15          6           0        4.467997   -1.168578    0.091181
     16          6           0        2.390723   -2.607564    0.295797
     17          1           0       -1.925669   -1.992807    1.453210
     18          1           0       -1.002976   -1.345469    0.086924
     19          1           0       -1.858927   -2.884646   -0.074537
     20          1           0       -3.100648   -1.015362   -1.208504
     21          1           0       -4.557049   -2.209188    1.201625
     22          1           0       -5.338013   -1.506080   -0.224962
     23          1           0       -4.359924   -2.977177   -0.382313
     24          1           0       -4.236371    0.722032    0.101252
     25          1           0       -3.570123    0.082792    1.604852
     26          1           0       -2.374032    2.103921    0.946532
     27          1           0       -1.292007    0.708496    0.934861
     28          1           0       -1.839492    0.636184   -1.516469
     29          1           0       -0.459674    2.402055   -2.220805
     30          1           0       -0.599476    3.123391   -0.623287
     31          1           0        0.903798   -0.248523   -2.206088
     32          1           0        0.095872    2.637540    1.823727
     33          1           0        1.817551    2.434661    2.237817
     34          1           0        1.337491    3.598744    0.977106
     35          1           0        3.130410   -1.703842   -1.507862
     36          1           0        4.426174   -0.865516    1.141788
     37          1           0        5.084302   -2.071533    0.013630
     38          1           0        4.959196   -0.364896   -0.467296
     39          1           0        1.389188   -2.810343   -0.099360
     40          1           0        2.990760   -3.520278    0.199518
     41          1           0        2.289934   -2.371953    1.361136
 ---------------------------------------------------------------------

 SCF Done:  E(UB3LYP) =  -674.926799010     A.U. after   33 cycles
 SCF Done:  E(UB3LYP) =  -674.926799010     a.u. after    1 cycles

 The electronic state is 2-A.
 Alpha  occ. eigenvalues --  -14.29078 -14.22526 -14.20792 -10.11301 -10.11297
 Alpha  occ. eigenvalues --  -10.11089 -10.09435 -10.09402 -10.08838 -10.08386
 Alpha  occ. eigenvalues --  -10.07175 -10.06900 -10.06670 -10.06612 -10.06423
 Alpha  occ. eigenvalues --  -10.06226  -0.94949  -0.81925  -0.75644  -0.71935
 Alpha  occ. eigenvalues --   -0.69546  -0.69418  -0.63775  -0.60150  -0.59330
 Alpha  occ. eigenvalues --   -0.59196  -0.57704  -0.53048  -0.51922  -0.48956
 Alpha  occ. eigenvalues --   -0.46190  -0.43923  -0.42045  -0.39479  -0.38509
 Alpha  occ. eigenvalues --   -0.37704  -0.36524  -0.35613  -0.35197  -0.34752
 Alpha  occ. eigenvalues --   -0.33979  -0.33158  -0.32190  -0.31581  -0.30579
 Alpha  occ. eigenvalues --   -0.29659  -0.29581  -0.29039  -0.28904  -0.28472
 Alpha  occ. eigenvalues --   -0.27269  -0.26638  -0.25184  -0.25016  -0.24538
 Alpha  occ. eigenvalues --   -0.23456  -0.23329  -0.22645  -0.19477  -0.15566
 Alpha  occ. eigenvalues --   -0.14667  -0.13598   0.04185
 Alpha virt. eigenvalues --    0.05851   0.06233   0.06825   0.07896   0.08065
 Alpha virt. eigenvalues --    0.08652   0.08758   0.08928   0.09576   0.09931
 Alpha virt. eigenvalues --    0.10411   0.10992   0.11401   0.11489   0.11788

  Beta  occ. eigenvalues --  -14.29075 -14.22517 -14.20785 -10.11283 -10.11254
  Beta  occ. eigenvalues --  -10.11089 -10.09417 -10.09402 -10.08831 -10.08379
  Beta  occ. eigenvalues --  -10.07162 -10.06879 -10.06655 -10.06602 -10.06411
  Beta  occ. eigenvalues --  -10.06205  -0.94940  -0.81908  -0.75629  -0.71912
  Beta  occ. eigenvalues --   -0.69529  -0.69397  -0.63745  -0.60105  -0.59291
  Beta  occ. eigenvalues --   -0.59166  -0.57665  -0.53005  -0.51889  -0.48920
  Beta  occ. eigenvalues --   -0.46143  -0.43901  -0.42009  -0.39450  -0.38481
  Beta  occ. eigenvalues --   -0.37676  -0.36499  -0.35589  -0.35166  -0.34719
  Beta  occ. eigenvalues --   -0.33943  -0.33134  -0.32159  -0.31557  -0.30545
  Beta  occ. eigenvalues --   -0.29637  -0.29563  -0.29011  -0.28881  -0.28447
  Beta  occ. eigenvalues --   -0.27245  -0.26607  -0.25166  -0.24998  -0.24519
  Beta  occ. eigenvalues --   -0.23424  -0.23294  -0.22616  -0.19459  -0.15552
  Beta  occ. eigenvalues --   -0.14653  -0.13586
  Beta virt. eigenvalues --    0.06058   0.06611   0.06997   0.07303   0.08213
  Beta virt. eigenvalues --    0.08415   0.08905   0.09008   0.09296   0.09901
  Beta virt. eigenvalues --    0.10087   0.10576   0.11412   0.11543   0.11691

 Mulliken charges and spin densities:
               1          2
     1  C   -0.158753  -0.503762
     2  C   -0.900233   1.445539
     3  C    0.322731  -1.038769
     4  C    0.775203  -1.569528
     5  C   -0.180179   0.034013
     6  N    0.182487  -0.060323
     7  C   -0.044097  -0.876823
     8  C    0.469444  -0.219847
     9  C   -0.304846  -0.028659
    10  C    0.670947  -0.871574
    11  N   -0.096562   0.090108
    12  N    0.139087   0.116847
    13  C    1.071781  -1.369510
    14  C   -1.241956   1.518818
    15  C   -0.167615  -0.481279
    16  C   -0.175160  -0.446942
    17  H   -0.082012   0.242668
    18  H    0.604287  -0.475678
    19  H   -0.090488   0.225294
    20  H   -0.204052   0.350079
    21  H    0.056681   0.074774
    22  H   -0.087699   0.222072
    23  H   -0.186342   0.322466
    24  H    0.149490   0.007095
    25  H   -0.093362   0.246242
    26  H   -0.410116   0.608959
    27  H    0.190974  -0.083125
    28  H    0.302023  -0.089501
    29  H   -0.265901   0.464537
    30  H   -0.114667   0.277859
    31  H   -0.374154   0.550548
    32  H   -0.324993   0.502645
    33  H    0.015919   0.153647
    34  H   -0.488004   0.667188
    35  H   -0.064955   0.234879
    36  H    0.131507   0.024402
    37  H   -0.054421   0.201583
    38  H    0.061878   0.074267
    39  H    0.043215   0.084437
    40  H   -0.134566   0.279449
    41  H    0.057478   0.094905
 Sum of Mulliken charges =  -1.00000   1.00000

 Dipole moment (field-independent basis, Debye):
    X=              1.0593    Y=             -1.9788    Z=             -0.4922  Tot=              2.2978
 Quadrupole moment (field-independent basis, Debye-Ang):
   XX=           -173.1332   YY=           -168.5697   ZZ=           -141.0491
   XY=             -1.0237   XZ=             -0.1268   YZ=             -6.4567

 Summary of Natural Population Analysis:

                                       Natural Population
                Natural  -----------------------------------------------
    Atom  No    Charge         Core      Valence    Rydberg      Total
 -----------------------------------------------------------------------
      C    1   -0.29012      0.99964     2.28342    0.00706     3.29012
      C    2   -0.11630      0.99962     2.10745    0.00923     3.11630
      C    3   -0.27982      0.99965     2.27526    0.00491     3.27982
      C    4   -0.18938      0.99961     2.18068    0.00909     3.18938
      C    5   -0.09042      0.99962     2.08012    0.01068     3.09042
      N    6   -0.33203      0.99975     2.82126    0.01101     3.83203
      C    7   -0.10515      0.99959     2.09390    0.01166     3.10515
      C    8    0.07815      0.99951     1.90977    0.01257     2.92185
      C    9   -0.16027      0.99944     2.15194    0.00889     3.16027
      C   10    0.07904      0.99957     1.90572    0.01566     2.92096
      N   11   -0.16403      0.99969     2.65335    0.01099     3.66403
      N   12   -0.10922      0.99962     2.59656    0.01304     3.60922
      C   13   -0.17611      0.99963     2.16833    0.00815     3.17611
      C   14   -0.12463      0.99958     2.11486    0.01019     3.12463
      C   15   -0.28061      0.99966     2.27595    0.00500     3.28061
      C   16   -0.27737      0.99965     2.27317    0.00455     3.27737
      H   17    0.09614      0.00000     0.40291    0.00095     0.40386
      H   18    0.10433      0.00000     0.39409    0.00158     0.39567
      H   19    0.09958      0.00000     0.39949    0.00094     0.40042
      H   20    0.08913      0.00000     0.40907    0.00181     0.41087
      H   21    0.09523      0.00000     0.40373    0.00104     0.40477
      H   22    0.09782      0.00000     0.40113    0.00105     0.40218
      H   23    0.09863      0.00000     0.40035    0.00102     0.40137
      H   24    0.09930      0.00000     0.39946    0.00125     0.40070
      H   25    0.09765      0.00000     0.40132    0.00103     0.40235
      H   26    0.09326      0.00000     0.40521    0.00153     0.40674
      H   27    0.08252      0.00000     0.41470    0.00278     0.41748
      H   28    0.16924      0.00000     0.32642    0.00434     0.33076
      H   29    0.10386      0.00000     0.39509    0.00105     0.39614
      H   30    0.10122      0.00000     0.39708    0.00170     0.39878
      H   31    0.10827      0.00000     0.39044    0.00129     0.39173
      H   32    0.10126      0.00000     0.39696    0.00178     0.39874
      H   33    0.11085      0.00000     0.38774    0.00141     0.38915
      H   34    0.09963      0.00000     0.39859    0.00178     0.40037
      H   35    0.09677      0.00000     0.40137    0.00186     0.40323
      H   36    0.10380      0.00000     0.39509    0.00111     0.39620
      H   37    0.09381      0.00000     0.40532    0.00087     0.40619
      H   38    0.10008      0.00000     0.39903    0.00089     0.39992
      H   39    0.10189      0.00000     0.39690    0.00121     0.39811
      H   40    0.09442      0.00000     0.40463    0.00095     0.40558
      H   41    0.09954      0.00000     0.39931    0.00115     0.40046
 =======================================================================
   * Total *   -0.00000     15.99383    45.81714    0.18903    62.00000

 Normal termination of Gaussian 16 at Fri Dec 11 02:30:36 2020.
