 Gaussian 16, Revision A.03,

 -----------------------------------------------------------
 # opt freq B3LYP/6-31G(d) empiricaldispersion=gd3bj scf=xqc
 -----------------------------------------------------------

 --------------------------------
 CID_102657982_JID_10759_neutraal
 --------------------------------
 Symbolic Z-matrix:
 Charge =  0 Multiplicity = 1

 SCF Done:  E(RB3LYP) =  -1027.76872735     A.U. after   15 cycles
 SCF Done:  E(RB3LYP) =  -1027.77914789     A.U. after   13 cycles
 SCF Done:  E(RB3LYP) =  -1027.78032347     A.U. after   12 cycles
 SCF Done:  E(RB3LYP) =  -1027.78026943     A.U. after   12 cycles
 SCF Done:  E(RB3LYP) =  -1027.78103445     A.U. after   12 cycles
 SCF Done:  E(RB3LYP) =  -1027.78144089     A.U. after   11 cycles
 SCF Done:  E(RB3LYP) =  -1027.78190451     A.U. after   13 cycles
 SCF Done:  E(RB3LYP) =  -1027.78229951     A.U. after   12 cycles
 SCF Done:  E(RB3LYP) =  -1027.78276203     A.U. after   13 cycles
 SCF Done:  E(RB3LYP) =  -1027.78298563     A.U. after   14 cycles
 SCF Done:  E(RB3LYP) =  -1027.78342482     A.U. after    9 cycles
 SCF Done:  E(RB3LYP) =  -1027.78342562     A.U. after   10 cycles
 SCF Done:  E(RB3LYP) =  -1027.78342585     A.U. after    8 cycles
 SCF Done:  E(RB3LYP) =  -1027.78342596     A.U. after    7 cycles
 SCF Done:  E(RB3LYP) =  -1027.78342600     A.U. after    7 cycles
 Optimization completed.
    -- Stationary point found.
 Normal termination of Gaussian 16 at Sun Dec 13 20:52:29 2020.

 --------------------------------------------------------------------
 #N Geom=AllCheck Guess=TCheck SCRF=Check GenChk RB3LYP/6-31G(d) Freq
 --------------------------------------------------------------------

 Structure from the checkpoint file:  "JID_10759.chk"
 --------------------------------
 CID_102657982_JID_10759_neutraal
 --------------------------------
 Charge =  0 Multiplicity = 1

 SCF Done:  E(RB3LYP) =  -1027.78342600     A.U. after    1 cycles

  Exact polarizability: 212.378   2.698 148.171  -1.737  10.570 107.329
 Approx polarizability: 249.122   1.924 244.548  -7.093  24.779 159.378

                      1                      2                      3
                      A                      A                      A
 Frequencies --     14.7769                28.7789                33.9933
 Red. masses --      5.2550                 5.8567                 5.6506
 Frc consts  --      0.0007                 0.0029                 0.0038
 IR Inten    --      0.1296                 0.8312                 1.6173

                      4                      5                      6
                      A                      A                      A
 Frequencies --     46.0203                53.6972                68.8367
 Red. masses --      3.8779                 4.8204                 4.7806
 Frc consts  --      0.0048                 0.0082                 0.0133
 IR Inten    --      0.4772                 0.8068                 0.0622

                      7                      8                      9
                      A                      A                      A
 Frequencies --     78.5701                99.4024               110.6634
 Red. masses --      5.2969                 4.6221                 4.8120
 Frc consts  --      0.0193                 0.0269                 0.0347
 IR Inten    --      3.3593                 1.4555                 0.4293

                     10                     11                     12
                      A                      A                      A
 Frequencies --    122.7760               151.2949               172.7450
 Red. masses --      5.4591                 3.6700                 6.1617
 Frc consts  --      0.0485                 0.0495                 0.1083
 IR Inten    --      3.2759                 3.4942                 1.1610

                     13                     14                     15
                      A                      A                      A
 Frequencies --    222.2722               234.6784               261.5930
 Red. masses --      2.6329                 1.5402                 2.3126
 Frc consts  --      0.0766                 0.0500                 0.0932
 IR Inten    --      3.1260                 7.1990                 1.0672

                     16                     17                     18
                      A                      A                      A
 Frequencies --    283.9575               309.5831               334.0677
 Red. masses --      1.3065                 4.8331                 2.8599
 Frc consts  --      0.0621                 0.2729                 0.1880
 IR Inten    --      0.9333                 0.4921                13.6470

                     19                     20                     21
                      A                      A                      A
 Frequencies --    337.3622               347.4127               374.3121
 Red. masses --      1.7877                 6.0584                 4.8832
 Frc consts  --      0.1199                 0.4308                 0.4031
 IR Inten    --      0.3328                 1.4693                 6.5913

                     22                     23                     24
                      A                      A                      A
 Frequencies --    392.7460               417.2030               457.2241
 Red. masses --      2.4779                 5.8116                 2.9816
 Frc consts  --      0.2252                 0.5960                 0.3672
 IR Inten    --      5.3700                 4.4550                18.7978

                     25                     26                     27
                      A                      A                      A
 Frequencies --    482.4479               503.3677               516.8892
 Red. masses --      3.2399                 3.1419                 3.2025
 Frc consts  --      0.4443                 0.4690                 0.5041
 IR Inten    --      3.2570                12.0043                 8.4894

                     28                     29                     30
                      A                      A                      A
 Frequencies --    555.9826               601.5666               609.6650
 Red. masses --      5.1588                 4.3230                 4.1317
 Frc consts  --      0.9395                 0.9217                 0.9048
 IR Inten    --     19.2818                 4.3163                 0.1866

                     31                     32                     33
                      A                      A                      A
 Frequencies --    632.5041               689.9334               718.6992
 Red. masses --      2.6702                 2.3450                 2.3169
 Frc consts  --      0.6294                 0.6577                 0.7051
 IR Inten    --     64.7870                34.6861                66.8338

                     34                     35                     36
                      A                      A                      A
 Frequencies --    719.9077               750.4085               782.9457
 Red. masses --      2.6235                 3.0244                 1.7918
 Frc consts  --      0.8011                 1.0034                 0.6471
 IR Inten    --     69.7629                 2.9245                 9.1390

                     37                     38                     39
                      A                      A                      A
 Frequencies --    789.6884               849.6158               862.2479
 Red. masses --      4.4242                 2.1436                 4.5221
 Frc consts  --      1.6256                 0.9117                 1.9809
 IR Inten    --      1.3540                16.9133                 5.0768

                     40                     41                     42
                      A                      A                      A
 Frequencies --    870.8745               887.2768               898.5386
 Red. masses --      4.0511                 2.8431                 2.3064
 Frc consts  --      1.8102                 1.3188                 1.0971
 IR Inten    --      6.7058                 0.7449                25.9485

                     43                     44                     45
                      A                      A                      A
 Frequencies --    905.3384               943.8207               966.0366
 Red. masses --      1.7069                 4.7250                 1.6569
 Frc consts  --      0.8243                 2.4799                 0.9110
 IR Inten    --      1.4691                16.0029                 2.9718

                     46                     47                     48
                      A                      A                      A
 Frequencies --    985.0178               993.0191              1050.2177
 Red. masses --      1.6666                 4.8065                 2.3000
 Frc consts  --      0.9527                 2.7925                 1.4947
 IR Inten    --      0.9938                24.6007                12.9961

                     49                     50                     51
                      A                      A                      A
 Frequencies --   1054.4411              1072.7691              1118.1020
 Red. masses --      3.9564                 2.9860                 5.9489
 Frc consts  --      2.5917                 2.0247                 4.3818
 IR Inten    --     24.4213                 8.2705               116.4632

                     52                     53                     54
                      A                      A                      A
 Frequencies --   1131.3599              1132.2188              1151.6104
 Red. masses --      4.3061                 2.0914                 2.1016
 Frc consts  --      3.2474                 1.5796                 1.6421
 IR Inten    --    122.1250                15.3370               105.2019

                     55                     56                     57
                      A                      A                      A
 Frequencies --   1158.6937              1173.8574              1183.1279
 Red. masses --      1.4263                 2.2387                 1.8963
 Frc consts  --      1.1282                 1.8175                 1.5639
 IR Inten    --     87.2557                60.5801                43.7565

                     58                     59                     60
                      A                      A                      A
 Frequencies --   1196.4462              1212.7629              1215.2595
 Red. masses --      2.3991                 2.1816                 1.9379
 Frc consts  --      2.0234                 1.8905                 1.6863
 IR Inten    --    163.6674               122.2676                36.2897

                     61                     62                     63
                      A                      A                      A
 Frequencies --   1240.1916              1274.8482              1299.4482
 Red. masses --      2.7375                 1.8556                 2.3200
 Frc consts  --      2.4808                 1.7768                 2.3081
 IR Inten    --    164.1984                51.9569                75.4801

                     64                     65                     66
                      A                      A                      A
 Frequencies --   1304.3487              1325.6510              1344.3990
 Red. masses --      1.5907                 1.2938                 1.1387
 Frc consts  --      1.5945                 1.3396                 1.2126
 IR Inten    --     14.4041                32.8651                14.5311

                     67                     68                     69
                      A                      A                      A
 Frequencies --   1369.4805              1371.1139              1390.7441
 Red. masses --      3.5570                 2.0645                 1.7215
 Frc consts  --      3.9305                 2.2867                 1.9618
 IR Inten    --    135.4110                32.8735                37.5346

                     70                     71                     72
                      A                      A                      A
 Frequencies --   1408.2781              1417.3446              1423.7709
 Red. masses --      1.8282                 3.9019                 1.6691
 Frc consts  --      2.1362                 4.6182                 1.9934
 IR Inten    --     32.3212               154.1097                54.7992

                     73                     74                     75
                      A                      A                      A
 Frequencies --   1442.3517              1444.6051              1496.2854
 Red. masses --      1.2807                 1.3950                 1.0796
 Frc consts  --      1.5698                 1.7152                 1.4241
 IR Inten    --     13.4711                12.6596                 2.6576

                     76                     77                     78
                      A                      A                      A
 Frequencies --   1515.8193              1519.0660              1519.2137
 Red. masses --      1.0525                 1.0824                 1.0618
 Frc consts  --      1.4248                 1.4717                 1.4439
 IR Inten    --     10.5051                 6.5748                 4.2089

                     79                     80                     81
                      A                      A                      A
 Frequencies --   1525.6836              1532.4570              1538.6607
 Red. masses --      1.0721                 1.0561                 1.0576
 Frc consts  --      1.4703                 1.4613                 1.4753
 IR Inten    --      0.7527                 2.4057                 5.8303

                     82                     83                     84
                      A                      A                      A
 Frequencies --   1540.7565              1620.6018              1688.1070
 Red. masses --      1.1198                 7.3332                 9.9572
 Frc consts  --      1.5662                11.3473                16.7181
 IR Inten    --     61.1471                44.9964               776.6095

                     85                     86                     87
                      A                      A                      A
 Frequencies --   1790.1734              1847.6763              3053.6769
 Red. masses --     11.6030                 9.9100                 1.0571
 Frc consts  --     21.9084                19.9332                 5.8080
 IR Inten    --    229.6914               251.2782                11.1147

                     88                     89                     90
                      A                      A                      A
 Frequencies --   3058.5006              3061.3192              3065.3071
 Red. masses --      1.0377                 1.0363                 1.0568
 Frc consts  --      5.7194                 5.7221                 5.8505
 IR Inten    --      6.0526                19.1370                46.0494

                     91                     92                     93
                      A                      A                      A
 Frequencies --   3071.1867              3093.8666              3099.7356
 Red. masses --      1.0596                 1.0589                 1.1063
 Frc consts  --      5.8883                 5.9718                 6.2629
 IR Inten    --     31.7597                27.5648                14.5061

                     94                     95                     96
                      A                      A                      A
 Frequencies --   3119.0111              3124.0718              3127.9116
 Red. masses --      1.1102                 1.1017                 1.1012
 Frc consts  --      6.3633                 6.3352                 6.3476
 IR Inten    --     11.6684                25.5299                30.1940

                     97                     98                     99
                      A                      A                      A
 Frequencies --   3133.3687              3139.5003              3147.4470
 Red. masses --      1.1075                 1.1049                 1.1033
 Frc consts  --      6.4063                 6.4163                 6.4395
 IR Inten    --     24.0015                 6.5557                13.9332

                    100                    101                    102
                      A                      A                      A
 Frequencies --   3159.8091              3334.2734              3679.4637
 Red. masses --      1.1072                 1.1002                 1.0640
 Frc consts  --      6.5133                 7.2065                 8.4869
 IR Inten    --     28.2876                 3.4825                57.6018

 - Thermochemistry -
 -------------------
 Temperature   298.150 Kelvin.  Pressure   1.00000 Atm.
 Atom     1 has atomic number  6 and mass  12.00000

 Molecular mass:   284.10084 amu.
 Principal axes and moments of inertia in atomic units:
                           1         2         3
     Eigenvalues --  2083.31439********************
           X            0.99993   0.01196  -0.00082
           Y           -0.01196   0.99993  -0.00017
           Z            0.00082   0.00018   1.00000
 This molecule is an asymmetric top.
 Rotational symmetry number  1.
 Warning -- assumption of classical behavior for rotation
           may cause significant error
 Rotational temperatures (Kelvin)      0.04158     0.00539     0.00499
 Rotational constants (GHZ):           0.86628     0.11224     0.10404
 Zero-point vibrational energy     753528.6 (Joules/Mol)
                                  180.09767 (Kcal/Mol)
 Warning -- explicit consideration of  30 degrees of freedom as
           vibrations may cause significant error
 Vibrational temperatures:     21.26    41.41    48.91    66.21    77.26
          (Kelvin)             99.04   113.04   143.02   159.22   176.65
                              217.68   248.54   319.80   337.65   376.37
                              408.55   445.42   480.65   485.39   499.85
                              538.55   565.07   600.26   657.84   694.13
                              724.23   743.69   799.93   865.52   877.17
                              910.03   992.66  1034.05  1035.79  1079.67
                             1126.48  1136.19  1222.41  1240.58  1252.99
                             1276.59  1292.80  1302.58  1357.95  1389.91
                             1417.22  1428.73  1511.03  1517.11  1543.48
                             1608.70  1627.77  1629.01  1656.91  1667.10
                             1688.92  1702.26  1721.42  1744.90  1748.49
                             1784.36  1834.22  1869.62  1876.67  1907.32
                             1934.29  1970.38  1972.73  2000.97  2026.20
                             2039.24  2048.49  2075.22  2078.46  2152.82
                             2180.93  2185.60  2185.81  2195.12  2204.86
                             2213.79  2216.80  2331.68  2428.81  2575.66
                             2658.39  4393.56  4400.50  4404.56  4410.29
                             4418.75  4451.38  4459.83  4487.56  4494.84
                             4500.37  4508.22  4517.04  4528.47  4546.26
                             4797.28  5293.93

 Zero-point correction=                           0.287004 (Hartree/Particle)
 Thermal correction to Energy=                    0.306668
 Thermal correction to Enthalpy=                  0.307613
 Thermal correction to Gibbs Free Energy=         0.235219
 Sum of electronic and zero-point Energies=          -1027.496422
 Sum of electronic and thermal Energies=             -1027.476758
 Sum of electronic and thermal Enthalpies=           -1027.475813
 Sum of electronic and thermal Free Energies=        -1027.548207

                     E (Thermal)             CV                S
                      KCal/Mol        Cal/Mol-Kelvin    Cal/Mol-Kelvin
 Total                  192.437             71.529            152.364
 Electronic               0.000              0.000              0.000
 Translational            0.889              2.981             42.830
 Rotational               0.889              2.981             34.718
 Vibrational            190.660             65.568             74.816
 Vibration     1          0.593              1.986              7.235
 Vibration     2          0.593              1.984              5.912
 Vibration     3          0.594              1.983              5.582
 Vibration     4          0.595              1.979              4.981
 Vibration     5          0.596              1.976              4.676
 Vibration     6          0.598              1.969              4.186
 Vibration     7          0.600              1.964              3.926
 Vibration     8          0.604              1.950              3.466
 Vibration     9          0.606              1.941              3.257
 Vibration    10          0.610              1.930              3.056
 Vibration    11          0.619              1.901              2.656
 Vibration    12          0.626              1.876              2.405
 Vibration    13          0.648              1.807              1.941
 Vibration    14          0.654              1.788              1.843
 Vibration    15          0.669              1.743              1.651
 Vibration    16          0.682              1.703              1.510
 Vibration    17          0.699              1.655              1.365
 Vibration    18          0.716              1.607              1.240
 Vibration    19          0.718              1.601              1.225
 Vibration    20          0.725              1.581              1.178
 Vibration    21          0.745              1.525              1.062
 Vibration    22          0.760              1.486              0.990
 Vibration    23          0.780              1.433              0.902
 Vibration    24          0.815              1.345              0.774
 Vibration    25          0.839              1.289              0.703
 Vibration    26          0.859              1.243              0.650
 Vibration    27          0.872              1.213              0.617
 Vibration    28          0.911              1.127              0.532
 Vibration    29          0.960              1.028              0.447
 Vibration    30          0.969              1.011              0.433

 Optimization completed.
    -- Stationary point found.
 Normal termination of Gaussian 16 at Sun Dec 13 21:06:13 2020.

 ----------------------------------------------------------------------
 # B3LYP/6-311++G(d,p) empiricaldispersion=gd3bj scf=xqc pop=npa geom=c
 heck
 ----------------------------------------------------------------------

 ----------------------------------------
 CID_102657982_JID_10759_Energie_neutraal
 ----------------------------------------
 Structure from the checkpoint file:  "JID_10759.chk"
 Charge =  0 Multiplicity = 1

 SCF Done:  E(RB3LYP) =  -1028.08631739     A.U. after   16 cycles
 Normal termination of Gaussian 16 at Sun Dec 13 21:11:59 2020.

 ----------------------------------------------------------------------
 # B3LYP/6-311++G(d,p) empiricaldispersion=gd3bj scf=xqc pop=npa geom=c
 heck
 ----------------------------------------------------------------------

 --------------------------------------
 CID_102657982_JID_10759_Energie_kation
 --------------------------------------
 Structure from the checkpoint file:  "JID_10759.chk"
 Charge =  1 Multiplicity = 2

 SCF Done:  E(UB3LYP) =  -1027.79730619     A.U. after   24 cycles
 Normal termination of Gaussian 16 at Sun Dec 13 21:23:16 2020.
 Gaussian 16:  ES64L-G16RevA.03 25-Dec-2016

 ----------------------------------------------------------------------
 # B3LYP/6-311++G(d,p) empiricaldispersion=gd3bj scf=xqc pop=npa geom=c
 heck
 ----------------------------------------------------------------------

 -------------------------------------
 CID_102657982_JID_10759_Energie_anion
 -------------------------------------
 Structure from the checkpoint file:  "JID_10759.chk"
 Charge = -1 Multiplicity = 2

                         Standard orientation:
 ---------------------------------------------------------------------
 Center     Atomic      Atomic             Coordinates (Angstroms)
 Number     Number       Type             X           Y           Z
 ---------------------------------------------------------------------
      1          6           0       -5.886694   -2.276411    0.897208
      2          6           0       -5.517518   -1.769423   -0.487962
      3          8           0       -4.233305   -1.106350   -0.476280
      4          6           0       -4.239686    0.180572   -0.084984
      5          8           0       -5.236175    0.802425    0.239190
      6          6           0       -2.891726    0.774114   -0.091692
      7          6           0       -2.615734    2.058287    0.256238
      8          8           0       -1.258464    2.243714    0.126912
      9          6           0       -0.796145    1.025594   -0.299926
     10          7           0       -1.712041    0.111317   -0.441831
     11          7           0        0.534029    0.928938   -0.548986
     12          6           0        1.591160    1.603720    0.229145
     13          6           0        2.433302    0.303649    0.168508
     14          6           0        1.232089   -0.365905   -0.576049
     15          6           0        2.793748   -0.309869    1.512760
     16          8           0        3.559147    0.547942   -0.666496
     17          6           0        4.307980   -0.588821   -1.025229
     18          6           0        5.424800   -0.973798   -0.060933
     19          8           0        5.877052   -2.093509    0.023169
     20          8           0        5.896014    0.075599    0.644673
     21          1           0       -5.103299   -2.932748    1.289502
     22          1           0       -6.822850   -2.844265    0.849608
     23          1           0       -6.025955   -1.438186    1.584894
     24          1           0       -5.387504   -2.590867   -1.196078
     25          1           0       -6.270604   -1.074945   -0.868369
     26          1           0       -3.201960    2.897087    0.590657
     27          1           0        2.046136    2.449600   -0.291891
     28          1           0        1.277811    1.906712    1.234495
     29          1           0        0.707533   -1.148487   -0.017074
     30          1           0        1.445579   -0.718864   -1.589372
     31          1           0        3.201487   -1.320608    1.397800
     32          1           0        3.535073    0.309499    2.025313
     33          1           0        1.900612   -0.388029    2.140640
     34          1           0        3.686519   -1.480444   -1.173839
     35          1           0        4.786816   -0.358645   -1.984674
     36          1           0        6.623092   -0.277410    1.192243
 ---------------------------------------------------------------------

 SCF Done:  E(UB3LYP) =  -1028.08460837     A.U. after   33 cycles
 SCF Done:  E(UB3LYP) =  -1028.08460837     a.u. after    1 cycles

 The electronic state is 2-A.
 Alpha  occ. eigenvalues --  -19.09360 -19.08358 -19.05771 -19.05722 -19.03349
 Alpha  occ. eigenvalues --  -18.99014 -14.25218 -14.20109 -10.22305 -10.19030
 Alpha  occ. eigenvalues --  -10.18022 -10.16276 -10.15643 -10.13783 -10.12623
 Alpha  occ. eigenvalues --  -10.12410 -10.11489 -10.09499 -10.08445 -10.08215
 Alpha  occ. eigenvalues --   -1.03351  -1.02780  -0.99703  -0.97457  -0.93887
 Alpha  occ. eigenvalues --   -0.90604  -0.88690  -0.81917  -0.72333  -0.68612
 Alpha  occ. eigenvalues --   -0.66423  -0.65070  -0.62080  -0.60690  -0.57833
 Alpha  occ. eigenvalues --   -0.53744  -0.53154  -0.49540  -0.47661  -0.46644
 Alpha  occ. eigenvalues --   -0.44368  -0.43676  -0.42103  -0.41240  -0.40319
 Alpha  occ. eigenvalues --   -0.40126  -0.38725  -0.38431  -0.38026  -0.36529
 Alpha  occ. eigenvalues --   -0.36040  -0.35001  -0.34520  -0.34059  -0.33374
 Alpha  occ. eigenvalues --   -0.32214  -0.31722  -0.31597  -0.31418  -0.30122
 Alpha  occ. eigenvalues --   -0.29506  -0.29032  -0.27957  -0.27216  -0.24843
 Alpha  occ. eigenvalues --   -0.24290  -0.24206  -0.22872  -0.21804  -0.20368
 Alpha  occ. eigenvalues --   -0.19591  -0.19468  -0.18167  -0.17200  -0.11629
 Alpha  occ. eigenvalues --    0.03668
 Alpha virt. eigenvalues --    0.04898   0.06195   0.06526   0.07147   0.07590
 Alpha virt. eigenvalues --    0.08415   0.08586   0.09223   0.09417   0.10066
 Alpha virt. eigenvalues --    0.10656   0.10926   0.10948   0.11076   0.11965

  Beta  occ. eigenvalues --  -19.09244 -19.08291 -19.05725 -19.05718 -19.03324
  Beta  occ. eigenvalues --  -18.98891 -14.25224 -14.20116 -10.22288 -10.19037
  Beta  occ. eigenvalues --  -10.17835 -10.16276 -10.15616 -10.13784 -10.12614
  Beta  occ. eigenvalues --  -10.12401 -10.11234 -10.09494 -10.08414 -10.08202
  Beta  occ. eigenvalues --   -1.03169  -1.02687  -0.99527  -0.97449  -0.93806
  Beta  occ. eigenvalues --   -0.90402  -0.88677  -0.81877  -0.72277  -0.68539
  Beta  occ. eigenvalues --   -0.66286  -0.64983  -0.62050  -0.60550  -0.57616
  Beta  occ. eigenvalues --   -0.53624  -0.53015  -0.49448  -0.47544  -0.46585
  Beta  occ. eigenvalues --   -0.44300  -0.43624  -0.42046  -0.41191  -0.40254
  Beta  occ. eigenvalues --   -0.40044  -0.38521  -0.38195  -0.37841  -0.36419
  Beta  occ. eigenvalues --   -0.35820  -0.34932  -0.34413  -0.34009  -0.33259
  Beta  occ. eigenvalues --   -0.32154  -0.31616  -0.31535  -0.31332  -0.30028
  Beta  occ. eigenvalues --   -0.29150  -0.29000  -0.27841  -0.27187  -0.24778
  Beta  occ. eigenvalues --   -0.24258  -0.24129  -0.22586  -0.21767  -0.19979
  Beta  occ. eigenvalues --   -0.19450  -0.19254  -0.18102  -0.17082  -0.10986
  Beta virt. eigenvalues --    0.05897   0.06147   0.06924   0.07500   0.07843
  Beta virt. eigenvalues --    0.07978   0.08380   0.08581   0.09305   0.09378
  Beta virt. eigenvalues --    0.10209   0.10606   0.10895   0.10977   0.11349

 Mulliken charges and spin densities:
               1          2
     1  C   -0.137102  -0.216493
     2  C   -0.188569   0.064072
     3  O   -0.011326   0.007066
     4  C   -0.854499   0.286774
     5  O   -0.327624   0.046626
     6  C    0.808810  -0.168666
     7  C   -0.143433   0.264810
     8  O   -0.069433   0.016295
     9  C   -0.088977  -0.121610
    10  N   -0.246780   0.024250
    11  N    0.031373   0.002954
    12  C    0.348048  -0.458874
    13  C   -1.225715   0.847763
    14  C   -0.085108  -0.209226
    15  C    0.485235  -0.973087
    16  O    0.029505   0.006819
    17  C    0.452772  -0.593131
    18  C   -0.056099  -0.128725
    19  O   -0.252229   0.026434
    20  O   -0.141165   0.010241
    21  H    0.103070   0.035748
    22  H    0.030547   0.086906
    23  H    0.100857   0.076183
    24  H    0.103142   0.052229
    25  H    0.161798  -0.001591
    26  H    0.177162   0.007116
    27  H    0.129548   0.070612
    28  H    0.072843   0.101408
    29  H    0.125908   0.058388
    30  H    0.137225   0.059167
    31  H    0.029646   0.146726
    32  H    0.065028   0.124825
    33  H   -0.102648   0.274606
    34  H    0.171765   0.037108
    35  H   -0.139026   0.336283
    36  H   -0.494548   0.799991
 Sum of Mulliken charges =  -1.00000   1.00000

 Dipole moment (field-independent basis, Debye):
    X=             -5.0741    Y=             -0.3097    Z=             -2.0153  Tot=              5.4684
 Quadrupole moment (field-independent basis, Debye-Ang):
   XX=           -269.4341   YY=           -142.2590   ZZ=           -138.3705
   XY=             13.7372   XZ=             -9.2575   YZ=              1.3678

 Summary of Natural Population Analysis:

                                       Natural Population
                Natural  -----------------------------------------------
    Atom  No    Charge         Core      Valence    Rydberg      Total
 -----------------------------------------------------------------------
      C    1   -0.29958      0.99966     2.29562    0.00429     3.29958
      C    2   -0.01725      0.99959     2.00666    0.01099     3.01725
      O    3   -0.27047      0.99986     3.26266    0.00794     4.27047
      C    4    0.41127      0.99963     1.56474    0.02436     2.58873
      O    5   -0.31254      0.99988     3.30776    0.00490     4.31254
      C    6   -0.02064      0.99947     2.00560    0.01557     3.02064
      C    7    0.10890      0.99947     1.87739    0.01424     2.89110
      O    8   -0.23666      0.99986     3.23013    0.00667     4.23666
      C    9    0.35217      0.99956     1.62964    0.01862     2.64783
      N   10   -0.26940      0.99967     2.76177    0.00796     3.76940
      N   11   -0.26155      0.99963     2.75150    0.01042     3.76155
      C   12   -0.07198      0.99959     2.06301    0.00938     3.07198
      C   13    0.13046      0.99949     1.85417    0.01588     2.86954
      C   14   -0.08326      0.99960     2.07438    0.00928     3.08326
      C   15   -0.30547      0.99961     2.29909    0.00677     3.30547
      O   16   -0.29630      0.99986     3.28592    0.01052     4.29630
      C   17   -0.06115      0.99952     2.04796    0.01367     3.06115
      C   18    0.39196      0.99974     1.58293    0.02537     2.60804
      O   19   -0.30507      0.99987     3.29877    0.00643     4.30507
      O   20   -0.33692      0.99987     3.32909    0.00795     4.33692
      H   21    0.09931      0.00000     0.39940    0.00129     0.40069
      H   22    0.09584      0.00000     0.40290    0.00127     0.40416
      H   23    0.10774      0.00000     0.39082    0.00144     0.39226
      H   24    0.08589      0.00000     0.41275    0.00136     0.41411
      H   25    0.09322      0.00000     0.40513    0.00166     0.40678
      H   26    0.09830      0.00000     0.40078    0.00092     0.40170
      H   27    0.10280      0.00000     0.39565    0.00156     0.39720
      H   28    0.09690      0.00000     0.40175    0.00135     0.40310
      H   29    0.10249      0.00000     0.39601    0.00151     0.39751
      H   30    0.09781      0.00000     0.40078    0.00140     0.40219
      H   31    0.10384      0.00000     0.39511    0.00106     0.39616
      H   32    0.11271      0.00000     0.38606    0.00123     0.38729
      H   33    0.10672      0.00000     0.39216    0.00113     0.39328
      H   34    0.09539      0.00000     0.40351    0.00111     0.40461
      H   35    0.10793      0.00000     0.39097    0.00110     0.39207
      H   36    0.24659      0.00000     0.22980    0.02361     0.25341
 =======================================================================
   * Total *   -0.00000     19.99343    54.73236    0.27420    75.00000

 Normal termination of Gaussian 16 at Sun Dec 13 21:38:44 2020.
