 Gaussian 16, Revision A.03,

 -----------------------------------------------------------
 # opt freq B3LYP/6-31G(d) empiricaldispersion=gd3bj scf=xqc
 -----------------------------------------------------------

 ------------------------------
 CID_89903167_JID_1350_neutraal
 ------------------------------
 Symbolic Z-matrix:
 Charge =  0 Multiplicity = 1

 SCF Done:  E(RB3LYP) =  -498.049179426     A.U. after   14 cycles
 SCF Done:  E(RB3LYP) =  -498.053690122     A.U. after   11 cycles
 SCF Done:  E(RB3LYP) =  -498.053995696     A.U. after   11 cycles
 SCF Done:  E(RB3LYP) =  -498.054085564     A.U. after   10 cycles
 SCF Done:  E(RB3LYP) =  -498.054152132     A.U. after    9 cycles
 SCF Done:  E(RB3LYP) =  -498.054204070     A.U. after   10 cycles
 SCF Done:  E(RB3LYP) =  -498.054225948     A.U. after   10 cycles
 SCF Done:  E(RB3LYP) =  -498.054238442     A.U. after    9 cycles
 SCF Done:  E(RB3LYP) =  -498.054240417     A.U. after    8 cycles
 SCF Done:  E(RB3LYP) =  -498.054240545     A.U. after    7 cycles
 SCF Done:  E(RB3LYP) =  -498.054240569     A.U. after    6 cycles
 Optimization completed.
    -- Stationary point found.
 Normal termination of Gaussian 16 at Tue Dec  8 19:49:43 2020.

 --------------------------------------------------------------------
 #N Geom=AllCheck Guess=TCheck SCRF=Check GenChk RB3LYP/6-31G(d) Freq
 --------------------------------------------------------------------

 Structure from the checkpoint file:  "JID_1350.chk"
 ------------------------------
 CID_89903167_JID_1350_neutraal
 ------------------------------
 Charge =  0 Multiplicity = 1

 SCF Done:  E(RB3LYP) =  -498.054240569     A.U. after    1 cycles

  Exact polarizability: 102.645   0.441 100.399  -1.211   0.045  76.123
 Approx polarizability: 130.916  -5.188 150.070   0.519  -1.301 119.630

                      1                      2                      3
                      A                      A                      A
 Frequencies --     92.0702               137.8194               186.3075
 Red. masses --      4.5201                 3.7796                 2.3880
 Frc consts  --      0.0226                 0.0423                 0.0488
 IR Inten    --      1.7916                 0.4367                 4.7232

                      4                      5                      6
                      A                      A                      A
 Frequencies --    213.8271               223.4866               232.2109
 Red. masses --      1.2207                 3.3767                 2.6689
 Frc consts  --      0.0329                 0.0994                 0.0848
 IR Inten    --      1.4630                 6.2011                 2.4260

                      7                      8                      9
                      A                      A                      A
 Frequencies --    305.8912               379.7177               421.0889
 Red. masses --      2.2441                 2.7426                 2.1253
 Frc consts  --      0.1237                 0.2330                 0.2220
 IR Inten    --      3.6125                 1.5872                 3.9656

                     10                     11                     12
                      A                      A                      A
 Frequencies --    468.1100               483.6697               485.7768
 Red. masses --      2.5953                 1.9661                 1.3876
 Frc consts  --      0.3351                 0.2710                 0.1929
 IR Inten    --     16.4898                31.3728                47.5356

                     13                     14                     15
                      A                      A                      A
 Frequencies --    491.8390               560.8626               609.4758
 Red. masses --      3.4269                 3.6730                 2.9450
 Frc consts  --      0.4884                 0.6807                 0.6445
 IR Inten    --      3.7157                23.9303                 9.4286

                     16                     17                     18
                      A                      A                      A
 Frequencies --    680.8684               711.8207               785.0707
 Red. masses --      4.2973                 5.1433                 2.8732
 Frc consts  --      1.1737                 1.5354                 1.0433
 IR Inten    --      8.2176                 5.1503                 4.4242

                     19                     20                     21
                      A                      A                      A
 Frequencies --    836.9056               873.9951               926.8123
 Red. masses --      2.4914                 2.2016                 2.3979
 Frc consts  --      1.0281                 0.9908                 1.2135
 IR Inten    --      0.2597                 4.4605                 4.3594

                     22                     23                     24
                      A                      A                      A
 Frequencies --    946.9818               999.3082              1011.3673
 Red. masses --      1.6695                 1.8078                 1.9317
 Frc consts  --      0.8821                 1.0637                 1.1641
 IR Inten    --      4.6013                 5.0256                15.5683

                     25                     26                     27
                      A                      A                      A
 Frequencies --   1057.6206              1062.9106              1078.5252
 Red. masses --      2.1687                 2.1513                 2.4725
 Frc consts  --      1.4293                 1.4320                 1.6945
 IR Inten    --     14.1561                19.6666                24.8146

                     28                     29                     30
                      A                      A                      A
 Frequencies --   1084.9770              1114.0842              1150.3466
 Red. masses --      2.9757                 2.4321                 1.7987
 Frc consts  --      2.0639                 1.7786                 1.4024
 IR Inten    --      2.3774                 8.9041                 0.2475

                     31                     32                     33
                      A                      A                      A
 Frequencies --   1167.1616              1176.9923              1179.8783
 Red. masses --      1.4879                 1.6743                 1.5827
 Frc consts  --      1.1942                 1.3666                 1.2982
 IR Inten    --     12.8334                 5.5480                21.6106

                     34                     35                     36
                      A                      A                      A
 Frequencies --   1218.5925              1250.6893              1264.8804
 Red. masses --      1.3164                 1.7820                 1.6864
 Frc consts  --      1.1517                 1.6423                 1.5897
 IR Inten    --     14.4852                43.7547                28.3350

                     37                     38                     39
                      A                      A                      A
 Frequencies --   1299.0167              1313.7612              1333.9827
 Red. masses --      1.5349                 1.6907                 1.6031
 Frc consts  --      1.5261                 1.7193                 1.6807
 IR Inten    --      9.5693                12.0312                30.8062

                     40                     41                     42
                      A                      A                      A
 Frequencies --   1338.8707              1360.5650              1379.4144
 Red. masses --      1.3216                 1.2928                 1.5081
 Frc consts  --      1.3958                 1.4100                 1.6907
 IR Inten    --      3.9913                11.1896                 3.9560

                     43                     44                     45
                      A                      A                      A
 Frequencies --   1398.4629              1403.1531              1412.0654
 Red. masses --      1.2792                 1.4773                 1.5144
 Frc consts  --      1.4740                 1.7136                 1.7791
 IR Inten    --      2.7584                10.9264                 8.8598

                     46                     47                     48
                      A                      A                      A
 Frequencies --   1428.8294              1453.7731              1482.3578
 Red. masses --      1.6482                 1.9381                 1.1417
 Frc consts  --      1.9826                 2.4133                 1.4781
 IR Inten    --      5.5269                40.7361                 1.6512

                     49                     50                     51
                      A                      A                      A
 Frequencies --   1508.3946              1513.5832              1518.2708
 Red. masses --      1.0869                 1.0880                 1.0816
 Frc consts  --      1.4570                 1.4686                 1.4690
 IR Inten    --      2.2423                 7.3020                 7.8149

                     52                     53                     54
                      A                      A                      A
 Frequencies --   1526.6395              1545.8901              1551.8288
 Red. masses --      1.0947                 1.0486                 1.0929
 Frc consts  --      1.5032                 1.4764                 1.5506
 IR Inten    --      7.4035                 3.0460                 5.1862

                     55                     56                     57
                      A                      A                      A
 Frequencies --   1837.4678              2958.3539              2961.8491
 Red. masses --     10.6154                 1.0790                 1.0603
 Frc consts  --     21.1167                 5.5636                 5.4801
 IR Inten    --    387.6363                 7.3038                69.0225

                     58                     59                     60
                      A                      A                      A
 Frequencies --   3000.5725              3019.0895              3025.9004
 Red. masses --      1.0708                 1.0673                 1.0694
 Frc consts  --      5.6804                 5.7318                 5.7692
 IR Inten    --     43.5517                23.9254                39.6037

                     61                     62                     63
                      A                      A                      A
 Frequencies --   3039.1663              3057.6834              3072.8821
 Red. masses --      1.0781                 1.0617                 1.0732
 Frc consts  --      5.8669                 5.8481                 5.9706
 IR Inten    --     53.8980                27.6769                44.1452

                     64                     65                     66
                      A                      A                      A
 Frequencies --   3083.2746              3093.3326              3095.7677
 Red. masses --      1.0992                 1.0949                 1.0952
 Frc consts  --      6.1568                 6.1728                 6.1841
 IR Inten    --     28.9796                55.1399                37.6269

                     67                     68                     69
                      A                      A                      A
 Frequencies --   3103.9085              3117.5873              3632.7250
 Red. masses --      1.1047                 1.1035                 1.0779
 Frc consts  --      6.2705                 6.3189                 8.3812
 IR Inten    --     40.3137                36.0928                24.8086

 - Thermochemistry -
 -------------------
 Temperature   298.150 Kelvin.  Pressure   1.00000 Atm.
 Atom     1 has atomic number  6 and mass  12.00000

 Molecular mass:   154.11061 amu.
 Principal axes and moments of inertia in atomic units:
                           1         2         3
     Eigenvalues --   872.400462150.671772692.68055
           X            0.99950   0.02824  -0.01415
           Y           -0.02814   0.99958   0.00714
           Z            0.01434  -0.00674   0.99987
 This molecule is an asymmetric top.
 Rotational symmetry number  1.
 Warning -- assumption of classical behavior for rotation
           may cause significant error
 Rotational temperatures (Kelvin)      0.09928     0.04027     0.03217
 Rotational constants (GHZ):           2.06871     0.83915     0.67024
 Zero-point vibrational energy     584617.2 (Joules/Mol)
                                  139.72686 (Kcal/Mol)
 Warning -- explicit consideration of  15 degrees of freedom as
           vibrations may cause significant error
 Vibrational temperatures:    132.47   198.29   268.05   307.65   321.55
          (Kelvin)            334.10   440.11   546.33   605.85   673.51
                              695.89   698.92   707.65   806.96   876.90
                              979.62  1024.15  1129.54  1204.12  1257.48
                             1333.48  1362.50  1437.78  1455.13  1521.68
                             1529.29  1551.76  1561.04  1602.92  1655.09
                             1679.29  1693.43  1697.58  1753.28  1799.46
                             1819.88  1869.00  1890.21  1919.30  1926.34
                             1957.55  1984.67  2012.08  2018.82  2031.65
                             2055.77  2091.66  2132.78  2170.24  2177.71
                             2184.45  2196.49  2224.19  2232.74  2643.71
                             4256.41  4261.44  4317.15  4343.80  4353.60
                             4372.68  4399.32  4421.19  4436.14  4450.62
                             4454.12  4465.83  4485.51  5226.68

 Zero-point correction=                           0.222669 (Hartree/Particle)
 Thermal correction to Energy=                    0.232379
 Thermal correction to Enthalpy=                  0.233323
 Thermal correction to Gibbs Free Energy=         0.188116
 Sum of electronic and zero-point Energies=           -497.831572
 Sum of electronic and thermal Energies=              -497.821861
 Sum of electronic and thermal Enthalpies=            -497.820917
 Sum of electronic and thermal Free Energies=         -497.866125

                     E (Thermal)             CV                S
                      KCal/Mol        Cal/Mol-Kelvin    Cal/Mol-Kelvin
 Total                  145.820             38.842             95.147
 Electronic               0.000              0.000              0.000
 Translational            0.889              2.981             41.007
 Rotational               0.889              2.981             30.003
 Vibrational            144.043             32.881             24.137
 Vibration     1          0.602              1.955              3.616
 Vibration     2          0.614              1.916              2.834
 Vibration     3          0.632              1.859              2.264
 Vibration     4          0.644              1.820              2.011
 Vibration     5          0.649              1.805              1.931
 Vibration     6          0.653              1.792              1.862
 Vibration     7          0.696              1.663              1.384
 Vibration     8          0.750              1.513              1.040
 Vibration     9          0.784              1.424              0.888
 Vibration    10          0.825              1.321              0.743
 Vibration    11          0.840              1.286              0.700
 Vibration    12          0.842              1.282              0.695
 Vibration    13          0.848              1.268              0.679
 Vibration    14          0.917              1.116              0.522
 Vibration    15          0.968              1.012              0.434

 Optimization completed.
    -- Stationary point found.
 Normal termination of Gaussian 16 at Tue Dec  8 19:55:50 2020.

 ----------------------------------------------------------------------
 # B3LYP/6-311++G(d,p) empiricaldispersion=gd3bj scf=xqc pop=npa geom=c
 heck
 ----------------------------------------------------------------------

 --------------------------------------
 CID_89903167_JID_1350_Energie_neutraal
 --------------------------------------
 Structure from the checkpoint file:  "JID_1350.chk"
 Charge =  0 Multiplicity = 1

 SCF Done:  E(RB3LYP) =  -498.196835280     A.U. after   14 cycles
 Normal termination of Gaussian 16 at Tue Dec  8 19:58:25 2020.

 ----------------------------------------------------------------------
 # B3LYP/6-311++G(d,p) empiricaldispersion=gd3bj scf=xqc pop=npa geom=c
 heck
 ----------------------------------------------------------------------

 ------------------------------------
 CID_89903167_JID_1350_Energie_kation
 ------------------------------------
 Structure from the checkpoint file:  "JID_1350.chk"
 Charge =  1 Multiplicity = 2

 SCF Done:  E(UB3LYP) =  -497.905986729     A.U. after   19 cycles
 Normal termination of Gaussian 16 at Tue Dec  8 20:03:17 2020.
 Gaussian 16:  ES64L-G16RevA.03 25-Dec-2016

 ----------------------------------------------------------------------
 # B3LYP/6-311++G(d,p) empiricaldispersion=gd3bj scf=xqc pop=npa geom=c
 heck
 ----------------------------------------------------------------------

 -----------------------------------
 CID_89903167_JID_1350_Energie_anion
 -----------------------------------
 Structure from the checkpoint file:  "JID_1350.chk"
 Charge = -1 Multiplicity = 2

                         Standard orientation:
 ---------------------------------------------------------------------
 Center     Atomic      Atomic             Coordinates (Angstroms)
 Number     Number       Type             X           Y           Z
 ---------------------------------------------------------------------
      1          6           0       -2.813120    0.236900    1.053059
      2          7           0       -2.243743    0.139858   -0.284083
      3          6           0       -1.755086   -1.204853   -0.615087
      4          6           0       -0.390987   -1.586234    0.011572
      5          6           0        0.583985   -0.486011   -0.369959
      6          6           0        0.081813    0.885790    0.092735
      7          6           0       -1.258493    1.190039   -0.577201
      8          6           0        1.317878    1.770594   -0.127104
      9          7           0        2.385513    0.829405    0.212311
     10          6           0        2.032332   -0.498217    0.111450
     11          8           0        2.754570   -1.455862    0.325168
     12          1           0       -3.617903   -0.499319    1.153219
     13          1           0       -3.250008    1.232648    1.187177
     14          1           0       -2.102611    0.067960    1.882378
     15          1           0       -2.529712   -1.923926   -0.328363
     16          1           0       -1.655414   -1.259078   -1.708834
     17          1           0       -0.468973   -1.663039    1.103094
     18          1           0       -0.058150   -2.562086   -0.358878
     19          1           0        0.652454   -0.460736   -1.473446
     20          1           0       -0.076316    0.830485    1.178767
     21          1           0       -1.120284    1.240212   -1.667148
     22          1           0       -1.673965    2.151876   -0.254780
     23          1           0        1.341493    2.649724    0.524921
     24          1           0        1.391263    2.113408   -1.171631
     25          1           0        3.349239    1.095877    0.357793
 ---------------------------------------------------------------------

 SCF Done:  E(UB3LYP) =  -498.183361889     A.U. after   33 cycles
 SCF Done:  E(UB3LYP) =  -498.183361889     a.u. after    1 cycles

 The electronic state is 2-A.
 Alpha  occ. eigenvalues --  -18.98879 -14.23141 -14.20489 -10.16728 -10.10533
 Alpha  occ. eigenvalues --  -10.09699 -10.09356 -10.08449 -10.08018 -10.07695
 Alpha  occ. eigenvalues --  -10.07191  -0.93601  -0.83941  -0.82436  -0.70782
 Alpha  occ. eigenvalues --   -0.66626  -0.60839  -0.59741  -0.54997  -0.50653
 Alpha  occ. eigenvalues --   -0.47323  -0.46411  -0.39572  -0.39207  -0.37764
 Alpha  occ. eigenvalues --   -0.37235  -0.35148  -0.33146  -0.32803  -0.31579
 Alpha  occ. eigenvalues --   -0.30504  -0.29409  -0.28675  -0.27420  -0.26934
 Alpha  occ. eigenvalues --   -0.25940  -0.24772  -0.22890  -0.22049  -0.15735
 Alpha  occ. eigenvalues --   -0.15212  -0.11265   0.04541
 Alpha virt. eigenvalues --    0.06615   0.07506   0.08118   0.09445   0.09549
 Alpha virt. eigenvalues --    0.09895   0.10960   0.11261   0.11875   0.12605
 Alpha virt. eigenvalues --    0.12687   0.13895   0.14304   0.14364   0.15856

  Beta  occ. eigenvalues --  -18.98877 -14.23117 -14.20487 -10.16726 -10.10485
  Beta  occ. eigenvalues --  -10.09684 -10.09331 -10.08410 -10.08007 -10.07684
  Beta  occ. eigenvalues --  -10.07184  -0.93593  -0.83912  -0.82415  -0.70753
  Beta  occ. eigenvalues --   -0.66593  -0.60787  -0.59667  -0.54951  -0.50595
  Beta  occ. eigenvalues --   -0.47257  -0.46365  -0.39514  -0.39159  -0.37720
  Beta  occ. eigenvalues --   -0.37203  -0.35122  -0.33109  -0.32770  -0.31551
  Beta  occ. eigenvalues --   -0.30471  -0.29382  -0.28625  -0.27378  -0.26905
  Beta  occ. eigenvalues --   -0.25912  -0.24741  -0.22853  -0.22018  -0.15709
  Beta  occ. eigenvalues --   -0.15196  -0.11247
  Beta virt. eigenvalues --    0.06965   0.07959   0.08156   0.08852   0.09986
  Beta virt. eigenvalues --    0.10405   0.10570   0.11358   0.11565   0.12021
  Beta virt. eigenvalues --    0.13012   0.13285   0.14249   0.14540   0.14745

 Mulliken charges and spin densities:
               1          2
     1  C    0.861993  -1.189208
     2  N   -0.124810   0.263340
     3  C   -0.167062  -0.322243
     4  C   -0.461891   0.134883
     5  C    1.520886  -1.317461
     6  C   -2.779389   3.117929
     7  C    0.908304  -1.835867
     8  C    2.842968  -3.368292
     9  N   -0.448953   0.242391
    10  C   -0.389819   0.354058
    11  O   -0.408976   0.005912
    12  H   -0.268237   0.418893
    13  H   -0.311642   0.466610
    14  H   -0.210975   0.317402
    15  H   -0.219643   0.388851
    16  H    0.042947   0.094950
    17  H    0.142874   0.024047
    18  H    0.101788   0.066925
    19  H    0.011474   0.201464
    20  H    0.037677   0.202616
    21  H   -0.012958   0.198965
    22  H   -0.130822   0.310477
    23  H   -0.893322   1.084955
    24  H   -0.543348   0.714579
    25  H   -0.099064   0.423823
 Sum of Mulliken charges =  -1.00000   1.00000

 Dipole moment (field-independent basis, Debye):
    X=             -1.0213    Y=             -4.4375    Z=             -1.7665  Tot=              4.8842
 Quadrupole moment (field-independent basis, Debye-Ang):
   XX=           -130.8904   YY=           -119.4459   ZZ=            -97.9616
   XY=             -1.5192   XZ=              2.9452   YZ=             -0.7543

 Summary of Natural Population Analysis:

                                       Natural Population
                Natural  -----------------------------------------------
    Atom  No    Charge         Core      Valence    Rydberg      Total
 -----------------------------------------------------------------------
      C    1   -0.17776      0.99963     2.16933    0.00879     3.17776
      N    2   -0.28065      0.99975     2.76663    0.01428     3.78065
      C    3   -0.08132      0.99961     2.07029    0.01142     3.08132
      C    4   -0.19746      0.99961     2.18982    0.00803     3.19746
      C    5   -0.14716      0.99952     2.13706    0.01058     3.14716
      C    6   -0.12059      0.99957     2.10904    0.01198     3.12059
      C    7   -0.07923      0.99958     2.06693    0.01272     3.07923
      C    8   -0.07812      0.99960     2.06713    0.01139     3.07812
      N    9   -0.31954      0.99968     2.80968    0.01017     3.81954
      C   10    0.34942      0.99963     1.62654    0.02441     2.65058
      O   11   -0.32239      0.99987     3.31698    0.00554     4.32239
      H   12    0.09520      0.00000     0.40342    0.00139     0.40480
      H   13    0.09766      0.00000     0.40093    0.00142     0.40234
      H   14    0.08007      0.00000     0.41828    0.00165     0.41993
      H   15    0.09743      0.00000     0.40166    0.00090     0.40257
      H   16    0.09091      0.00000     0.40792    0.00117     0.40909
      H   17    0.09896      0.00000     0.39983    0.00121     0.40104
      H   18    0.10403      0.00000     0.39488    0.00108     0.39597
      H   19    0.10417      0.00000     0.39409    0.00174     0.39583
      H   20    0.09908      0.00000     0.39822    0.00270     0.40092
      H   21    0.09354      0.00000     0.40485    0.00161     0.40646
      H   22    0.10148      0.00000     0.39703    0.00149     0.39852
      H   23    0.10367      0.00000     0.39119    0.00515     0.39633
      H   24    0.09015      0.00000     0.40692    0.00293     0.40985
      H   25    0.19846      0.00000     0.29829    0.00325     0.30154
 =======================================================================
   * Total *   -0.00000     10.99605    30.84693    0.15702    42.00000

 Normal termination of Gaussian 16 at Tue Dec  8 20:12:15 2020.
