 Gaussian 16, Revision A.03,

 -----------------------------------------------------------
 # opt freq B3LYP/6-31G(d) empiricaldispersion=gd3bj scf=xqc
 -----------------------------------------------------------

 ------------------------------
 CID_21617767_JID_6381_neutraal
 ------------------------------
 Symbolic Z-matrix:
 Charge =  0 Multiplicity = 1

 SCF Done:  E(RB3LYP) =  -797.301683968     A.U. after   15 cycles
 SCF Done:  E(RB3LYP) =  -797.320874036     A.U. after   15 cycles
 SCF Done:  E(RB3LYP) =  -797.321985756     A.U. after   14 cycles
 SCF Done:  E(RB3LYP) =  -797.327101164     A.U. after   13 cycles
 SCF Done:  E(RB3LYP) =  -797.328076335     A.U. after   13 cycles
 SCF Done:  E(RB3LYP) =  -797.328981932     A.U. after   13 cycles
 SCF Done:  E(RB3LYP) =  -797.329725739     A.U. after   15 cycles
 SCF Done:  E(RB3LYP) =  -797.330413647     A.U. after   13 cycles
 SCF Done:  E(RB3LYP) =  -797.330820874     A.U. after   12 cycles
 SCF Done:  E(RB3LYP) =  -797.330986983     A.U. after   13 cycles
 SCF Done:  E(RB3LYP) =  -797.331125153     A.U. after   10 cycles
 SCF Done:  E(RB3LYP) =  -797.331127031     A.U. after    9 cycles
 SCF Done:  E(RB3LYP) =  -797.331127420     A.U. after    7 cycles
 SCF Done:  E(RB3LYP) =  -797.331127596     A.U. after    7 cycles
 SCF Done:  E(RB3LYP) =  -797.331127725     A.U. after    7 cycles
 Optimization completed.
    -- Stationary point found.
 Normal termination of Gaussian 16 at Thu Dec 10 22:33:21 2020.

 --------------------------------------------------------------------
 #N Geom=AllCheck Guess=TCheck SCRF=Check GenChk RB3LYP/6-31G(d) Freq
 --------------------------------------------------------------------

 Structure from the checkpoint file:  "JID_6381.chk"
 ------------------------------
 CID_21617767_JID_6381_neutraal
 ------------------------------
 Charge =  0 Multiplicity = 1

 SCF Done:  E(RB3LYP) =  -797.331127726     A.U. after    1 cycles

  Exact polarizability: 136.556  14.670 139.592   6.815  -4.637 104.883
 Approx polarizability: 167.614  25.484 222.688  18.294 -17.585 173.810

                      1                      2                      3
                      A                      A                      A
 Frequencies --     29.1737                40.8202                53.4513
 Red. masses --      3.9927                 4.9893                 4.3308
 Frc consts  --      0.0020                 0.0049                 0.0073
 IR Inten    --      0.9108                 0.4413                 0.3214

                      4                      5                      6
                      A                      A                      A
 Frequencies --     57.8148                73.3253                88.8269
 Red. masses --      5.2465                 4.6121                 5.7063
 Frc consts  --      0.0103                 0.0146                 0.0265
 IR Inten    --      1.0445                 0.5055                 1.7167

                      7                      8                      9
                      A                      A                      A
 Frequencies --    110.1937               134.5581               145.6196
 Red. masses --      4.4942                 3.6833                 4.1375
 Frc consts  --      0.0322                 0.0393                 0.0517
 IR Inten    --      2.0695                 0.7740                 0.9108

                     10                     11                     12
                      A                      A                      A
 Frequencies --    158.5963               182.8986               211.5131
 Red. masses --      7.0617                 6.9606                 1.5094
 Frc consts  --      0.1047                 0.1372                 0.0398
 IR Inten    --      9.3345                 5.7045                 0.3968

                     13                     14                     15
                      A                      A                      A
 Frequencies --    270.5168               288.2952               322.6149
 Red. masses --      3.2332                 1.7905                 3.1822
 Frc consts  --      0.1394                 0.0877                 0.1951
 IR Inten    --      2.9363                 0.4913                 2.9754

                     16                     17                     18
                      A                      A                      A
 Frequencies --    337.8596               398.1533               404.0134
 Red. masses --      2.4590                 1.9529                 9.3115
 Frc consts  --      0.1654                 0.1824                 0.8955
 IR Inten    --      2.0234                 2.9149                56.1174

                     19                     20                     21
                      A                      A                      A
 Frequencies --    413.9416               440.5412               467.5669
 Red. masses --      3.4600                 1.7749                 2.0627
 Frc consts  --      0.3493                 0.2030                 0.2657
 IR Inten    --      4.6601               112.4075                75.6526

                     22                     23                     24
                      A                      A                      A
 Frequencies --    485.6101               521.6247               534.0246
 Red. masses --      2.4162                 9.5257                 1.4692
 Frc consts  --      0.3357                 1.5271                 0.2469
 IR Inten    --     12.0243                14.6064                10.5542

                     25                     26                     27
                      A                      A                      A
 Frequencies --    549.7885               588.0571               623.0543
 Red. masses --      2.9045                 1.8525                 5.1874
 Frc consts  --      0.5173                 0.3774                 1.1865
 IR Inten    --      6.0730                 4.0735                12.3617

                     28                     29                     30
                      A                      A                      A
 Frequencies --    648.2702               696.3073               731.1799
 Red. masses --      1.9072                 2.4295                 1.4677
 Frc consts  --      0.4722                 0.6940                 0.4623
 IR Inten    --     77.1422                60.4539                24.1263

                     31                     32                     33
                      A                      A                      A
 Frequencies --    737.6216               764.2966               767.0520
 Red. masses --      5.9118                 1.9852                 4.1126
 Frc consts  --      1.8951                 0.6833                 1.4257
 IR Inten    --     11.2131                17.4649                65.2580

                     34                     35                     36
                      A                      A                      A
 Frequencies --    807.3442               832.6159               857.9585
 Red. masses --      5.9494                 1.7310                 2.1198
 Frc consts  --      2.2848                 0.7070                 0.9194
 IR Inten    --     29.0880                11.7256                 3.0165

                     37                     38                     39
                      A                      A                      A
 Frequencies --    914.6276               943.4844               979.4222
 Red. masses --      1.5810                 2.2374                 2.9703
 Frc consts  --      0.7793                 1.1735                 1.6788
 IR Inten    --      1.1462                11.2353                 7.6958

                     40                     41                     42
                      A                      A                      A
 Frequencies --    992.3244              1018.9374              1055.9153
 Red. masses --      1.7786                 2.0140                 1.5813
 Frc consts  --      1.0319                 1.2320                 1.0388
 IR Inten    --      0.3771                 1.3699                 2.2121

                     43                     44                     45
                      A                      A                      A
 Frequencies --   1073.7084              1096.3982              1133.5061
 Red. masses --      1.7861                 2.1599                 1.7670
 Frc consts  --      1.2132                 1.5297                 1.3377
 IR Inten    --      6.9083                 0.3498                42.3716

                     46                     47                     48
                      A                      A                      A
 Frequencies --   1149.2637              1172.6486              1177.9906
 Red. masses --      2.1196                 2.2036                 5.0969
 Frc consts  --      1.6494                 1.7853                 4.1671
 IR Inten    --      0.9524                 4.2113                26.9472

                     49                     50                     51
                      A                      A                      A
 Frequencies --   1226.1699              1260.2719              1300.8558
 Red. masses --      1.3241                 1.4820                 1.5010
 Frc consts  --      1.1729                 1.3868                 1.4965
 IR Inten    --     14.3807                35.4017               117.8795

                     52                     53                     54
                      A                      A                      A
 Frequencies --   1320.6242              1347.2958              1362.3977
 Red. masses --      1.3480                 1.4226                 1.5395
 Frc consts  --      1.3852                 1.5214                 1.6836
 IR Inten    --     76.5807               140.0122               105.5990

                     55                     56                     57
                      A                      A                      A
 Frequencies --   1384.3398              1395.6004              1410.3305
 Red. masses --      1.4225                 1.5119                 2.9206
 Frc consts  --      1.6061                 1.7350                 3.4227
 IR Inten    --     11.3032                 0.7547                29.6205

                     58                     59                     60
                      A                      A                      A
 Frequencies --   1411.5303              1425.9594              1432.4679
 Red. masses --      1.8117                 1.4635                 1.3847
 Frc consts  --      2.1267                 1.7533                 1.6741
 IR Inten    --     61.7318                 8.5748                22.9982

                     61                     62                     63
                      A                      A                      A
 Frequencies --   1440.4268              1444.2468              1458.8154
 Red. masses --      1.5220                 1.2737                 3.4169
 Frc consts  --      1.8606                 1.5653                 4.2843
 IR Inten    --     10.9689                 4.5321               110.1627

                     64                     65                     66
                      A                      A                      A
 Frequencies --   1509.2990              1519.4562              1524.8917
 Red. masses --      1.0745                 1.0875                 1.0849
 Frc consts  --      1.4421                 1.4793                 1.4863
 IR Inten    --      1.0662                 0.7835                15.2862

                     67                     68                     69
                      A                      A                      A
 Frequencies --   1529.6832              1532.9252              1539.2450
 Red. masses --      1.0603                 1.0761                 1.0715
 Frc consts  --      1.4618                 1.4898                 1.4957
 IR Inten    --      3.1695                 0.8761                14.9751

                     70                     71                     72
                      A                      A                      A
 Frequencies --   1543.5379              1639.2804              1762.8871
 Red. masses --      1.0831                 1.2304                 9.2012
 Frc consts  --      1.5204                 1.9481                16.8477
 IR Inten    --      3.4211               218.5759               184.2005

                     73                     74                     75
                      A                      A                      A
 Frequencies --   1842.5433              2281.2678              3030.8540
 Red. masses --      7.7733                12.7506                 1.0664
 Frc consts  --     15.5486                39.0962                 5.7717
 IR Inten    --    500.5785               802.3224                21.7392

                     76                     77                     78
                      A                      A                      A
 Frequencies --   3037.9219              3044.8051              3048.9719
 Red. masses --      1.0645                 1.0408                 1.0595
 Frc consts  --      5.7884                 5.6850                 5.8031
 IR Inten    --     17.8586                17.9274                16.2643

                     79                     80                     81
                      A                      A                      A
 Frequencies --   3054.4923              3065.7979              3077.6783
 Red. masses --      1.0638                 1.0955                 1.0986
 Frc consts  --      5.8480                 6.0664                 6.1308
 IR Inten    --     16.3949                40.8555                 7.0619

                     82                     83                     84
                      A                      A                      A
 Frequencies --   3087.2457              3093.9090              3110.5483
 Red. masses --      1.0976                 1.1005                 1.1020
 Frc consts  --      6.1636                 6.2067                 6.2819
 IR Inten    --     26.8662                76.3717                49.1453

                     85                     86                     87
                      A                      A                      A
 Frequencies --   3115.6104              3121.1405              3168.0216
 Red. masses --      1.1018                 1.0613                 1.1070
 Frc consts  --      6.3016                 6.0912                 6.5462
 IR Inten    --     44.6622                20.9435                 4.4924

                     88                     89                     90
                      A                      A                      A
 Frequencies --   3570.0088              3598.9808              3700.2482
 Red. masses --      1.0480                 1.0758                 1.1023
 Frc consts  --      7.8697                 8.2098                 8.8920
 IR Inten    --     31.8313                66.0600                89.8394

 - Thermochemistry -
 -------------------
 Temperature   298.150 Kelvin.  Pressure   1.00000 Atm.
 Atom     1 has atomic number  6 and mass  12.00000

 Molecular mass:   228.12224 amu.
 Principal axes and moments of inertia in atomic units:
                           1         2         3
     Eigenvalues --  2692.599595501.512497232.53269
           X            0.99947  -0.03156  -0.00798
           Y            0.03152   0.99949  -0.00486
           Z            0.00813   0.00461   0.99996
 This molecule is an asymmetric top.
 Rotational symmetry number  1.
 Warning -- assumption of classical behavior for rotation
           may cause significant error
 Rotational temperatures (Kelvin)      0.03217     0.01574     0.01198
 Rotational constants (GHZ):           0.67026     0.32804     0.24953
 Zero-point vibrational energy     701346.1 (Joules/Mol)
                                  167.62574 (Kcal/Mol)
 Warning -- explicit consideration of  26 degrees of freedom as
           vibrations may cause significant error
 Vibrational temperatures:     41.97    58.73    76.90    83.18   105.50
          (Kelvin)            127.80   158.54   193.60   209.51   228.18
                              263.15   304.32   389.21   414.79   464.17
                              486.10   572.85   581.29   595.57   633.84
                              672.72   698.68   750.50   768.34   791.02
                              846.08   896.44   932.72  1001.83  1052.00
                             1061.27  1099.65  1103.62  1161.59  1197.95
                             1234.41  1315.95  1357.46  1409.17  1427.73
                             1466.02  1519.23  1544.83  1577.47  1630.86
                             1653.53  1687.18  1694.87  1764.18  1813.25
                             1871.64  1900.08  1938.46  1960.19  1991.76
                             2007.96  2029.15  2030.88  2051.64  2061.00
                             2072.45  2077.95  2098.91  2171.54  2186.16
                             2193.98  2200.87  2205.54  2214.63  2220.81
                             2358.56  2536.40  2651.01  3282.24  4360.72
                             4370.89  4380.80  4386.79  4394.73  4411.00
                             4428.09  4441.86  4451.45  4475.39  4482.67
                             4490.63  4558.08  5136.45  5178.13  5323.83

 Zero-point correction=                           0.267129 (Hartree/Particle)
 Thermal correction to Energy=                    0.284294
 Thermal correction to Enthalpy=                  0.285239
 Thermal correction to Gibbs Free Energy=         0.220652
 Sum of electronic and zero-point Energies=           -797.063999
 Sum of electronic and thermal Energies=              -797.046833
 Sum of electronic and thermal Enthalpies=            -797.045889
 Sum of electronic and thermal Free Energies=         -797.110475

                     E (Thermal)             CV                S
                      KCal/Mol        Cal/Mol-Kelvin    Cal/Mol-Kelvin
 Total                  178.397             62.491            135.933
 Electronic               0.000              0.000              0.000
 Translational            0.889              2.981             42.176
 Rotational               0.889              2.981             33.038
 Vibrational            176.620             56.530             60.719
 Vibration     1          0.593              1.984              5.885
 Vibration     2          0.594              1.981              5.219
 Vibration     3          0.596              1.976              4.685
 Vibration     4          0.596              1.974              4.530
 Vibration     5          0.599              1.967              4.062
 Vibration     6          0.602              1.957              3.686
 Vibration     7          0.606              1.941              3.265
 Vibration     8          0.613              1.919              2.880
 Vibration     9          0.617              1.907              2.729
 Vibration    10          0.621              1.893              2.566
 Vibration    11          0.630              1.863              2.299
 Vibration    12          0.643              1.823              2.031
 Vibration    13          0.674              1.728              1.593
 Vibration    14          0.685              1.695              1.484
 Vibration    15          0.708              1.630              1.297
 Vibration    16          0.718              1.600              1.222
 Vibration    17          0.764              1.474              0.969
 Vibration    18          0.769              1.461              0.948
 Vibration    19          0.778              1.440              0.913
 Vibration    20          0.800              1.382              0.825
 Vibration    21          0.825              1.322              0.744
 Vibration    22          0.842              1.282              0.695
 Vibration    23          0.877              1.202              0.606
 Vibration    24          0.889              1.175              0.578
 Vibration    25          0.905              1.140              0.545
 Vibration    26          0.945              1.057              0.471

 Optimization completed.
    -- Stationary point found.
 Normal termination of Gaussian 16 at Thu Dec 10 22:43:36 2020.

 ----------------------------------------------------------------------
 # B3LYP/6-311++G(d,p) empiricaldispersion=gd3bj scf=xqc pop=npa geom=c
 heck
 ----------------------------------------------------------------------

 --------------------------------------
 CID_21617767_JID_6381_Energie_neutraal
 --------------------------------------
 Structure from the checkpoint file:  "JID_6381.chk"
 Charge =  0 Multiplicity = 1

 SCF Done:  E(RB3LYP) =  -797.575241047     A.U. after   15 cycles
 Normal termination of Gaussian 16 at Thu Dec 10 22:48:02 2020.

 ----------------------------------------------------------------------
 # B3LYP/6-311++G(d,p) empiricaldispersion=gd3bj scf=xqc pop=npa geom=c
 heck
 ----------------------------------------------------------------------

 ------------------------------------
 CID_21617767_JID_6381_Energie_kation
 ------------------------------------
 Structure from the checkpoint file:  "JID_6381.chk"
 Charge =  1 Multiplicity = 2

 SCF Done:  E(UB3LYP) =  -797.245687961     A.U. after   26 cycles
 Normal termination of Gaussian 16 at Thu Dec 10 22:59:25 2020.
 Gaussian 16:  ES64L-G16RevA.03 25-Dec-2016

 ----------------------------------------------------------------------
 # B3LYP/6-311++G(d,p) empiricaldispersion=gd3bj scf=xqc pop=npa geom=c
 heck
 ----------------------------------------------------------------------

 -----------------------------------
 CID_21617767_JID_6381_Energie_anion
 -----------------------------------
 Structure from the checkpoint file:  "JID_6381.chk"
 Charge = -1 Multiplicity = 2

                         Standard orientation:
 ---------------------------------------------------------------------
 Center     Atomic      Atomic             Coordinates (Angstroms)
 Number     Number       Type             X           Y           Z
 ---------------------------------------------------------------------
      1          6           0        4.655040   -1.676795   -0.367949
      2          6           0        3.876861   -0.866675    0.673097
      3          6           0        3.046420    0.281564    0.079634
      4          6           0        1.991169   -0.141677   -0.954330
      5          6           0        0.981398   -1.190954   -0.467789
      6          6           0        0.139238   -0.796273    0.749029
      7          7           0       -0.665016    0.439179    0.558243
      8          6           0       -1.538273    0.581070   -0.511059
      9          8           0       -1.628524    1.632262   -1.132512
     10          7           0       -2.304557   -0.543186   -0.824627
     11          6           0       -3.120169   -1.343900    0.018541
     12          8           0       -3.929947   -2.101711   -0.481387
     13          7           0       -2.909785   -1.219271    1.364115
     14          7           0        0.032115    1.595337    0.909948
     15          6           0       -0.095133    2.687710    0.334727
     16          8           0       -0.011747    3.821619    0.047474
     17          1           0        3.985863   -2.200063   -1.060393
     18          1           0        5.288583   -2.431781    0.110403
     19          1           0        5.304039   -1.025435   -0.966095
     20          1           0        3.227425   -1.541646    1.247835
     21          1           0        4.581232   -0.442851    1.400388
     22          1           0        2.556813    0.830069    0.892697
     23          1           0        3.726183    0.998021   -0.401452
     24          1           0        1.451849    0.749939   -1.296207
     25          1           0        2.489371   -0.545801   -1.844142
     26          1           0        0.302402   -1.449942   -1.288981
     27          1           0        1.500857   -2.121093   -0.202997
     28          1           0       -0.546975   -1.602378    1.010294
     29          1           0        0.760043   -0.594162    1.623261
     30          1           0       -2.718532   -0.476121   -1.747606
     31          1           0       -2.425496   -0.412165    1.735471
     32          1           0       -3.610504   -1.660794    1.941762
 ---------------------------------------------------------------------

 SCF Done:  E(UB3LYP) =  -797.571926891     A.U. after   33 cycles
 SCF Done:  E(UB3LYP) =  -797.571926891     a.u. after    1 cycles

 The electronic state is 2-A.
 Alpha  occ. eigenvalues --  -19.06554 -19.03071 -19.00765 -14.30384 -14.27065
 Alpha  occ. eigenvalues --  -14.26029 -14.24374 -10.23183 -10.22626 -10.20213
 Alpha  occ. eigenvalues --  -10.12203 -10.08301 -10.07616 -10.07587 -10.07209
 Alpha  occ. eigenvalues --  -10.07093  -1.01040  -0.99722  -0.97236  -0.92039
 Alpha  occ. eigenvalues --   -0.85722  -0.81496  -0.77776  -0.72018  -0.67718
 Alpha  occ. eigenvalues --   -0.62716  -0.59378  -0.57073  -0.54935  -0.52224
 Alpha  occ. eigenvalues --   -0.48939  -0.46719  -0.45964  -0.42128  -0.40830
 Alpha  occ. eigenvalues --   -0.39961  -0.39800  -0.38419  -0.38122  -0.37042
 Alpha  occ. eigenvalues --   -0.36051  -0.34822  -0.34539  -0.34148  -0.32882
 Alpha  occ. eigenvalues --   -0.31989  -0.31303  -0.30256  -0.28240  -0.27817
 Alpha  occ. eigenvalues --   -0.26369  -0.25116  -0.24099  -0.23311  -0.23030
 Alpha  occ. eigenvalues --   -0.22704  -0.22186  -0.19920  -0.19595  -0.18791
 Alpha  occ. eigenvalues --   -0.14397   0.03765
 Alpha virt. eigenvalues --    0.05745   0.06717   0.06912   0.07566   0.07872
 Alpha virt. eigenvalues --    0.08545   0.09122   0.09930   0.10707   0.10751
 Alpha virt. eigenvalues --    0.10951   0.11824   0.11918   0.12859   0.13272

  Beta  occ. eigenvalues --  -19.06466 -19.03052 -19.00760 -14.30339 -14.27028
  Beta  occ. eigenvalues --  -14.26045 -14.24293 -10.23179 -10.22618 -10.20044
  Beta  occ. eigenvalues --  -10.12174 -10.08287 -10.07598 -10.07578 -10.07185
  Beta  occ. eigenvalues --  -10.07083  -1.00909  -0.99612  -0.97214  -0.91971
  Beta  occ. eigenvalues --   -0.85669  -0.81386  -0.77652  -0.71985  -0.67674
  Beta  occ. eigenvalues --   -0.62673  -0.59299  -0.56992  -0.54835  -0.52148
  Beta  occ. eigenvalues --   -0.48852  -0.46666  -0.45890  -0.42057  -0.40649
  Beta  occ. eigenvalues --   -0.39898  -0.39737  -0.38248  -0.38027  -0.36987
  Beta  occ. eigenvalues --   -0.35949  -0.34758  -0.34459  -0.34058  -0.32637
  Beta  occ. eigenvalues --   -0.31944  -0.31246  -0.30232  -0.28197  -0.27777
  Beta  occ. eigenvalues --   -0.26346  -0.25075  -0.24025  -0.23232  -0.23001
  Beta  occ. eigenvalues --   -0.22677  -0.22104  -0.19895  -0.19531  -0.18754
  Beta  occ. eigenvalues --   -0.14351
  Beta virt. eigenvalues --    0.05875   0.06848   0.06978   0.07734   0.07815
  Beta virt. eigenvalues --    0.08618   0.08943   0.09416   0.10313   0.10818
  Beta virt. eigenvalues --    0.11075   0.11205   0.12090   0.12146   0.13019

 Mulliken charges and spin densities:
               1          2
     1  C    0.391834  -1.004304
     2  C   -0.514059   0.297285
     3  C    0.005358  -0.325841
     4  C    0.248270  -0.245597
     5  C    0.154514  -0.590915
     6  C   -0.297327  -0.222701
     7  N    0.087706   0.078177
     8  C    0.515166  -0.523899
     9  O   -0.288026   0.017642
    10  N   -0.406586   0.111760
    11  C    0.556973  -0.324149
    12  O   -0.378101   0.024512
    13  N   -0.286723  -0.181091
    14  N   -0.069192  -0.006094
    15  C    0.486297  -0.159069
    16  O   -0.303632   0.030571
    17  H   -0.007047   0.142985
    18  H   -0.236580   0.372561
    19  H    0.004963   0.126701
    20  H    0.044068   0.096933
    21  H   -0.138688   0.286383
    22  H    0.076381   0.093931
    23  H    0.057581   0.077999
    24  H    0.078684   0.129586
    25  H    0.035260   0.138463
    26  H    0.095305   0.075493
    27  H   -0.160818   0.322853
    28  H    0.067831   0.128560
    29  H   -0.509918   0.742009
    30  H    0.241639   0.104029
    31  H   -0.175999   0.461011
    32  H   -0.375134   0.724217
 Sum of Mulliken charges =  -1.00000   1.00000

 Dipole moment (field-independent basis, Debye):
    X=              2.5861    Y=              0.7798    Z=             -3.2997  Tot=              4.2643
 Quadrupole moment (field-independent basis, Debye-Ang):
   XX=           -173.8824   YY=           -149.1272   ZZ=           -129.9712
   XY=             -2.8472   XZ=              3.4123   YZ=              4.5790

 Summary of Natural Population Analysis:

                                       Natural Population
                Natural  -----------------------------------------------
    Atom  No    Charge         Core      Valence    Rydberg      Total
 -----------------------------------------------------------------------
      C    1   -0.28649      0.99967     2.28223    0.00459     3.28649
      C    2   -0.19328      0.99964     2.18518    0.00845     3.19328
      C    3   -0.19315      0.99962     2.18602    0.00751     3.19315
      C    4   -0.19351      0.99962     2.18649    0.00740     3.19351
      C    5   -0.20074      0.99962     2.19310    0.00802     3.20074
      C    6   -0.08737      0.99958     2.07514    0.01265     3.08737
      N    7   -0.17252      0.99963     2.65639    0.01650     3.67252
      C    8    0.40495      0.99965     1.57170    0.02371     2.59505
      O    9   -0.30403      0.99987     3.29850    0.00565     4.30403
      N   10   -0.34366      0.99964     2.83472    0.00930     3.84366
      C   11    0.40646      0.99972     1.57104    0.02279     2.59354
      O   12   -0.32430      0.99987     3.31843    0.00600     4.32430
      N   13   -0.40977      0.99971     2.90166    0.00840     3.90977
      N   14   -0.21869      0.99953     2.70694    0.01222     3.71869
      C   15    0.44694      0.99964     1.53401    0.01941     2.55306
      O   16   -0.24443      0.99986     3.23714    0.00743     4.24443
      H   17    0.09572      0.00000     0.40323    0.00104     0.40428
      H   18    0.09867      0.00000     0.40018    0.00114     0.40133
      H   19    0.09398      0.00000     0.40486    0.00116     0.40602
      H   20    0.09376      0.00000     0.40489    0.00136     0.40624
      H   21    0.09591      0.00000     0.40305    0.00104     0.40409
      H   22    0.10513      0.00000     0.39345    0.00143     0.39487
      H   23    0.09421      0.00000     0.40473    0.00105     0.40579
      H   24    0.10135      0.00000     0.39731    0.00134     0.39865
      H   25    0.09642      0.00000     0.40247    0.00111     0.40358
      H   26    0.10134      0.00000     0.39741    0.00124     0.39866
      H   27    0.10216      0.00000     0.39675    0.00109     0.39784
      H   28    0.10925      0.00000     0.38866    0.00208     0.39075
      H   29    0.10936      0.00000     0.38852    0.00213     0.39064
      H   30    0.20683      0.00000     0.29118    0.00199     0.29317
      H   31    0.20483      0.00000     0.28782    0.00735     0.29517
      H   32    0.20465      0.00000     0.28963    0.00572     0.29535
 =======================================================================
   * Total *    0.00000     15.99488    44.79282    0.21229    61.00000

 Normal termination of Gaussian 16 at Thu Dec 10 23:12:39 2020.
