 Gaussian 16, Revision A.03,

 -----------------------------------------------------------
 # opt freq B3LYP/6-31G(d) empiricaldispersion=gd3bj scf=xqc
 -----------------------------------------------------------

 ------------------------------
 CID_16640971_JID_7185_neutraal
 ------------------------------
 Symbolic Z-matrix:
 Charge =  0 Multiplicity = 1

 SCF Done:  E(RB3LYP) =  -1412.32910523     A.U. after   15 cycles
 SCF Done:  E(RB3LYP) =  -1412.33527168     A.U. after   12 cycles
 SCF Done:  E(RB3LYP) =  -1412.33612409     A.U. after   12 cycles
 SCF Done:  E(RB3LYP) =  -1412.33699974     A.U. after   12 cycles
 SCF Done:  E(RB3LYP) =  -1412.33739026     A.U. after   12 cycles
 SCF Done:  E(RB3LYP) =  -1412.33759382     A.U. after   12 cycles
 SCF Done:  E(RB3LYP) =  -1412.33766958     A.U. after   10 cycles
 SCF Done:  E(RB3LYP) =  -1412.33768560     A.U. after   10 cycles
 SCF Done:  E(RB3LYP) =  -1412.33769089     A.U. after    9 cycles
 SCF Done:  E(RB3LYP) =  -1412.33769121     A.U. after    8 cycles
 Optimization completed.
    -- Stationary point found.
 Normal termination of Gaussian 16 at Fri Dec 11 11:52:20 2020.

 --------------------------------------------------------------------
 #N Geom=AllCheck Guess=TCheck SCRF=Check GenChk RB3LYP/6-31G(d) Freq
 --------------------------------------------------------------------

 Structure from the checkpoint file:  "JID_7185.chk"
 ------------------------------
 CID_16640971_JID_7185_neutraal
 ------------------------------
 Charge =  0 Multiplicity = 1

 SCF Done:  E(RB3LYP) =  -1412.33769121     A.U. after    1 cycles

  Exact polarizability: 223.932  -5.350 170.747  -8.438 -12.013 121.452
 Approx polarizability: 335.823  -3.761 313.709 -16.056 -35.330 198.514

                      1                      2                      3
                      A                      A                      A
 Frequencies --     35.3245                84.5452               100.9621
 Red. masses --      6.8740                 5.9797                 4.4557
 Frc consts  --      0.0051                 0.0252                 0.0268
 IR Inten    --      0.3294                 0.7485                 0.6666

                      4                      5                      6
                      A                      A                      A
 Frequencies --    103.8340               144.8721               174.3737
 Red. masses --      4.2459                 3.3183                 5.2821
 Frc consts  --      0.0270                 0.0410                 0.0946
 IR Inten    --      0.6698                 0.1468                 0.7920

                      7                      8                      9
                      A                      A                      A
 Frequencies --    209.4799               255.5172               273.0564
 Red. masses --      3.7787                 7.3721                 4.8608
 Frc consts  --      0.0977                 0.2836                 0.2135
 IR Inten    --      0.0178                 0.0709                 1.8761

                     10                     11                     12
                      A                      A                      A
 Frequencies --    292.8554               308.8925               335.7508
 Red. masses --      3.4588                 4.5446                 3.9784
 Frc consts  --      0.1748                 0.2555                 0.2642
 IR Inten    --      2.1707                 0.3037                 7.6515

                     13                     14                     15
                      A                      A                      A
 Frequencies --    364.1106               388.6821               409.3299
 Red. masses --      3.4023                 3.8775                 1.6940
 Frc consts  --      0.2658                 0.3451                 0.1672
 IR Inten    --      1.7228                 9.1467                74.3325

                     16                     17                     18
                      A                      A                      A
 Frequencies --    437.1636               454.1011               467.3803
 Red. masses --      2.5283                 4.4189                 3.2627
 Frc consts  --      0.2847                 0.5369                 0.4199
 IR Inten    --     50.9511                10.8774                 8.0271

                     19                     20                     21
                      A                      A                      A
 Frequencies --    484.7971               502.2080               533.7112
 Red. masses --      5.2997                 3.9678                 3.7343
 Frc consts  --      0.7339                 0.5896                 0.6267
 IR Inten    --      2.6565                 6.5244                 0.4611

                     22                     23                     24
                      A                      A                      A
 Frequencies --    564.8055               589.3044               649.7717
 Red. masses --      4.2078                 5.2371                 2.8253
 Frc consts  --      0.7909                 1.0716                 0.7028
 IR Inten    --      4.8701                 3.7166                20.0498

                     25                     26                     27
                      A                      A                      A
 Frequencies --    663.6505               691.8151               700.8916
 Red. masses --      2.7753                 5.2569                 5.4024
 Frc consts  --      0.7202                 1.4824                 1.5636
 IR Inten    --     17.5534                 2.9515                 9.8310

                     28                     29                     30
                      A                      A                      A
 Frequencies --    710.3369               732.1318               773.0363
 Red. masses --      2.7948                 1.9785                 2.3445
 Frc consts  --      0.8309                 0.6248                 0.8255
 IR Inten    --      2.1678                14.9198                18.0403

                     31                     32                     33
                      A                      A                      A
 Frequencies --    782.8155               807.5836               838.9354
 Red. masses --      1.7012                 5.0003                 4.4744
 Frc consts  --      0.6142                 1.9214                 1.8554
 IR Inten    --     12.6555                 1.8118                 9.8335

                     34                     35                     36
                      A                      A                      A
 Frequencies --    861.5927               895.2397               909.0917
 Red. masses --      4.3985                 1.4683                 1.8326
 Frc consts  --      1.9238                 0.6933                 0.8924
 IR Inten    --     34.0569                 5.6620                 5.0568

                     37                     38                     39
                      A                      A                      A
 Frequencies --    911.2707               953.7437               955.7483
 Red. masses --      1.3242                 1.6492                 2.5756
 Frc consts  --      0.6479                 0.8839                 1.3861
 IR Inten    --      1.1089                15.1342                13.5246

                     40                     41                     42
                      A                      A                      A
 Frequencies --    959.2575               978.0338               995.8509
 Red. masses --      1.4267                 2.1442                 1.3121
 Frc consts  --      0.7735                 1.2084                 0.7667
 IR Inten    --      6.3904                13.3729                 0.2926

                     43                     44                     45
                      A                      A                      A
 Frequencies --   1026.5657              1032.4073              1042.7073
 Red. masses --      3.0254                 1.2286                 4.3981
 Frc consts  --      1.8785                 0.7716                 2.8173
 IR Inten    --     55.6034                 0.8341                59.1668

                     46                     47                     48
                      A                      A                      A
 Frequencies --   1090.5057              1121.2004              1132.8570
 Red. masses --      2.2850                 1.7540                 1.4467
 Frc consts  --      1.6010                 1.2991                 1.0939
 IR Inten    --      3.9329                 2.2427                 0.5300

                     49                     50                     51
                      A                      A                      A
 Frequencies --   1147.6575              1184.7223              1200.1026
 Red. masses --      2.0105                 2.1424                 1.1407
 Frc consts  --      1.5602                 1.7717                 0.9679
 IR Inten    --      0.9073                 1.8954                 1.1056

                     52                     53                     54
                      A                      A                      A
 Frequencies --   1200.6691              1235.2267              1255.1462
 Red. masses --      1.1562                 2.1610                 2.5539
 Frc consts  --      0.9821                 1.9427                 2.3705
 IR Inten    --      2.0711                13.3914                34.0532

                     55                     56                     57
                      A                      A                      A
 Frequencies --   1295.5480              1324.9310              1333.7121
 Red. masses --      1.3323                 1.5555                 1.3482
 Frc consts  --      1.3176                 1.6088                 1.4130
 IR Inten    --     32.2634                 4.5971                 4.9044

                     58                     59                     60
                      A                      A                      A
 Frequencies --   1356.9827              1361.5773              1384.9493
 Red. masses --      2.2300                 2.2901                 2.6256
 Frc consts  --      2.4193                 2.5014                 2.9671
 IR Inten    --     28.7023                36.3781                 7.1107

                     61                     62                     63
                      A                      A                      A
 Frequencies --   1461.4869              1472.1317              1494.5190
 Red. masses --      1.2298                 6.9467                 1.9182
 Frc consts  --      1.5477                 8.8700                 2.5243
 IR Inten    --      5.8805                18.9823                 1.9759

                     64                     65                     66
                      A                      A                      A
 Frequencies --   1503.3048              1534.3515              1582.9579
 Red. masses --      1.2373                 2.5421                 6.4930
 Frc consts  --      1.6475                 3.5261                 9.5859
 IR Inten    --     19.2395                13.0419                 2.4244

                     67                     68                     69
                      A                      A                      A
 Frequencies --   1639.1991              1662.2567              1723.7699
 Red. masses --      6.1221                 5.7689                 4.6752
 Frc consts  --      9.6921                 9.3916                 8.1848
 IR Inten    --      0.2353                 0.2939                 2.2204

                     70                     71                     72
                      A                      A                      A
 Frequencies --   3096.9370              3154.5429              3165.9127
 Red. masses --      1.0600                 1.1055                 1.0612
 Frc consts  --      5.9897                 6.4813                 6.2666
 IR Inten    --     12.2359                 0.6535                 6.4118

                     73                     74                     75
                      A                      A                      A
 Frequencies --   3179.3597              3179.8603              3192.4977
 Red. masses --      1.0871                 1.0892                 1.0892
 Frc consts  --      6.4743                 6.4891                 6.5405
 IR Inten    --      5.6106                 7.1252                15.1671

                     76                     77                     78
                      A                      A                      A
 Frequencies --   3209.3903              3241.0125              3249.4662
 Red. masses --      1.0962                 1.0906                 1.0887
 Frc consts  --      6.6527                 6.7495                 6.7733
 IR Inten    --     31.5112                 6.2739                 1.0501

                     79                     80                     81
                      A                      A                      A
 Frequencies --   3250.6838              3274.5493              3705.9159
 Red. masses --      1.1158                 1.0990                 1.0657
 Frc consts  --      6.9471                 6.9434                 8.6235
 IR Inten    --     13.3159                 0.3503                13.6656

 - Thermochemistry -
 -------------------
 Temperature   298.150 Kelvin.  Pressure   1.00000 Atm.
 Atom     1 has atomic number  6 and mass  12.00000

 Molecular mass:   260.03296 amu.
 Principal axes and moments of inertia in atomic units:
                           1         2         3
     Eigenvalues --  2732.872945379.618256531.68842
           X            0.99972  -0.02264  -0.00686
           Y            0.02256   0.99968  -0.01128
           Z            0.00711   0.01113   0.99991
 This molecule is an asymmetric top.
 Rotational symmetry number  1.
 Warning -- assumption of classical behavior for rotation
           may cause significant error
 Rotational temperatures (Kelvin)      0.03169     0.01610     0.01326
 Rotational constants (GHZ):           0.66038     0.33548     0.27631
 Zero-point vibrational energy     586095.0 (Joules/Mol)
                                  140.08006 (Kcal/Mol)
 Warning -- explicit consideration of  23 degrees of freedom as
           vibrations may cause significant error
 Vibrational temperatures:     50.82   121.64   145.26   149.39   208.44
          (Kelvin)            250.88   301.39   367.63   392.87   421.35
                              444.43   483.07   523.87   559.23   588.93
                              628.98   653.35   672.46   697.51   722.57
                              767.89   812.63   847.88   934.88   954.85
                              995.37  1008.43  1022.02  1053.37  1112.23
                             1126.30  1161.93  1207.04  1239.64  1288.05
                             1307.98  1311.12  1372.22  1375.11  1380.16
                             1407.17  1432.81  1477.00  1485.40  1500.22
                             1568.99  1613.16  1629.93  1651.22  1704.55
                             1726.68  1727.50  1777.22  1805.88  1864.00
                             1906.28  1918.91  1952.40  1959.01  1992.63
                             2102.75  2118.07  2150.28  2162.92  2207.59
                             2277.52  2358.44  2391.62  2480.12  4455.80
                             4538.68  4555.04  4574.39  4575.11  4593.29
                             4617.60  4663.09  4675.26  4677.01  4711.35
                             5331.99

 Zero-point correction=                           0.223232 (Hartree/Particle)
 Thermal correction to Energy=                    0.237665
 Thermal correction to Enthalpy=                  0.238609
 Thermal correction to Gibbs Free Energy=         0.181996
 Sum of electronic and zero-point Energies=          -1412.114459
 Sum of electronic and thermal Energies=             -1412.100026
 Sum of electronic and thermal Enthalpies=           -1412.099082
 Sum of electronic and thermal Free Energies=        -1412.155695

                     E (Thermal)             CV                S
                      KCal/Mol        Cal/Mol-Kelvin    Cal/Mol-Kelvin
 Total                  149.137             58.419            119.153
 Electronic               0.000              0.000              0.000
 Translational            0.889              2.981             42.567
 Rotational               0.889              2.981             32.929
 Vibrational            147.360             52.458             43.657
 Vibration     1          0.594              1.982              5.505
 Vibration     2          0.601              1.960              3.782
 Vibration     3          0.604              1.948              3.436
 Vibration     4          0.605              1.946              3.381
 Vibration     5          0.616              1.908              2.739
 Vibration     6          0.627              1.874              2.388
 Vibration     7          0.642              1.826              2.048
 Vibration     8          0.666              1.753              1.692
 Vibration     9          0.676              1.723              1.577
 Vibration    10          0.688              1.687              1.457
 Vibration    11          0.698              1.657              1.368
 Vibration    12          0.717              1.604              1.232
 Vibration    13          0.738              1.546              1.104
 Vibration    14          0.757              1.494              1.005
 Vibration    15          0.774              1.450              0.929
 Vibration    16          0.797              1.389              0.836
 Vibration    17          0.813              1.352              0.783
 Vibration    18          0.825              1.322              0.745
 Vibration    19          0.841              1.284              0.697
 Vibration    20          0.858              1.245              0.653
 Vibration    21          0.889              1.175              0.579
 Vibration    22          0.921              1.107              0.514
 Vibration    23          0.947              1.055              0.468

                           ! Non-Optimized Parameters !
 Normal termination of Gaussian 16 at Fri Dec 11 12:04:51 2020.

 ----------------------------------------------------------------------
 # B3LYP/6-311++G(d,p) empiricaldispersion=gd3bj scf=xqc pop=npa geom=c
 heck
 ----------------------------------------------------------------------

 --------------------------------------
 CID_16640971_JID_7185_Energie_neutraal
 --------------------------------------
 Structure from the checkpoint file:  "JID_7185.chk"
 Charge =  0 Multiplicity = 1

 SCF Done:  E(RB3LYP) =  -1412.55632005     A.U. after   16 cycles
 Normal termination of Gaussian 16 at Fri Dec 11 12:11:34 2020.

 ----------------------------------------------------------------------
 # B3LYP/6-311++G(d,p) empiricaldispersion=gd3bj scf=xqc pop=npa geom=c
 heck
 ----------------------------------------------------------------------

 ------------------------------------
 CID_16640971_JID_7185_Energie_kation
 ------------------------------------
 Structure from the checkpoint file:  "JID_7185.chk"
 Charge =  1 Multiplicity = 2

 SCF Done:  E(UB3LYP) =  -1412.27992374     A.U. after   25 cycles
 Normal termination of Gaussian 16 at Fri Dec 11 12:25:37 2020.
 Gaussian 16:  ES64L-G16RevA.03 25-Dec-2016

 ----------------------------------------------------------------------
 # B3LYP/6-311++G(d,p) empiricaldispersion=gd3bj scf=xqc pop=npa geom=c
 heck
 ----------------------------------------------------------------------

 -----------------------------------
 CID_16640971_JID_7185_Energie_anion
 -----------------------------------
 Structure from the checkpoint file:  "JID_7185.chk"
 Charge = -1 Multiplicity = 2

                         Standard orientation:
 ---------------------------------------------------------------------
 Center     Atomic      Atomic             Coordinates (Angstroms)
 Number     Number       Type             X           Y           Z
 ---------------------------------------------------------------------
      1          6           0       -0.654073    1.498824    2.509298
      2          6           0        0.215229    1.781202    1.541571
      3          6           0        0.163211    1.274376    0.107257
      4          6           0       -1.160418    0.572377   -0.211409
      5          6           0       -1.498378   -0.765695   -0.229074
      6         16           0       -0.588554   -2.237366    0.107629
      7          6           0        0.716122   -1.534099    1.195798
      8          6           0        1.739665   -0.778159    0.403416
      9          6           0        2.982382   -1.379678    0.178618
     10          6           0        3.968532   -0.754962   -0.580111
     11          6           0        3.710243    0.500602   -1.121657
     12          6           0        2.476484    1.111651   -0.900656
     13          6           0        1.468153    0.486928   -0.156891
     14         16           0       -3.191142   -1.003354   -0.624821
     15          6           0       -3.443055    0.707342   -0.776060
     16          6           0       -2.303164    1.400595   -0.510510
     17          8           0        0.186698    2.490939   -0.666514
     18          1           0       -1.518508    0.864216    2.336999
     19          1           0       -0.530908    1.906052    3.508676
     20          1           0        1.069060    2.429743    1.728844
     21          1           0        1.167170   -2.398685    1.689567
     22          1           0        0.226582   -0.921172    1.954792
     23          1           0        3.172089   -2.360560    0.607371
     24          1           0        4.925621   -1.242847   -0.740154
     25          1           0        4.466476    1.014087   -1.708564
     26          1           0        2.294820    2.104179   -1.292454
     27          1           0       -4.414770    1.092179   -1.053240
     28          1           0       -2.235549    2.480361   -0.525889
     29          1           0        0.073870    2.228622   -1.596318
 ---------------------------------------------------------------------

 SCF Done:  E(UB3LYP) =  -1412.54792665     A.U. after   33 cycles
 SCF Done:  E(UB3LYP) =  -1412.54792665     a.u. after    1 cycles

 The electronic state is 2-A.
 Alpha  occ. eigenvalues --  -88.75858 -88.73634 -19.00855 -10.13588 -10.10512
 Alpha  occ. eigenvalues --  -10.08662 -10.07860 -10.06698 -10.06502 -10.06447
 Alpha  occ. eigenvalues --  -10.06418 -10.06109 -10.05921 -10.05553 -10.05461
 Alpha  occ. eigenvalues --  -10.05437 -10.05401  -7.84483  -7.82237  -5.80795
 Alpha  occ. eigenvalues --   -5.80417  -5.80055  -5.78636  -5.78259  -5.77625
 Alpha  occ. eigenvalues --   -0.91747  -0.77192  -0.74855  -0.69477  -0.68580
 Alpha  occ. eigenvalues --   -0.64124  -0.63723  -0.62419  -0.59914  -0.55413
 Alpha  occ. eigenvalues --   -0.53719  -0.48987  -0.47335  -0.45610  -0.44938
 Alpha  occ. eigenvalues --   -0.41275  -0.40529  -0.38721  -0.36589  -0.36209
 Alpha  occ. eigenvalues --   -0.34974  -0.33067  -0.32266  -0.31285  -0.30460
 Alpha  occ. eigenvalues --   -0.30087  -0.28500  -0.27309  -0.26948  -0.25723
 Alpha  occ. eigenvalues --   -0.25124  -0.24595  -0.23837  -0.23272  -0.21889
 Alpha  occ. eigenvalues --   -0.21431  -0.17882  -0.16775  -0.16385  -0.13886
 Alpha  occ. eigenvalues --   -0.13660  -0.12994  -0.09235   0.04922
 Alpha virt. eigenvalues --    0.07260   0.07635   0.07983   0.08370   0.08636
 Alpha virt. eigenvalues --    0.09069   0.09468   0.09991   0.10647   0.11175
 Alpha virt. eigenvalues --    0.11369   0.12135   0.12425   0.12752   0.13119

  Beta  occ. eigenvalues --  -88.75839 -88.73602 -19.00779 -10.13592 -10.10355
  Beta  occ. eigenvalues --  -10.08587 -10.07758 -10.06670 -10.06420 -10.06346
  Beta  occ. eigenvalues --  -10.06338 -10.06128 -10.05942 -10.05466 -10.05453
  Beta  occ. eigenvalues --  -10.05391 -10.05332  -7.84466  -7.82205  -5.80789
  Beta  occ. eigenvalues --   -5.80410  -5.79990  -5.78584  -5.78218  -5.77592
  Beta  occ. eigenvalues --   -0.91560  -0.77027  -0.74692  -0.69288  -0.68406
  Beta  occ. eigenvalues --   -0.63914  -0.63560  -0.62297  -0.59768  -0.55261
  Beta  occ. eigenvalues --   -0.53544  -0.48893  -0.47127  -0.45459  -0.44794
  Beta  occ. eigenvalues --   -0.41140  -0.40430  -0.38572  -0.36503  -0.36089
  Beta  occ. eigenvalues --   -0.34882  -0.32964  -0.32175  -0.31165  -0.30325
  Beta  occ. eigenvalues --   -0.29997  -0.28386  -0.27026  -0.26775  -0.25506
  Beta  occ. eigenvalues --   -0.24949  -0.24453  -0.23669  -0.23189  -0.21711
  Beta  occ. eigenvalues --   -0.21226  -0.17718  -0.16379  -0.16017  -0.13611
  Beta  occ. eigenvalues --   -0.13404  -0.12385  -0.08852
  Beta virt. eigenvalues --    0.07274   0.07627   0.08256   0.08501   0.08676
  Beta virt. eigenvalues --    0.09241   0.09351   0.09905   0.10226   0.10808
  Beta virt. eigenvalues --    0.11202   0.11607   0.12183   0.12544   0.12838

 Mulliken charges and spin densities:
               1          2
     1  C   -0.629914   0.032653
     2  C   -0.102811  -0.160565
     3  C    0.779633  -0.290947
     4  C   -0.493361   0.160628
     5  C    0.029956   0.211238
     6  S   -0.022016  -0.074882
     7  C    0.690874  -1.096518
     8  C   -0.302746   1.146180
     9  C   -0.008992  -0.121371
    10  C    0.204051  -0.645263
    11  C    0.100542  -0.586252
    12  C   -0.132842   0.040741
    13  C   -0.978280   0.846589
    14  S   -0.500563   0.105397
    15  C   -0.040859  -0.115103
    16  C    0.563188  -0.542736
    17  O   -0.061330  -0.072705
    18  H    0.202313  -0.056910
    19  H    0.072564   0.047599
    20  H    0.170872   0.017494
    21  H    0.170486   0.075079
    22  H    0.106295   0.096547
    23  H   -0.284284   0.404210
    24  H   -0.121126   0.247641
    25  H   -0.099548   0.239233
    26  H   -0.245885   0.405106
    27  H   -0.006193   0.234857
    28  H    0.003569   0.176593
    29  H   -0.063593   0.275468
 Sum of Mulliken charges =  -1.00000   1.00000

 Dipole moment (field-independent basis, Debye):
    X=             -1.9577    Y=             -0.4675    Z=              1.6928  Tot=              2.6300
 Quadrupole moment (field-independent basis, Debye-Ang):
   XX=           -162.3519   YY=           -148.9029   ZZ=           -135.5854
   XY=             -0.1562   XZ=              1.7288   YZ=              0.9027

 Summary of Natural Population Analysis:

                                       Natural Population
                Natural  -----------------------------------------------
    Atom  No    Charge         Core      Valence    Rydberg      Total
 -----------------------------------------------------------------------
      C    1   -0.19398      0.99956     2.18790    0.00652     3.19398
      C    2   -0.06460      0.99952     2.05428    0.01080     3.06460
      C    3    0.11263      0.99944     1.87076    0.01717     2.88737
      C    4   -0.07413      0.99938     2.06054    0.01422     3.07413
      C    5   -0.15646      0.99936     2.14418    0.01292     3.15646
      S    6    0.14534      4.99948     2.83630    0.01888     7.85466
      C    7   -0.24625      0.99955     2.23449    0.01221     3.24625
      C    8   -0.00417      0.99946     1.99441    0.01031     3.00417
      C    9   -0.10461      0.99952     2.09483    0.01026     3.10461
      C   10   -0.08872      0.99956     2.07936    0.00980     3.08872
      C   11   -0.09207      0.99956     2.08306    0.00946     3.09207
      C   12   -0.10331      0.99951     2.09323    0.01057     3.10331
      C   13   -0.00522      0.99943     1.99371    0.01207     3.00522
      S   14    0.20192      4.99940     2.77783    0.02085     7.79808
      C   15   -0.18950      0.99953     2.17783    0.01214     3.18950
      C   16   -0.12296      0.99949     2.11242    0.01106     3.12296
      O   17   -0.37031      0.99990     3.36329    0.00712     4.37031
      H   18    0.09779      0.00000     0.40103    0.00118     0.40221
      H   19    0.09101      0.00000     0.40787    0.00113     0.40899
      H   20    0.09768      0.00000     0.40128    0.00104     0.40232
      H   21    0.10628      0.00000     0.39270    0.00102     0.39372
      H   22    0.11626      0.00000     0.38217    0.00156     0.38374
      H   23    0.09582      0.00000     0.40286    0.00132     0.40418
      H   24    0.09513      0.00000     0.40399    0.00087     0.40487
      H   25    0.09529      0.00000     0.40388    0.00083     0.40471
      H   26    0.10829      0.00000     0.39048    0.00123     0.39171
      H   27    0.10504      0.00000     0.39404    0.00092     0.39496
      H   28    0.11471      0.00000     0.38429    0.00100     0.38529
      H   29    0.23313      0.00000     0.26314    0.00373     0.26687
 =======================================================================
   * Total *    0.00000     24.99163    42.78614    0.22222    68.00000

 Normal termination of Gaussian 16 at Fri Dec 11 12:48:32 2020.
