 Gaussian 16, Revision A.03,

 -----------------------------------------------------------
 # opt freq B3LYP/6-31G(d) empiricaldispersion=gd3bj scf=xqc
 -----------------------------------------------------------

 -----------------------------
 CID_89871060_JID_715_neutraal
 -----------------------------
 Symbolic Z-matrix:
 Charge =  0 Multiplicity = 1

 SCF Done:  E(RB3LYP) =  -1143.14485619     A.U. after   15 cycles
 SCF Done:  E(RB3LYP) =  -1143.14723311     A.U. after   13 cycles
 SCF Done:  E(RB3LYP) =  -1143.14735285     A.U. after   14 cycles
 SCF Done:  E(RB3LYP) =  -1143.14831895     A.U. after   13 cycles
 SCF Done:  E(RB3LYP) =  -1143.14868812     A.U. after   13 cycles
 SCF Done:  E(RB3LYP) =  -1143.14875403     A.U. after   11 cycles
 SCF Done:  E(RB3LYP) =  -1143.14876146     A.U. after   10 cycles
 SCF Done:  E(RB3LYP) =  -1143.14876268     A.U. after    9 cycles
 SCF Done:  E(RB3LYP) =  -1143.14876283     A.U. after    8 cycles
 Optimization completed.
    -- Stationary point found.
 Normal termination of Gaussian 16 at Tue Dec  8 12:30:05 2020.

 --------------------------------------------------------------------
 #N Geom=AllCheck Guess=TCheck SCRF=Check GenChk RB3LYP/6-31G(d) Freq
 --------------------------------------------------------------------

 Structure from the checkpoint file:  "JID_715.chk"
 -----------------------------
 CID_89871060_JID_715_neutraal
 -----------------------------
 Charge =  0 Multiplicity = 1

 SCF Done:  E(RB3LYP) =  -1143.14876283     A.U. after    1 cycles

  Exact polarizability: 133.133  -5.931 126.322   3.124  -0.414  61.140
 Approx polarizability: 208.536  -0.624 217.740  14.547   3.250  96.906

                      1                      2                      3
                      A                      A                      A
 Frequencies --     82.7460               113.1502               161.6614
 Red. masses --      4.4289                 3.9080                 6.9311
 Frc consts  --      0.0179                 0.0295                 0.1067
 IR Inten    --      6.0777                 1.8067                 5.0927

                      4                      5                      6
                      A                      A                      A
 Frequencies --    174.0128               205.9855               229.7381
 Red. masses --      4.5158                 1.1996                 1.0650
 Frc consts  --      0.0806                 0.0300                 0.0331
 IR Inten    --      0.9503                10.0867                 9.3145

                      7                      8                      9
                      A                      A                      A
 Frequencies --    247.0525               283.9386               330.3952
 Red. masses --      4.4784                 3.7770                 4.2975
 Frc consts  --      0.1610                 0.1794                 0.2764
 IR Inten    --      6.9776                 2.1102                 5.2898

                     10                     11                     12
                      A                      A                      A
 Frequencies --    381.5191               401.8080               457.6009
 Red. masses --      7.5966                 7.2092                 3.5710
 Frc consts  --      0.6515                 0.6858                 0.4406
 IR Inten    --      7.9273                 3.7030                 6.1728

                     13                     14                     15
                      A                      A                      A
 Frequencies --    498.6802               526.7275               657.8564
 Red. masses --      7.0842                 4.2721                 5.4518
 Frc consts  --      1.0380                 0.6983                 1.3901
 IR Inten    --      5.1410                 6.0761                10.4141

                     16                     17                     18
                      A                      A                      A
 Frequencies --    671.8093               717.7935               740.8609
 Red. masses --      6.5559                 4.5560                 6.6565
 Frc consts  --      1.7433                 1.3830                 2.1526
 IR Inten    --      1.6507                 2.5802                 6.0781

                     19                     20                     21
                      A                      A                      A
 Frequencies --    774.7484               888.5989               935.3857
 Red. masses --      1.1959                 1.2834                 1.1785
 Frc consts  --      0.4229                 0.5971                 0.6075
 IR Inten    --     43.9083                 0.5597                 6.7732

                     22                     23                     24
                      A                      A                      A
 Frequencies --    966.8655               975.2698               988.8800
 Red. masses --      1.3245                 1.4429                 1.2984
 Frc consts  --      0.7295                 0.8086                 0.7481
 IR Inten    --      0.6094                11.1513                19.7703

                     25                     26                     27
                      A                      A                      A
 Frequencies --   1001.6809              1044.8597              1066.4635
 Red. masses --      1.2811                 6.0171                 2.9241
 Frc consts  --      0.7573                 3.8704                 1.9594
 IR Inten    --      1.2749                32.2699                 2.5544

                     28                     29                     30
                      A                      A                      A
 Frequencies --   1090.0976              1128.4143              1162.3639
 Red. masses --      9.7388                 2.6791                 1.5552
 Frc consts  --      6.8185                 2.0099                 1.2380
 IR Inten    --     80.5350                29.7815                 1.5512

                     31                     32                     33
                      A                      A                      A
 Frequencies --   1196.4338              1287.5010              1346.8413
 Red. masses --      1.1137                 1.4754                 7.4052
 Frc consts  --      0.9393                 1.4410                 7.9144
 IR Inten    --      0.8415                 9.6686                 0.7069

                     34                     35                     36
                      A                      A                      A
 Frequencies --   1356.1768              1478.1380              1483.3291
 Red. masses --      1.1912                 2.0013                 1.0742
 Frc consts  --      1.2908                 2.5763                 1.3925
 IR Inten    --      5.6329                12.0736                 4.3362

                     37                     38                     39
                      A                      A                      A
 Frequencies --   1490.8851              1499.6499              1625.5677
 Red. masses --      1.0725                 2.2290                 5.8510
 Frc consts  --      1.4045                 2.9535                 9.1094
 IR Inten    --     16.1217                20.4835                 0.7119

                     40                     41                     42
                      A                      A                      A
 Frequencies --   1639.3011              2660.2502              3071.3729
 Red. masses --      5.5205                 1.0383                 1.0279
 Frc consts  --      8.7407                 4.3291                 5.7133
 IR Inten    --      6.8696                 6.8985                 5.5900

                     43                     44                     45
                      A                      A                      A
 Frequencies --   3173.6086              3179.7571              3192.4151
 Red. masses --      1.1069                 1.1077                 1.0856
 Frc consts  --      6.5686                 6.5987                 6.5190
 IR Inten    --      3.7319                 0.8555                 1.9775

                     46                     47                     48
                      A                      A                      A
 Frequencies --   3200.9934              3207.9013              3217.0762
 Red. masses --      1.0886                 1.0927                 1.0976
 Frc consts  --      6.5721                 6.6254                 6.6930
 IR Inten    --      6.0925                 3.4150                24.6290

 - Thermochemistry -
 -------------------
 Temperature   298.150 Kelvin.  Pressure   1.00000 Atm.
 Atom     1 has atomic number  6 and mass  12.00000

 Molecular mass:   172.00166 amu.
 Principal axes and moments of inertia in atomic units:
                           1         2         3
     Eigenvalues --  1400.093691953.226953032.43051
           X            0.99738  -0.07019  -0.01757
           Y            0.07015   0.99753  -0.00302
           Z            0.01774   0.00178   0.99984
 This molecule is an asymmetric top.
 Rotational symmetry number  1.
 Warning -- assumption of classical behavior for rotation
           may cause significant error
 Rotational temperatures (Kelvin)      0.06186     0.04434     0.02856
 Rotational constants (GHZ):           1.28901     0.92398     0.59515
 Zero-point vibrational energy     348198.0 (Joules/Mol)
                                   83.22132 (Kcal/Mol)
 Warning -- explicit consideration of  14 degrees of freedom as
           vibrations may cause significant error
 Vibrational temperatures:    119.05   162.80   232.59   250.37   296.37
          (Kelvin)            330.54   355.45   408.52   475.36   548.92
                              578.11   658.39   717.49   757.84   946.51
                              966.58  1032.74  1065.93  1114.69  1278.50
                             1345.81  1391.10  1403.20  1422.78  1441.20
                             1503.32  1534.40  1568.41  1623.54  1672.38
                             1721.40  1852.43  1937.80  1951.24  2126.71
                             2134.18  2145.05  2157.66  2338.83  2358.59
                             3827.51  4419.02  4566.11  4574.96  4593.17
                             4605.52  4615.45  4628.66

 Zero-point correction=                           0.132622 (Hartree/Particle)
 Thermal correction to Energy=                    0.142868
 Thermal correction to Enthalpy=                  0.143813
 Thermal correction to Gibbs Free Energy=         0.096808
 Sum of electronic and zero-point Energies=          -1143.016141
 Sum of electronic and thermal Energies=             -1143.005894
 Sum of electronic and thermal Enthalpies=           -1143.004950
 Sum of electronic and thermal Free Energies=        -1143.051955

                     E (Thermal)             CV                S
                      KCal/Mol        Cal/Mol-Kelvin    Cal/Mol-Kelvin
 Total                   89.651             38.129             98.930
 Electronic               0.000              0.000              0.000
 Translational            0.889              2.981             41.335
 Rotational               0.889              2.981             30.495
 Vibrational             87.874             32.167             27.100
 Vibration     1          0.600              1.961              3.825
 Vibration     2          0.607              1.939              3.214
 Vibration     3          0.622              1.889              2.530
 Vibration     4          0.627              1.874              2.392
 Vibration     5          0.640              1.831              2.079
 Vibration     6          0.652              1.796              1.881
 Vibration     7          0.661              1.768              1.752
 Vibration     8          0.682              1.703              1.510
 Vibration     9          0.713              1.615              1.258
 Vibration    10          0.751              1.510              1.033
 Vibration    11          0.767              1.466              0.956
 Vibration    12          0.816              1.344              0.773
 Vibration    13          0.854              1.253              0.661
 Vibration    14          0.882              1.191              0.595

 Optimization completed.
    -- Stationary point found.
 Normal termination of Gaussian 16 at Tue Dec  8 12:39:32 2020.

 ----------------------------------------------------------------------
 # B3LYP/6-311++G(d,p) empiricaldispersion=gd3bj scf=xqc pop=npa geom=c
 heck
 ----------------------------------------------------------------------

 -------------------------------------
 CID_89871060_JID_715_Energie_neutraal
 -------------------------------------
 Structure from the checkpoint file:  "JID_715.chk"
 Charge =  0 Multiplicity = 1

 SCF Done:  E(RB3LYP) =  -1143.30266845     A.U. after   21 cycles
 Normal termination of Gaussian 16 at Tue Dec  8 12:50:24 2020.

 ----------------------------------------------------------------------
 # B3LYP/6-311++G(d,p) empiricaldispersion=gd3bj scf=xqc pop=npa geom=c
 heck
 ----------------------------------------------------------------------

 -----------------------------------
 CID_89871060_JID_715_Energie_kation
 -----------------------------------
 Structure from the checkpoint file:  "JID_715.chk"
 Charge =  1 Multiplicity = 2

 SCF Done:  E(UB3LYP) =  -1142.99658541     A.U. after   27 cycles
 Normal termination of Gaussian 16 at Tue Dec  8 13:04:47 2020.
 Gaussian 16:  ES64L-G16RevA.03 25-Dec-2016

 ----------------------------------------------------------------------
 # B3LYP/6-311++G(d,p) empiricaldispersion=gd3bj scf=xqc pop=npa geom=c
 heck
 ----------------------------------------------------------------------

 ----------------------------------
 CID_89871060_JID_715_Energie_anion
 ----------------------------------
 Structure from the checkpoint file:  "JID_715.chk"
 Charge = -1 Multiplicity = 2

                         Standard orientation:
 ---------------------------------------------------------------------
 Center     Atomic      Atomic             Coordinates (Angstroms)
 Number     Number       Type             X           Y           Z
 ---------------------------------------------------------------------
      1          6           0       -2.092045    0.388739    1.373097
      2         16           0       -1.752328   -0.081239   -0.368157
      3          8           0       -2.402378   -1.426250   -0.602220
      4          6           0        0.030472   -0.394089   -0.127431
      5          6           0        0.418859   -1.728216   -0.043387
      6          6           0        1.763351   -2.049530    0.134774
      7          6           0        2.713110   -1.029364    0.204183
      8          6           0        2.326612    0.304670    0.078753
      9          6           0        0.978229    0.637072   -0.093208
     10         16           0        0.552329    2.376423   -0.187269
     11          1           0       -1.836147   -0.461263    2.010015
     12          1           0       -3.160400    0.607049    1.444115
     13          1           0       -1.501778    1.270307    1.633949
     14          1           0       -0.353671   -2.488503   -0.119524
     15          1           0        2.068367   -3.088699    0.212626
     16          1           0        3.764260   -1.269633    0.334016
     17          1           0        3.070818    1.095164    0.097032
     18          1           0       -0.463959    2.246960   -1.068349
 ---------------------------------------------------------------------

 SCF Done:  E(UB3LYP) =  -1143.29551281     A.U. after   33 cycles
 SCF Done:  E(UB3LYP) =  -1143.29551281     a.u. after    1 cycles

 The electronic state is 2-A.
 Alpha  occ. eigenvalues --  -88.81361 -88.73294 -18.95056 -10.07349 -10.05626
 Alpha  occ. eigenvalues --  -10.05132 -10.04978 -10.04232 -10.03673 -10.03295
 Alpha  occ. eigenvalues --   -7.88991  -7.81947  -5.85283  -5.85115  -5.84605
 Alpha  occ. eigenvalues --   -5.78299  -5.77968  -5.77371  -0.88164  -0.73670
 Alpha  occ. eigenvalues --   -0.66174  -0.64673  -0.60892  -0.57874  -0.51525
 Alpha  occ. eigenvalues --   -0.46980  -0.44949  -0.38297  -0.34263  -0.33081
 Alpha  occ. eigenvalues --   -0.31420  -0.31156  -0.30284  -0.29453  -0.27678
 Alpha  occ. eigenvalues --   -0.26461  -0.23907  -0.23477  -0.22290  -0.21263
 Alpha  occ. eigenvalues --   -0.16628  -0.14415  -0.13651  -0.11237  -0.09655
 Alpha  occ. eigenvalues --    0.05667
 Alpha virt. eigenvalues --    0.08529   0.08981   0.09919   0.10593   0.10858
 Alpha virt. eigenvalues --    0.11748   0.12098   0.12938   0.13115   0.14073
 Alpha virt. eigenvalues --    0.15367   0.15573   0.16178   0.17401   0.17626

  Beta  occ. eigenvalues --  -88.81351 -88.73297 -18.95032 -10.07108 -10.05453
  Beta  occ. eigenvalues --  -10.05062 -10.04860 -10.04232 -10.03567 -10.03001
  Beta  occ. eigenvalues --   -7.88980  -7.81949  -5.85273  -5.85080  -5.84606
  Beta  occ. eigenvalues --   -5.78296  -5.77979  -5.77373  -0.88088  -0.73280
  Beta  occ. eigenvalues --   -0.65834  -0.64351  -0.60567  -0.57616  -0.51175
  Beta  occ. eigenvalues --   -0.46876  -0.44526  -0.38114  -0.34060  -0.32808
  Beta  occ. eigenvalues --   -0.31222  -0.30957  -0.30115  -0.29210  -0.27512
  Beta  occ. eigenvalues --   -0.26093  -0.23451  -0.23123  -0.22132  -0.21092
  Beta  occ. eigenvalues --   -0.16007  -0.14141  -0.12535  -0.10843  -0.09006
  Beta virt. eigenvalues --    0.08579   0.09185   0.09696   0.10484   0.11100
  Beta virt. eigenvalues --    0.11398   0.11904   0.12559   0.13052   0.13487
  Beta virt. eigenvalues --    0.14321   0.15443   0.15555   0.16202   0.17618

 Mulliken charges and spin densities:
               1          2
     1  C    0.615997  -1.250100
     2  S    0.277920   0.511185
     3  O   -0.498059   0.001507
     4  C   -0.251085   0.219469
     5  C    0.602409  -0.004402
     6  C   -0.442957   0.065281
     7  C   -0.209469   0.241957
     8  C   -0.670504  -0.036230
     9  C    0.314448   0.062842
    10  S   -0.620587   0.017239
    11  H   -0.003255   0.182829
    12  H   -0.523088   0.694859
    13  H   -0.169619   0.288052
    14  H    0.219588  -0.000654
    15  H    0.112829  -0.007292
    16  H    0.108211  -0.019872
    17  H    0.110222   0.019187
    18  H    0.026999   0.014143
 Sum of Mulliken charges =  -1.00000   1.00000

 Dipole moment (field-independent basis, Debye):
    X=              4.4050    Y=              0.6157    Z=             -1.5174  Tot=              4.6996
 Quadrupole moment (field-independent basis, Debye-Ang):
   XX=           -113.8916   YY=            -96.9277   ZZ=            -94.5440
   XY=             -1.9474   XZ=              7.2171   YZ=             -6.2860

 Summary of Natural Population Analysis:

                                       Natural Population
                Natural  -----------------------------------------------
    Atom  No    Charge         Core      Valence    Rydberg      Total
 -----------------------------------------------------------------------
      C    1   -0.36429      0.99962     2.35551    0.00915     3.36429
      S    2    0.59481      4.99936     2.34763    0.05820     7.40519
      O    3   -0.49343      0.99993     3.48640    0.00710     4.49343
      C    4   -0.08059      0.99928     2.06477    0.01653     3.08059
      C    5   -0.10143      0.99950     2.09246    0.00948     3.10143
      C    6   -0.09199      0.99957     2.08328    0.00914     3.09199
      C    7   -0.05032      0.99958     2.04128    0.00947     3.05032
      C    8   -0.12821      0.99951     2.11963    0.00907     3.12821
      C    9   -0.05051      0.99931     2.03938    0.01182     3.05051
      S   10   -0.01126      4.99959     2.99475    0.01692     8.01126
      H   11    0.10699      0.00000     0.39169    0.00132     0.39301
      H   12    0.10584      0.00000     0.39011    0.00405     0.39416
      H   13    0.11118      0.00000     0.38681    0.00201     0.38882
      H   14    0.11357      0.00000     0.38529    0.00114     0.38643
      H   15    0.09073      0.00000     0.40827    0.00100     0.40927
      H   16    0.08832      0.00000     0.41069    0.00098     0.41168
      H   17    0.09626      0.00000     0.40248    0.00126     0.40374
      H   18    0.06432      0.00000     0.43170    0.00399     0.43568
 =======================================================================
   * Total *    0.00000     17.99524    26.83214    0.17262    45.00000

 Normal termination of Gaussian 16 at Tue Dec  8 13:17:15 2020.
