 Gaussian 16, Revision A.03,

 -----------------------------------------------------------
 # opt freq B3LYP/6-31G(d) empiricaldispersion=gd3bj scf=xqc
 -----------------------------------------------------------

 -------------------------------
 CID_130977853_JID_2224_neutraal
 -------------------------------
 Symbolic Z-matrix:
 Charge =  0 Multiplicity = 1

 SCF Done:  E(RB3LYP) =  -532.254627950     A.U. after   15 cycles
 SCF Done:  E(RB3LYP) =  -532.263001601     A.U. after   14 cycles
 SCF Done:  E(RB3LYP) =  -532.267824812     A.U. after   15 cycles
 SCF Done:  E(RB3LYP) =  -532.269407797     A.U. after   13 cycles
 SCF Done:  E(RB3LYP) =  -532.269964288     A.U. after   12 cycles
 SCF Done:  E(RB3LYP) =  -532.270197200     A.U. after   12 cycles
 SCF Done:  E(RB3LYP) =  -532.270327067     A.U. after   11 cycles
 SCF Done:  E(RB3LYP) =  -532.270421651     A.U. after   12 cycles
 SCF Done:  E(RB3LYP) =  -532.270513969     A.U. after   12 cycles
 SCF Done:  E(RB3LYP) =  -532.270550145     A.U. after   11 cycles
 SCF Done:  E(RB3LYP) =  -532.270646572     A.U. after   10 cycles
 SCF Done:  E(RB3LYP) =  -532.270659230     A.U. after   10 cycles
 SCF Done:  E(RB3LYP) =  -532.270666801     A.U. after   10 cycles
 SCF Done:  E(RB3LYP) =  -532.270667897     A.U. after    8 cycles
 SCF Done:  E(RB3LYP) =  -532.270668019     A.U. after    7 cycles
 SCF Done:  E(RB3LYP) =  -532.270668059     A.U. after    7 cycles
 Optimization completed.
    -- Stationary point found.

 1\1\GINC-NODE125\FOpt\RB3LYP\6-31G(d)\C8H14N4\VSC10255\09-Dec-2020\0\\
 # opt freq B3LYP/6-31G(d) empiricaldispersion=gd3bj scf=xqc\\CID_13097
 7853_JID_2224_neutraal\\0,1\C,1.7232640176,-0.238496286,-0.7729880961\
 C,1.6723831491,-1.7716246947,-0.6369507506\C,0.749589053,-2.2128733083
 ,0.4800640991\N,-0.5341984579,-2.2196288523,0.4193761353\N,-1.14002253
 15,-1.7957973654,-0.7412344899\C,-2.469227912,-2.1955514773,-0.8978231
 393\C,-3.3048387617,-2.9874857049,-0.1291156162\C,-4.5369157987,-2.948
 5709307,-0.8193718619\N,-4.4844141211,-2.2077506499,-1.9240802735\N,-3

 Normal termination of Gaussian 16 at Wed Dec  9 16:58:53 2020.

 --------------------------------------------------------------------
 #N Geom=AllCheck Guess=TCheck SCRF=Check GenChk RB3LYP/6-31G(d) Freq
 --------------------------------------------------------------------

 Structure from the checkpoint file:  "JID_2224.chk"
 -------------------------------
 CID_130977853_JID_2224_neutraal
 -------------------------------
 Charge =  0 Multiplicity = 1

 SCF Done:  E(RB3LYP) =  -532.270668059     A.U. after    1 cycles

  Exact polarizability: 161.837   1.651 114.925  -2.869  -3.161  65.631
 Approx polarizability: 221.584  -0.041 169.141  -7.069  -6.520  98.944

                      1                      2                      3
                      A                      A                      A
 Frequencies --     27.4305                63.2875                77.3143
 Red. masses --      3.2185                 3.3342                 2.9470
 Frc consts  --      0.0014                 0.0079                 0.0104
 IR Inten    --      0.2377                 0.1396                 0.2042

                      4                      5                      6
                      A                      A                      A
 Frequencies --    106.0014               117.2410               177.1265
 Red. masses --      1.9589                 1.5915                 2.8721
 Frc consts  --      0.0130                 0.0129                 0.0531
 IR Inten    --      1.0792                 0.1400                 5.1949

                      7                      8                      9
                      A                      A                      A
 Frequencies --    195.7423               198.7876               224.7235
 Red. masses --      1.0870                 2.3085                 1.2400
 Frc consts  --      0.0245                 0.0537                 0.0369
 IR Inten    --      2.1394                 0.2202                 0.0845

                     10                     11                     12
                      A                      A                      A
 Frequencies --    252.6098               274.6783               322.6039
 Red. masses --      3.1504                 3.5307                 2.9204
 Frc consts  --      0.1184                 0.1569                 0.1791
 IR Inten    --      1.5677                 2.5417                16.8887

                     13                     14                     15
                      A                      A                      A
 Frequencies --    345.3109               393.2202               489.9869
 Red. masses --      2.7099                 2.5885                 2.8770
 Frc consts  --      0.1904                 0.2358                 0.4070
 IR Inten    --      7.5113                10.3132                 5.5156

                     16                     17                     18
                      A                      A                      A
 Frequencies --    525.0355               561.3124               624.9883
 Red. masses --      2.2203                 3.6431                 3.5170
 Frc consts  --      0.3606                 0.6763                 0.8094
 IR Inten    --     37.9865                 3.9843                 8.9908

                     19                     20                     21
                      A                      A                      A
 Frequencies --    645.8581               671.6795               708.3301
 Red. masses --      5.6083                 4.2007                 4.3745
 Frc consts  --      1.3783                 1.1166                 1.2932
 IR Inten    --      3.9806                 9.3133                 5.6081

                     22                     23                     24
                      A                      A                      A
 Frequencies --    775.9449               783.0036               804.9307
 Red. masses --      1.2663                 2.7229                 1.3372
 Frc consts  --      0.4492                 0.9836                 0.5105
 IR Inten    --     37.2318                 3.2484                 0.7060

                     25                     26                     27
                      A                      A                      A
 Frequencies --    872.8658               879.9402               955.6969
 Red. masses --      1.2997                 2.8535                 3.7434
 Frc consts  --      0.5834                 1.3018                 2.0144
 IR Inten    --      3.3331                 4.4510                23.2402

                     28                     29                     30
                      A                      A                      A
 Frequencies --    990.0315              1020.2431              1025.4404
 Red. masses --      2.0142                 1.7105                 1.9506
 Frc consts  --      1.1632                 1.0490                 1.2085
 IR Inten    --      2.6326                 9.1253                11.0424

                     31                     32                     33
                      A                      A                      A
 Frequencies --   1041.5756              1070.8878              1085.0637
 Red. masses --      1.4197                 1.6290                 2.1561
 Frc consts  --      0.9075                 1.1007                 1.4957
 IR Inten    --      1.7887                 8.4663                57.9321

                     34                     35                     36
                      A                      A                      A
 Frequencies --   1110.4194              1158.8990              1165.6999
 Red. masses --      1.7980                 1.2934                 2.4330
 Frc consts  --      1.3062                 1.0234                 1.9479
 IR Inten    --     17.7871                 4.3601                45.8289

                     37                     38                     39
                      A                      A                      A
 Frequencies --   1211.1077              1246.1416              1264.7632
 Red. masses --      2.1357                 1.9975                 2.0302
 Frc consts  --      1.8457                 1.8276                 1.9134
 IR Inten    --     85.2442                11.1153                17.5269

                     40                     41                     42
                      A                      A                      A
 Frequencies --   1306.2366              1322.8474              1374.0145
 Red. masses --      1.3975                 4.0453                 1.7785
 Frc consts  --      1.4049                 4.1709                 1.9783
 IR Inten    --      3.3264                31.0653                 2.3803

                     43                     44                     45
                      A                      A                      A
 Frequencies --   1386.6790              1433.6366              1439.2733
 Red. masses --      3.1179                 1.4684                 1.2094
 Frc consts  --      3.5323                 1.7782                 1.4761
 IR Inten    --      9.1468                28.9315                 2.2311

                     46                     47                     48
                      A                      A                      A
 Frequencies --   1443.7137              1475.4301              1484.6244
 Red. masses --      2.0103                 1.6096                 1.5752
 Frc consts  --      2.4688                 2.0645                 2.0456
 IR Inten    --     10.0830                15.8929                 5.8131

                     49                     50                     51
                      A                      A                      A
 Frequencies --   1508.8084              1510.1677              1516.2771
 Red. masses --      1.0543                 1.0894                 1.0662
 Frc consts  --      1.4141                 1.4638                 1.4442
 IR Inten    --      6.9214                 7.0515                14.7195

                     52                     53                     54
                      A                      A                      A
 Frequencies --   1528.7137              1530.8412              1538.2570
 Red. masses --      1.0479                 1.1077                 1.0742
 Frc consts  --      1.4429                 1.5294                 1.4976
 IR Inten    --      1.9735                 5.3173                11.3493

                     55                     56                     57
                      A                      A                      A
 Frequencies --   1545.8126              1582.7149              1623.4186
 Red. masses --      1.1599                 2.4587                 6.8209
 Frc consts  --      1.6329                 3.6287                10.5914
 IR Inten    --     12.0432                83.0380               184.5172

                     58                     59                     60
                      A                      A                      A
 Frequencies --   1721.7113              3007.9412              3032.1045
 Red. masses --      8.0791                 1.0714                 1.0402
 Frc consts  --     14.1103                 5.7115                 5.6343
 IR Inten    --      5.3424                27.2084                34.5632

                     61                     62                     63
                      A                      A                      A
 Frequencies --   3035.1709              3058.4420              3077.5614
 Red. masses --      1.0451                 1.0347                 1.0998
 Frc consts  --      5.6725                 5.7026                 6.1376
 IR Inten    --     52.5380                26.7823                21.6505

                     64                     65                     66
                      A                      A                      A
 Frequencies --   3087.9186              3102.9090              3126.4106
 Red. masses --      1.0912                 1.0957                 1.1033
 Frc consts  --      6.1301                 6.2157                 6.3540
 IR Inten    --     20.0434                21.7005                27.1366

                     67                     68                     69
                      A                      A                      A
 Frequencies --   3134.6845              3156.4692              3180.8963
 Red. masses --      1.1027                 1.0984                 1.0992
 Frc consts  --      6.3841                 6.4479                 6.5530
 IR Inten    --     29.7484                10.8146                 3.0759

                     70                     71                     72
                      A                      A                      A
 Frequencies --   3252.4931              3306.1444              3462.5033
 Red. masses --      1.0946                 1.0988                 1.0736
 Frc consts  --      6.8225                 7.0762                 7.5833
 IR Inten    --     16.0445                 0.4343                 1.5147

 - Thermochemistry -
 -------------------
 Temperature   298.150 Kelvin.  Pressure   1.00000 Atm.
 Atom     1 has atomic number  6 and mass  12.00000

 Molecular mass:   166.12185 amu.
 Principal axes and moments of inertia in atomic units:
                           1         2         3
     Eigenvalues --   977.396083581.078284429.76738
           X            1.00000  -0.00183   0.00066
           Y            0.00183   1.00000  -0.00009
           Z           -0.00066   0.00010   1.00000
 This molecule is an asymmetric top.
 Rotational symmetry number  1.
 Warning -- assumption of classical behavior for rotation
           may cause significant error
 Rotational temperatures (Kelvin)      0.08862     0.02419     0.01955
 Rotational constants (GHZ):           1.84648     0.50397     0.40741
 Zero-point vibrational energy     584739.1 (Joules/Mol)
                                  139.75601 (Kcal/Mol)
 Warning -- explicit consideration of  17 degrees of freedom as
           vibrations may cause significant error
 Vibrational temperatures:     39.47    91.06   111.24   152.51   168.68
          (Kelvin)            254.85   281.63   286.01   323.33   363.45
                              395.20   464.16   496.83   565.76   704.98
                              755.41   807.60   899.22   929.25   966.40
                             1019.13  1116.41  1126.57  1158.12  1255.86
                             1266.04  1375.03  1424.43  1467.90  1475.38
                             1498.59  1540.77  1561.16  1597.65  1667.40
                             1677.18  1742.51  1792.92  1819.71  1879.38
                             1903.28  1976.90  1995.12  2062.68  2070.79
                             2077.18  2122.81  2136.04  2170.84  2172.79
                             2181.58  2199.48  2202.54  2213.21  2224.08
                             2277.17  2335.74  2477.16  4327.76  4362.52
                             4366.93  4400.42  4427.92  4442.83  4464.39
                             4498.21  4510.11  4541.46  4576.60  4679.61
                             4756.80  4981.77

 Zero-point correction=                           0.222715 (Hartree/Particle)
 Thermal correction to Energy=                    0.235653
 Thermal correction to Enthalpy=                  0.236597
 Thermal correction to Gibbs Free Energy=         0.182528
 Sum of electronic and zero-point Energies=           -532.047953
 Sum of electronic and thermal Energies=              -532.035015
 Sum of electronic and thermal Enthalpies=            -532.034071
 Sum of electronic and thermal Free Energies=         -532.088140

                     E (Thermal)             CV                S
                      KCal/Mol        Cal/Mol-Kelvin    Cal/Mol-Kelvin
 Total                  147.874             46.871            113.798
 Electronic               0.000              0.000              0.000
 Translational            0.889              2.981             41.231
 Rotational               0.889              2.981             31.117
 Vibrational            146.097             40.909             41.450
 Vibration     1          0.593              1.984              6.007
 Vibration     2          0.597              1.972              4.352
 Vibration     3          0.599              1.964              3.958
 Vibration     4          0.605              1.944              3.341
 Vibration     5          0.608              1.935              3.145
 Vibration     6          0.628              1.871              2.358
 Vibration     7          0.636              1.846              2.173
 Vibration     8          0.637              1.842              2.144
 Vibration     9          0.649              1.803              1.921
 Vibration    10          0.664              1.758              1.712
 Vibration    11          0.677              1.720              1.567
 Vibration    12          0.708              1.630              1.297
 Vibration    13          0.724              1.585              1.188
 Vibration    14          0.760              1.485              0.988
 Vibration    15          0.846              1.272              0.684
 Vibration    16          0.880              1.195              0.598
 Vibration    17          0.917              1.115              0.521

 Optimization completed.
    -- Stationary point found.

 1\1\GINC-NODE125\Freq\RB3LYP\6-31G(d)\C8H14N4\VSC10255\09-Dec-2020\0\\
 #N Geom=AllCheck Guess=TCheck SCRF=Check GenChk RB3LYP/6-31G(d) Freq\\
 CID_130977853_JID_2224_neutraal\\0,1\C,1.7232640176,-0.238496286,-0.77
 29880961\C,1.6723831491,-1.7716246947,-0.6369507506\C,0.749589053,-2.2
 128733083,0.4800640991\N,-0.5341984579,-2.2196288523,0.4193761353\N,-1
 .1400225315,-1.7957973654,-0.7412344899\C,-2.469227912,-2.1955514773,-
 0.8978231393\C,-3.3048387617,-2.9874857049,-0.1291156162\C,-4.53691579
 87,-2.9485709307,-0.8193718619\N,-4.4844141211,-2.2077506499,-1.924080

 Normal termination of Gaussian 16 at Wed Dec  9 17:04:26 2020.

 ----------------------------------------------------------------------
 # B3LYP/6-311++G(d,p) empiricaldispersion=gd3bj scf=xqc pop=npa geom=c
 heck
 ----------------------------------------------------------------------

 ---------------------------------------
 CID_130977853_JID_2224_Energie_neutraal
 ---------------------------------------
 Structure from the checkpoint file:  "JID_2224.chk"
 Charge =  0 Multiplicity = 1

 SCF Done:  E(RB3LYP) =  -532.418452116     A.U. after   15 cycles
 Normal termination of Gaussian 16 at Wed Dec  9 17:07:26 2020.

 ----------------------------------------------------------------------
 # B3LYP/6-311++G(d,p) empiricaldispersion=gd3bj scf=xqc pop=npa geom=c
 heck
 ----------------------------------------------------------------------

 -------------------------------------
 CID_130977853_JID_2224_Energie_kation
 -------------------------------------
 Structure from the checkpoint file:  "JID_2224.chk"
 Charge =  1 Multiplicity = 2

 SCF Done:  E(UB3LYP) =  -532.145772688     A.U. after   20 cycles
 Normal termination of Gaussian 16 at Wed Dec  9 17:12:34 2020.
 Gaussian 16:  ES64L-G16RevA.03 25-Dec-2016

 ------------------------------------
 CID_130977853_JID_2224_Energie_anion
 ------------------------------------
 Structure from the checkpoint file:  "JID_2224.chk"
 Charge = -1 Multiplicity = 2

                         Standard orientation:
 ---------------------------------------------------------------------
 Center     Atomic      Atomic             Coordinates (Angstroms)
 Number     Number       Type             X           Y           Z
 ---------------------------------------------------------------------
      1          6           0        2.904354    1.771857    0.482468
      2          6           0        2.780020    0.727691   -0.642627
      3          6           0        2.270542   -0.603078   -0.129347
      4          7           0        1.049654   -0.857267    0.181553
      5          7           0        0.114614    0.143331    0.046734
      6          6           0       -1.213843   -0.286425    0.006474
      7          6           0       -1.791331   -1.544346    0.027853
      8          6           0       -3.179048   -1.279602    0.016276
      9          7           0       -3.454027    0.022427   -0.016272
     10          7           0       -2.228142    0.623656   -0.004125
     11          6           0       -2.119107    2.063322   -0.029792
     12          6           0        3.273641   -1.699497    0.093805
     13          1           0        1.941801    1.934027    0.977425
     14          1           0        3.258331    2.730615    0.089109
     15          1           0        3.614874    1.434441    1.244198
     16          1           0        2.121074    1.113764   -1.435910
     17          1           0        3.755800    0.577849   -1.116807
     18          1           0        0.340149    0.896641   -0.601652
     19          1           0       -1.271435   -2.488217    0.052456
     20          1           0       -3.993628   -1.992326    0.026362
     21          1           0       -3.097608    2.466730    0.230863
     22          1           0       -1.376586    2.395638    0.703341
     23          1           0       -1.835235    2.435727   -1.023406
     24          1           0        3.763007   -1.981588   -0.848054
     25          1           0        4.067882   -1.368880    0.777309
     26          1           0        2.785513   -2.578984    0.518880
 ---------------------------------------------------------------------

 SCF Done:  E(UB3LYP) =  -532.410375964     A.U. after   31 cycles

 The electronic state is 2-A.
 Alpha  occ. eigenvalues --  -14.28415 -14.26367 -14.23565 -14.22330 -10.14121
 Alpha  occ. eigenvalues --  -10.11032 -10.10935 -10.08969 -10.07394 -10.06997
 Alpha  occ. eigenvalues --  -10.05899 -10.05838  -0.95154  -0.90794  -0.76823
 Alpha  occ. eigenvalues --   -0.73661  -0.67900  -0.65537  -0.61594  -0.60017
 Alpha  occ. eigenvalues --   -0.53814  -0.51456  -0.48024  -0.46239  -0.44469
 Alpha  occ. eigenvalues --   -0.39377  -0.38002  -0.36172  -0.34803  -0.34164
 Alpha  occ. eigenvalues --   -0.33087  -0.32481  -0.30653  -0.30330  -0.30012
 Alpha  occ. eigenvalues --   -0.29453  -0.28270  -0.26821  -0.26703  -0.24157
 Alpha  occ. eigenvalues --   -0.19568  -0.17726  -0.17396  -0.15067  -0.10621
 Alpha  occ. eigenvalues --    0.04260
 Alpha virt. eigenvalues --    0.06818   0.07939   0.08420   0.08632   0.09251
 Alpha virt. eigenvalues --    0.09720   0.10845   0.11240   0.11393   0.11543
 Alpha virt. eigenvalues --    0.12382   0.12590   0.13537   0.13793   0.14914

  Beta  occ. eigenvalues --  -14.28411 -14.26343 -14.23522 -14.22326 -10.14119
  Beta  occ. eigenvalues --  -10.10983 -10.10923 -10.08968 -10.07349 -10.06972
  Beta  occ. eigenvalues --  -10.05897 -10.05785  -0.95141  -0.90742  -0.76782
  Beta  occ. eigenvalues --   -0.73633  -0.67854  -0.65481  -0.61541  -0.59965
  Beta  occ. eigenvalues --   -0.53695  -0.51420  -0.47973  -0.46188  -0.44423
  Beta  occ. eigenvalues --   -0.39292  -0.37967  -0.36148  -0.34763  -0.34092
  Beta  occ. eigenvalues --   -0.33049  -0.32450  -0.30609  -0.30291  -0.29965
  Beta  occ. eigenvalues --   -0.29423  -0.28202  -0.26751  -0.26623  -0.24099
  Beta  occ. eigenvalues --   -0.19555  -0.17610  -0.17354  -0.15046  -0.10577
  Beta virt. eigenvalues --    0.06940   0.07684   0.08065   0.08956   0.09214
  Beta virt. eigenvalues --    0.09744   0.10161   0.11333   0.11451   0.11785
  Beta virt. eigenvalues --    0.12023   0.12697   0.12967   0.13764   0.14020

 Mulliken charges and spin densities:
               1          2
     1  C    1.850147  -2.387322
     2  C   -1.668047   1.432976
     3  C    0.231060  -0.173834
     4  N   -0.213838   0.224886
     5  N    0.076018  -0.134011
     6  C   -0.785954   0.126923
     7  C    0.393209   0.067213
     8  C   -0.343532  -0.075503
     9  N   -0.107244  -0.030804
    10  N    0.035970   0.095547
    11  C    0.693640  -1.082263
    12  C    1.094559  -1.665020
    13  H   -0.081851   0.244590
    14  H   -0.688971   0.843972
    15  H   -0.125524   0.255710
    16  H   -0.757903   0.915857
    17  H   -0.686195   0.872315
    18  H    0.796423  -0.514636
    19  H    0.116964   0.056225
    20  H    0.115904   0.011751
    21  H   -0.065712   0.226608
    22  H   -0.183219   0.357353
    23  H   -0.467823   0.659757
    24  H   -0.278963   0.437636
    25  H   -0.068815   0.218194
    26  H    0.119698   0.015878
 Sum of Mulliken charges =  -1.00000   1.00000

 Dipole moment (field-independent basis, Debye):
    X=             -4.5631    Y=             -5.6188    Z=              2.5446  Tot=              7.6726
 Quadrupole moment (field-independent basis, Debye-Ang):
   XX=           -147.1448   YY=           -118.3059   ZZ=           -103.1482
   XY=             -6.0339   XZ=              6.3269   YZ=              5.3021

 Summary of Natural Population Analysis:

                                       Natural Population
                Natural  -----------------------------------------------
    Atom  No    Charge         Core      Valence    Rydberg      Total
 -----------------------------------------------------------------------
      C    1   -0.28225      0.99966     2.27634    0.00625     3.28225
      C    2   -0.22639      0.99960     2.21650    0.01028     3.22639
      C    3    0.12638      0.99961     1.85819    0.01582     2.87362
      N    4   -0.14409      0.99961     2.63186    0.01263     3.64409
      N    5   -0.22572      0.99966     2.71560    0.01047     3.72572
      C    6    0.18431      0.99950     1.80217    0.01401     2.81569
      C    7   -0.18442      0.99951     2.17727    0.00763     3.18442
      C    8   -0.01419      0.99965     1.99966    0.01488     3.01419
      N    9   -0.16701      0.99974     2.65596    0.01132     3.66701
      N   10   -0.12139      0.99962     2.60869    0.01308     3.62139
      C   11   -0.17899      0.99964     2.17097    0.00837     3.17899
      C   12   -0.29864      0.99962     2.29328    0.00574     3.29864
      H   13    0.09997      0.00000     0.39826    0.00178     0.40003
      H   14    0.10503      0.00000     0.39210    0.00286     0.39497
      H   15    0.09623      0.00000     0.40256    0.00120     0.40377
      H   16    0.10465      0.00000     0.39152    0.00383     0.39535
      H   17    0.10795      0.00000     0.38938    0.00267     0.39205
      H   18    0.18616      0.00000     0.30973    0.00411     0.31384
      H   19    0.11422      0.00000     0.38500    0.00078     0.38578
      H   20    0.09300      0.00000     0.40627    0.00073     0.40700
      H   21    0.10840      0.00000     0.39003    0.00157     0.39160
      H   22    0.10370      0.00000     0.39472    0.00159     0.39630
      H   23    0.09972      0.00000     0.39840    0.00188     0.40028
      H   24    0.10411      0.00000     0.39458    0.00131     0.39589
      H   25    0.10288      0.00000     0.39607    0.00106     0.39712
      H   26    0.10639      0.00000     0.39258    0.00103     0.39361
 =======================================================================
   * Total *   -0.00000     11.99543    32.84770    0.15687    45.00000

 Normal termination of Gaussian 16 at Wed Dec  9 17:20:13 2020.
