 Gaussian 16, Revision A.03,

 -----------------------------------------------------------
 # opt freq B3LYP/6-31G(d) empiricaldispersion=gd3bj scf=xqc
 -----------------------------------------------------------

 ------------------------------
 CID_82127040_JID_6854_neutraal
 ------------------------------
 Symbolic Z-matrix:
 Charge =  0 Multiplicity = 1

 SCF Done:  E(RB3LYP) =  -689.779236734     A.U. after   16 cycles
 SCF Done:  E(RB3LYP) =  -689.803569946     A.U. after   13 cycles
 SCF Done:  E(RB3LYP) =  -689.805573329     A.U. after   15 cycles
 SCF Done:  E(RB3LYP) =  -689.805030243     A.U. after   14 cycles
 SCF Done:  E(RB3LYP) =  -689.806103495     A.U. after   13 cycles
 SCF Done:  E(RB3LYP) =  -689.806710337     A.U. after   13 cycles
 SCF Done:  E(RB3LYP) =  -689.806839449     A.U. after   11 cycles
 SCF Done:  E(RB3LYP) =  -689.806935248     A.U. after   11 cycles
 SCF Done:  E(RB3LYP) =  -689.807016506     A.U. after   11 cycles
 SCF Done:  E(RB3LYP) =  -689.807080585     A.U. after   11 cycles
 SCF Done:  E(RB3LYP) =  -689.807381009     A.U. after    8 cycles
 SCF Done:  E(RB3LYP) =  -689.807381060     A.U. after    8 cycles
 SCF Done:  E(RB3LYP) =  -689.807381142     A.U. after    7 cycles
 SCF Done:  E(RB3LYP) =  -689.807381226     A.U. after    7 cycles
 Optimization completed.
    -- Stationary point found.
 Normal termination of Gaussian 16 at Fri Dec 11 00:12:59 2020.

 --------------------------------------------------------------------
 #N Geom=AllCheck Guess=TCheck SCRF=Check GenChk RB3LYP/6-31G(d) Freq
 --------------------------------------------------------------------

 Structure from the checkpoint file:  "JID_6854.chk"
 ------------------------------
 CID_82127040_JID_6854_neutraal
 ------------------------------
 Charge =  0 Multiplicity = 1

 SCF Done:  E(RB3LYP) =  -689.807381226     A.U. after    1 cycles

  Exact polarizability: 141.001  21.353 142.187 -15.142   9.868 131.147
 Approx polarizability: 213.283  49.313 216.375 -37.728  12.659 222.164

                      1                      2                      3
                      A                      A                      A
 Frequencies --     42.4439                59.6860                63.7231
 Red. masses --      4.6695                 3.6082                 4.5832
 Frc consts  --      0.0050                 0.0076                 0.0110
 IR Inten    --      1.4339                 0.1259                 3.3943

                      4                      5                      6
                      A                      A                      A
 Frequencies --     88.4315                92.4818               116.0425
 Red. masses --      3.0781                 5.0463                 1.4533
 Frc consts  --      0.0142                 0.0254                 0.0115
 IR Inten    --      0.6571                 0.4668                 1.3387

                      7                      8                      9
                      A                      A                      A
 Frequencies --    139.2343               149.9739               160.9350
 Red. masses --      3.6915                 2.3180                 1.3253
 Frc consts  --      0.0422                 0.0307                 0.0202
 IR Inten    --      5.2038                 0.7945                 0.2037

                     10                     11                     12
                      A                      A                      A
 Frequencies --    167.8651               177.7381               221.2261
 Red. masses --      1.3242                 2.5716                 3.1345
 Frc consts  --      0.0220                 0.0479                 0.0904
 IR Inten    --      2.3615                 1.4987                 0.9876

                     13                     14                     15
                      A                      A                      A
 Frequencies --    266.2435               296.6259               335.3898
 Red. masses --      2.9188                 4.1675                 4.6531
 Frc consts  --      0.1219                 0.2160                 0.3084
 IR Inten    --      6.4041                 0.4317                15.4123

                     16                     17                     18
                      A                      A                      A
 Frequencies --    365.5065               391.2911               434.6894
 Red. masses --      3.0148                 4.7004                 2.5703
 Frc consts  --      0.2373                 0.4240                 0.2862
 IR Inten    --      5.6965                 0.5387                 0.3951

                     19                     20                     21
                      A                      A                      A
 Frequencies --    451.9196               462.0498               472.9646
 Red. masses --      3.1145                 3.9217                 3.0317
 Frc consts  --      0.3748                 0.4933                 0.3996
 IR Inten    --      5.3088                 4.0706                 6.1615

                     22                     23                     24
                      A                      A                      A
 Frequencies --    536.1145               551.9890               582.0597
 Red. masses --      3.5466                 5.3871                 4.7491
 Frc consts  --      0.6006                 0.9671                 0.9480
 IR Inten    --      0.3953                 0.8743                 9.5107

                     25                     26                     27
                      A                      A                      A
 Frequencies --    592.0351               641.1918               712.6252
 Red. masses --      4.9302                 6.4764                 4.1803
 Frc consts  --      1.0181                 1.5688                 1.2508
 IR Inten    --      6.3589                 0.7677                 0.0358

                     28                     29                     30
                      A                      A                      A
 Frequencies --    739.4480               761.4454               777.9555
 Red. masses --      3.3382                 2.9315                 1.5579
 Frc consts  --      1.0754                 1.0014                 0.5555
 IR Inten    --     10.1238                 8.1778                25.5628

                     31                     32                     33
                      A                      A                      A
 Frequencies --    815.2483               868.5075               876.3330
 Red. masses --      4.6202                 2.7917                 2.9132
 Frc consts  --      1.8092                 1.2407                 1.3181
 IR Inten    --      0.4996                 1.7061                 2.2238

                     34                     35                     36
                      A                      A                      A
 Frequencies --    892.9867               959.2567               980.3737
 Red. masses --      1.6397                 1.3889                 2.7715
 Frc consts  --      0.7704                 0.7530                 1.5695
 IR Inten    --      2.9331                 2.9338                 3.1504

                     37                     38                     39
                      A                      A                      A
 Frequencies --    991.0455              1008.0268              1019.8003
 Red. masses --      1.3021                 2.5476                 1.5841
 Frc consts  --      0.7535                 1.5252                 0.9707
 IR Inten    --      0.5475                 2.0757                 1.2479

                     40                     41                     42
                      A                      A                      A
 Frequencies --   1046.4152              1074.0373              1085.8386
 Red. masses --      2.3146                 1.5348                 2.2383
 Frc consts  --      1.4932                 1.0431                 1.5549
 IR Inten    --     15.4903                 1.9863                 1.8089

                     43                     44                     45
                      A                      A                      A
 Frequencies --   1087.7517              1129.1340              1137.3376
 Red. masses --      1.3845                 2.1783                 1.2345
 Frc consts  --      0.9652                 1.6363                 0.9408
 IR Inten    --      4.7156                10.4407                 1.5545

                     46                     47                     48
                      A                      A                      A
 Frequencies --   1173.8767              1187.7322              1200.0021
 Red. masses --      1.7977                 1.3747                 1.1640
 Frc consts  --      1.4595                 1.1426                 0.9875
 IR Inten    --     95.8268                 1.6534                 0.3542

                     49                     50                     51
                      A                      A                      A
 Frequencies --   1206.1720              1235.3971              1248.4726
 Red. masses --      1.6441                 1.5341                 1.5967
 Frc consts  --      1.4093                 1.3795                 1.4664
 IR Inten    --      3.4179                 0.6886                 2.0675

                     52                     53                     54
                      A                      A                      A
 Frequencies --   1265.0425              1288.5300              1325.0555
 Red. masses --      1.9134                 4.0956                 1.8362
 Frc consts  --      1.8041                 4.0065                 1.8995
 IR Inten    --      3.1801                38.9912                 4.4627

                     55                     56                     57
                      A                      A                      A
 Frequencies --   1341.6593              1374.2585              1382.8653
 Red. masses --      2.1284                 1.5161                 1.9544
 Frc consts  --      2.2572                 1.6870                 2.2020
 IR Inten    --      1.1176                 2.4356                 6.9498

                     58                     59                     60
                      A                      A                      A
 Frequencies --   1443.8057              1448.5827              1454.7856
 Red. masses --      1.6050                 1.3172                 1.3567
 Frc consts  --      1.9712                 1.6285                 1.6917
 IR Inten    --     43.7003                20.1512                26.3837

                     61                     62                     63
                      A                      A                      A
 Frequencies --   1493.2282              1493.5778              1508.3783
 Red. masses --      1.5871                 1.4065                 1.0704
 Frc consts  --      2.0850                 1.8486                 1.4349
 IR Inten    --      5.5362                16.8209                 6.9050

                     64                     65                     66
                      A                      A                      A
 Frequencies --   1516.9504              1520.8371              1526.8626
 Red. masses --      1.0598                 1.0501                 1.0920
 Frc consts  --      1.4369                 1.4310                 1.5000
 IR Inten    --      3.2099                18.5822                 2.7990

                     67                     68                     69
                      A                      A                      A
 Frequencies --   1529.1915              1538.0113              1546.5665
 Red. masses --      1.2494                 1.0689                 2.1260
 Frc consts  --      1.7213                 1.4897                 2.9960
 IR Inten    --     13.7651                14.6943                17.9162

                     70                     71                     72
                      A                      A                      A
 Frequencies --   1567.2593              1640.4969              1666.9680
 Red. masses --      1.2301                 5.8879                 5.5665
 Frc consts  --      1.7803                 9.3361                 9.1135
 IR Inten    --     40.0275                 0.0399                 0.9309

                     73                     74                     75
                      A                      A                      A
 Frequencies --   1752.7324              2372.4949              3031.7524
 Red. masses --      9.5208                12.6678                 1.0453
 Frc consts  --     17.2327                42.0109                 5.6606
 IR Inten    --    242.1898                 5.3763                31.7050

                     76                     77                     78
                      A                      A                      A
 Frequencies --   3040.9933              3046.6480              3080.2564
 Red. masses --      1.0395                 1.0417                 1.0817
 Frc consts  --      5.6640                 5.6967                 6.0470
 IR Inten    --     21.7409                44.5136                 7.3506

                     79                     80                     81
                      A                      A                      A
 Frequencies --   3089.5440              3095.0530              3095.9654
 Red. masses --      1.0999                 1.0999                 1.1007
 Frc consts  --      6.1855                 6.2080                 6.2161
 IR Inten    --     17.4801                64.5074                 1.9268

                     82                     83                     84
                      A                      A                      A
 Frequencies --   3104.7305              3131.7582              3151.6107
 Red. masses --      1.0611                 1.0989                 1.1056
 Frc consts  --      6.0266                 6.3499                 6.4699
 IR Inten    --     15.2102                18.6677                13.9538

                     85                     86                     87
                      A                      A                      A
 Frequencies --   3181.6091              3194.6570              3198.7620
 Red. masses --      1.0869                 1.0888                 1.0928
 Frc consts  --      6.4822                 6.5468                 6.5882
 IR Inten    --      7.2189                11.5812                15.8921

                     88                     89                     90
                      A                      A                      A
 Frequencies --   3200.4441              3205.6163              3215.4157
 Red. masses --      1.0965                 1.0926                 1.0971
 Frc consts  --      6.6173                 6.6149                 6.6830
 IR Inten    --      2.4210                15.2381                11.6745

 - Thermochemistry -
 -------------------
 Temperature   298.150 Kelvin.  Pressure   1.00000 Atm.
 Atom     1 has atomic number  6 and mass  12.00000

 Molecular mass:   216.12626 amu.
 Principal axes and moments of inertia in atomic units:
                           1         2         3
     Eigenvalues --  2799.199553505.361574441.13642
           X            0.99768  -0.06511  -0.02004
           Y            0.06608   0.99646   0.05202
           Z            0.01658  -0.05323   0.99844
 This molecule is an asymmetric top.
 Rotational symmetry number  1.
 Warning -- assumption of classical behavior for rotation
           may cause significant error
 Rotational temperatures (Kelvin)      0.03094     0.02471     0.01950
 Rotational constants (GHZ):           0.64473     0.51485     0.40637
 Zero-point vibrational energy     706622.3 (Joules/Mol)
                                  168.88679 (Kcal/Mol)
 Warning -- explicit consideration of  25 degrees of freedom as
           vibrations may cause significant error
 Vibrational temperatures:     61.07    85.87    91.68   127.23   133.06
          (Kelvin)            166.96   200.33   215.78   231.55   241.52
                              255.73   318.30   383.06   426.78   482.55
                              525.88   562.98   625.42   650.21   664.79
                              680.49   771.35   794.19   837.45   851.81
                              922.53  1025.31  1063.90  1095.55  1119.30
                             1172.96  1249.59  1260.85  1284.81  1380.16
                             1410.54  1425.89  1450.33  1467.27  1505.56
                             1545.30  1562.28  1565.03  1624.57  1636.38
                             1688.95  1708.88  1726.54  1735.41  1777.46
                             1796.27  1820.11  1853.91  1906.46  1930.35
                             1977.25  1989.63  2077.31  2084.19  2093.11
                             2148.42  2148.93  2170.22  2182.55  2188.15
                             2196.81  2200.17  2212.86  2225.16  2254.94
                             2360.31  2398.40  2521.79  3413.49  4362.02
                             4375.31  4383.45  4431.80  4445.16  4453.09
                             4454.40  4467.01  4505.90  4534.46  4577.63
                             4596.40  4602.31  4604.73  4612.17  4626.27

 Zero-point correction=                           0.269138 (Hartree/Particle)
 Thermal correction to Energy=                    0.285351
 Thermal correction to Enthalpy=                  0.286295
 Thermal correction to Gibbs Free Energy=         0.225284
 Sum of electronic and zero-point Energies=           -689.538243
 Sum of electronic and thermal Energies=              -689.522030
 Sum of electronic and thermal Enthalpies=            -689.521086
 Sum of electronic and thermal Free Energies=         -689.582097

                     E (Thermal)             CV                S
                      KCal/Mol        Cal/Mol-Kelvin    Cal/Mol-Kelvin
 Total                  179.061             59.746            128.409
 Electronic               0.000              0.000              0.000
 Translational            0.889              2.981             42.015
 Rotational               0.889              2.981             32.144
 Vibrational            177.283             53.784             54.249
 Vibration     1          0.595              1.980              5.142
 Vibration     2          0.597              1.974              4.468
 Vibration     3          0.597              1.972              4.338
 Vibration     4          0.601              1.957              3.694
 Vibration     5          0.602              1.955              3.607
 Vibration     6          0.608              1.936              3.165
 Vibration     7          0.615              1.914              2.814
 Vibration     8          0.618              1.903              2.673
 Vibration     9          0.622              1.890              2.539
 Vibration    10          0.625              1.882              2.459
 Vibration    11          0.628              1.870              2.352
 Vibration    12          0.648              1.809              1.949
 Vibration    13          0.672              1.735              1.620
 Vibration    14          0.690              1.680              1.436
 Vibration    15          0.717              1.605              1.234
 Vibration    16          0.739              1.543              1.099
 Vibration    17          0.759              1.489              0.995
 Vibration    18          0.795              1.395              0.843
 Vibration    19          0.811              1.357              0.790
 Vibration    20          0.820              1.334              0.760
 Vibration    21          0.830              1.310              0.729
 Vibration    22          0.891              1.170              0.574
 Vibration    23          0.907              1.135              0.540
 Vibration    24          0.939              1.070              0.482
 Vibration    25          0.950              1.049              0.464

 Optimization completed.
    -- Stationary point found.
 Normal termination of Gaussian 16 at Fri Dec 11 00:25:14 2020.

 ----------------------------------------------------------------------
 # B3LYP/6-311++G(d,p) empiricaldispersion=gd3bj scf=xqc pop=npa geom=c
 heck
 ----------------------------------------------------------------------

 --------------------------------------
 CID_82127040_JID_6854_Energie_neutraal
 --------------------------------------
 Structure from the checkpoint file:  "JID_6854.chk"
 Charge =  0 Multiplicity = 1

 SCF Done:  E(RB3LYP) =  -689.994674134     A.U. after   16 cycles
 Normal termination of Gaussian 16 at Fri Dec 11 00:30:22 2020.

 ----------------------------------------------------------------------
 # B3LYP/6-311++G(d,p) empiricaldispersion=gd3bj scf=xqc pop=npa geom=c
 heck
 ----------------------------------------------------------------------

 ------------------------------------
 CID_82127040_JID_6854_Energie_kation
 ------------------------------------
 Structure from the checkpoint file:  "JID_6854.chk"
 Charge =  1 Multiplicity = 2

 SCF Done:  E(UB3LYP) =  -689.675973085     A.U. after   33 cycles
 SCF Done:  E(UB3LYP) =  -689.678116516     a.u. after   10 cycles
 Normal termination of Gaussian 16 at Fri Dec 11 02:20:17 2020.
 Gaussian 16:  ES64L-G16RevA.03 25-Dec-2016

 ----------------------------------------------------------------------
 # B3LYP/6-311++G(d,p) empiricaldispersion=gd3bj scf=xqc pop=npa geom=c
 heck
 ----------------------------------------------------------------------

 -----------------------------------
 CID_82127040_JID_6854_Energie_anion
 -----------------------------------
 Structure from the checkpoint file:  "JID_6854.chk"
 Charge = -1 Multiplicity = 2

                         Standard orientation:
 ---------------------------------------------------------------------
 Center     Atomic      Atomic             Coordinates (Angstroms)
 Number     Number       Type             X           Y           Z
 ---------------------------------------------------------------------
      1          6           0       -2.436334    0.880213    1.837841
      2          6           0       -2.052834    0.263095    0.512929
      3          6           0       -2.872560   -0.718893   -0.056170
      4          6           0       -2.549600   -1.323197   -1.270160
      5          6           0       -1.390460   -0.941150   -1.944987
      6          6           0       -0.567180    0.040666   -1.397578
      7          6           0       -0.884034    0.640259   -0.174230
      8          6           0        0.094638    1.629359    0.452126
      9          6           0        1.185128    0.895914    1.294111
     10          6           0        1.938144   -0.122281    0.442532
     11          8           0        2.785581    0.289659   -0.345487
     12          7           0        1.639813   -1.455958    0.561939
     13          6           0        0.501126   -2.024962    1.265242
     14          6           0        2.286217   -2.374969   -0.365931
     15          6           0        0.693292    2.515108   -0.556650
     16          7           0        1.118495    3.247638   -1.349209
     17          1           0       -3.362943    0.439040    2.215183
     18          1           0       -1.666218    0.730136    2.604990
     19          1           0       -2.598568    1.962007    1.753460
     20          1           0       -3.779247   -1.012731    0.466481
     21          1           0       -3.203580   -2.083202   -1.688034
     22          1           0       -1.129744   -1.397107   -2.895476
     23          1           0        0.337929    0.342410   -1.915947
     24          1           0       -0.445660    2.287649    1.140361
     25          1           0        1.924440    1.626164    1.631945
     26          1           0        0.702473    0.471463    2.175425
     27          1           0       -0.314589   -2.257213    0.568748
     28          1           0        0.812498   -2.951657    1.760999
     29          1           0        0.116437   -1.349047    2.025290
     30          1           0        3.163142   -1.887723   -0.787353
     31          1           0        2.578459   -3.288039    0.164078
     32          1           0        1.599107   -2.646133   -1.179803
 ---------------------------------------------------------------------

 SCF Done:  E(UB3LYP) =  -689.989820052     A.U. after   33 cycles
 SCF Done:  E(UB3LYP) =  -689.989820052     a.u. after    1 cycles

 The electronic state is 2-A.
 Alpha  occ. eigenvalues --  -18.99177 -14.25473 -14.21373 -10.17939 -10.13701
 Alpha  occ. eigenvalues --  -10.11396 -10.10690 -10.10621 -10.09896 -10.09814
 Alpha  occ. eigenvalues --  -10.09535 -10.08529 -10.08495 -10.08412 -10.08226
 Alpha  occ. eigenvalues --  -10.07403  -0.94661  -0.84446  -0.81360  -0.77966
 Alpha  occ. eigenvalues --   -0.72864  -0.68417  -0.65733  -0.63300  -0.61718
 Alpha  occ. eigenvalues --   -0.59711  -0.57447  -0.52010  -0.49689  -0.45437
 Alpha  occ. eigenvalues --   -0.43981  -0.42680  -0.39537  -0.39132  -0.38323
 Alpha  occ. eigenvalues --   -0.37814  -0.35574  -0.34876  -0.33758  -0.33067
 Alpha  occ. eigenvalues --   -0.32263  -0.31470  -0.31273  -0.30969  -0.30051
 Alpha  occ. eigenvalues --   -0.29694  -0.28732  -0.27544  -0.27188  -0.26362
 Alpha  occ. eigenvalues --   -0.25768  -0.25321  -0.23279  -0.22988  -0.16750
 Alpha  occ. eigenvalues --   -0.16422  -0.15912  -0.15188   0.03804
 Alpha virt. eigenvalues --    0.06190   0.06592   0.06702   0.07264   0.07686
 Alpha virt. eigenvalues --    0.08733   0.09124   0.09634   0.09949   0.10312
 Alpha virt. eigenvalues --    0.11234   0.11522   0.11901   0.12333   0.12396

  Beta  occ. eigenvalues --  -18.99171 -14.25471 -14.21365 -10.17934 -10.13695
  Beta  occ. eigenvalues --  -10.11394 -10.10677 -10.10579 -10.09853 -10.09782
  Beta  occ. eigenvalues --  -10.09501 -10.08533 -10.08467 -10.08381 -10.08217
  Beta  occ. eigenvalues --  -10.07347  -0.94649  -0.84435  -0.81341  -0.77910
  Beta  occ. eigenvalues --   -0.72811  -0.68339  -0.65682  -0.63260  -0.61669
  Beta  occ. eigenvalues --   -0.59621  -0.57396  -0.51973  -0.49597  -0.45384
  Beta  occ. eigenvalues --   -0.43937  -0.42619  -0.39490  -0.39087  -0.38288
  Beta  occ. eigenvalues --   -0.37772  -0.35522  -0.34826  -0.33720  -0.32985
  Beta  occ. eigenvalues --   -0.32204  -0.31430  -0.31240  -0.30930  -0.30011
  Beta  occ. eigenvalues --   -0.29639  -0.28702  -0.27495  -0.27157  -0.26289
  Beta  occ. eigenvalues --   -0.25721  -0.25287  -0.23246  -0.22952  -0.16675
  Beta  occ. eigenvalues --   -0.16387  -0.15715  -0.15155
  Beta virt. eigenvalues --    0.06174   0.06722   0.07105   0.07279   0.07458
  Beta virt. eigenvalues --    0.08225   0.09242   0.09575   0.09936   0.10285
  Beta virt. eigenvalues --    0.10604   0.11513   0.11859   0.12128   0.12593

 Mulliken charges and spin densities:
               1          2
     1  C    3.109364  -3.620311
     2  C   -2.582257   3.194367
     3  C    1.042895  -1.512509
     4  C    0.403004  -0.716577
     5  C    0.035608  -0.475031
     6  C   -0.307284  -0.093307
     7  C   -0.344584   0.900983
     8  C   -0.154702   0.731132
     9  C    0.748947  -1.163138
    10  C   -0.398758   0.213129
    11  O   -0.293573   0.003368
    12  N   -0.010589   0.108261
    13  C    0.671662  -1.001816
    14  C    0.049556  -0.327047
    15  C   -0.388621  -0.343312
    16  N   -0.264014   0.007802
    17  H   -0.585871   0.757282
    18  H   -0.372594   0.547611
    19  H    0.038779   0.133805
    20  H   -0.392690   0.557375
    21  H   -0.331726   0.498105
    22  H    0.025332   0.133667
    23  H    0.242717  -0.030219
    24  H   -0.110058   0.357474
    25  H    0.057380   0.165904
    26  H   -0.355976   0.510460
    27  H    0.069657   0.098588
    28  H   -0.413004   0.592659
    29  H   -0.392955   0.512851
    30  H    0.120068   0.053302
    31  H    0.028356   0.109548
    32  H    0.055930   0.095596
 Sum of Mulliken charges =  -1.00000   1.00000

 Dipole moment (field-independent basis, Debye):
    X=              1.4296    Y=             -1.6035    Z=             -3.7486  Tot=              4.3205
 Quadrupole moment (field-independent basis, Debye-Ang):
   XX=           -152.3601   YY=           -145.3937   ZZ=           -146.0024
   XY=            -10.8944   XZ=             10.7996   YZ=             10.2240

 Summary of Natural Population Analysis:

                                       Natural Population
                Natural  -----------------------------------------------
    Atom  No    Charge         Core      Valence    Rydberg      Total
 -----------------------------------------------------------------------
      C    1   -0.29792      0.99963     2.29191    0.00638     3.29792
      C    2   -0.00738      0.99946     1.99693    0.01098     3.00738
      C    3   -0.09861      0.99951     2.08869    0.01041     3.09861
      C    4   -0.09551      0.99956     2.08581    0.01014     3.09551
      C    5   -0.10022      0.99956     2.09080    0.00987     3.10022
      C    6   -0.10079      0.99950     2.09254    0.00874     3.10079
      C    7   -0.01303      0.99945     2.00153    0.01205     3.01303
      C    8   -0.16775      0.99947     2.15632    0.01196     3.16775
      C    9   -0.21500      0.99957     2.20498    0.01045     3.21500
      C   10    0.34202      0.99963     1.63405    0.02431     2.65798
      O   11   -0.32637      0.99988     3.32128    0.00522     4.32637
      N   12   -0.24929      0.99965     2.73886    0.01078     3.74929
      C   13   -0.17547      0.99962     2.16718    0.00868     3.17547
      C   14   -0.17990      0.99963     2.17274    0.00753     3.17990
      C   15    0.16898      0.99964     1.81211    0.01926     2.83102
      N   16   -0.17950      0.99978     2.66928    0.01043     3.67950
      H   17    0.10835      0.00000     0.38996    0.00169     0.39165
      H   18    0.10989      0.00000     0.38625    0.00386     0.39011
      H   19    0.10348      0.00000     0.39548    0.00104     0.39652
      H   20    0.10293      0.00000     0.39585    0.00122     0.39707
      H   21    0.10124      0.00000     0.39786    0.00090     0.39876
      H   22    0.09980      0.00000     0.39939    0.00081     0.40020
      H   23    0.11114      0.00000     0.38740    0.00146     0.38886
      H   24    0.12934      0.00000     0.36834    0.00232     0.37066
      H   25    0.11623      0.00000     0.38247    0.00130     0.38377
      H   26    0.11134      0.00000     0.38655    0.00211     0.38866
      H   27    0.09990      0.00000     0.39814    0.00196     0.40010
      H   28    0.09631      0.00000     0.40237    0.00132     0.40369
      H   29    0.10473      0.00000     0.39317    0.00209     0.39527
      H   30    0.11447      0.00000     0.38461    0.00093     0.38553
      H   31    0.09332      0.00000     0.40586    0.00082     0.40668
      H   32    0.09325      0.00000     0.40586    0.00089     0.40675
 =======================================================================
   * Total *    0.00000     15.99354    41.80456    0.20190    58.00000

 Normal termination of Gaussian 16 at Fri Dec 11 02:34:06 2020.
